 Entering Gaussian System, Link 0=g16
 Input=NDI_170.gjf
 Output=NDI_170.log
 Initial command:
 /apps/gaussian/g16-c01-avx/g16/l1.exe "/tmp/pbs.4768611[345].pbs/Gau-1251265.inp" -scrdir="/tmp/pbs.4768611[345].pbs/"
 Entering Link 1 = /apps/gaussian/g16-c01-avx/g16/l1.exe PID=   1251266.
  
 Copyright (c) 1988-2019, Gaussian, Inc.  All Rights Reserved.
  
 This is part of the Gaussian(R) 16 program.  It is based on
 the Gaussian(R) 09 system (copyright 2009, Gaussian, Inc.),
 the Gaussian(R) 03 system (copyright 2003, Gaussian, Inc.),
 the Gaussian(R) 98 system (copyright 1998, Gaussian, Inc.),
 the Gaussian(R) 94 system (copyright 1995, Gaussian, Inc.),
 the Gaussian 92(TM) system (copyright 1992, Gaussian, Inc.),
 the Gaussian 90(TM) system (copyright 1990, Gaussian, Inc.),
 the Gaussian 88(TM) system (copyright 1988, Gaussian, Inc.),
 the Gaussian 86(TM) system (copyright 1986, Carnegie Mellon
 University), and the Gaussian 82(TM) system (copyright 1983,
 Carnegie Mellon University). Gaussian is a federally registered
 trademark of Gaussian, Inc.
  
 This software contains proprietary and confidential information,
 including trade secrets, belonging to Gaussian, Inc.
  
 This software is provided under written license and may be
 used, copied, transmitted, or stored only in accord with that
 written license.
  
 The following legend is applicable only to US Government
 contracts under FAR:
  
                    RESTRICTED RIGHTS LEGEND
  
 Use, reproduction and disclosure by the US Government is
 subject to restrictions as set forth in subparagraphs (a)
 and (c) of the Commercial Computer Software - Restricted
 Rights clause in FAR 52.227-19.
  
 Gaussian, Inc.
 340 Quinnipiac St., Bldg. 40, Wallingford CT 06492
  
  
 ---------------------------------------------------------------
 Warning -- This program may not be used in any manner that
 competes with the business of Gaussian, Inc. or will provide
 assistance to any competitor of Gaussian, Inc.  The licensee
 of this program is prohibited from giving any competitor of
 Gaussian, Inc. access to this program.  By using this program,
 the user acknowledges that Gaussian, Inc. is engaged in the
 business of creating and licensing software in the field of
 computational chemistry and represents and warrants to the
 licensee that it is not a competitor of Gaussian, Inc. and that
 it will not use this program in any manner prohibited above.
 ---------------------------------------------------------------
  

 Cite this work as:
 Gaussian 16, Revision C.01,
 M. J. Frisch, G. W. Trucks, H. B. Schlegel, G. E. Scuseria, 
 M. A. Robb, J. R. Cheeseman, G. Scalmani, V. Barone, 
 G. A. Petersson, H. Nakatsuji, X. Li, M. Caricato, A. V. Marenich, 
 J. Bloino, B. G. Janesko, R. Gomperts, B. Mennucci, H. P. Hratchian, 
 J. V. Ortiz, A. F. Izmaylov, J. L. Sonnenberg, D. Williams-Young, 
 F. Ding, F. Lipparini, F. Egidi, J. Goings, B. Peng, A. Petrone, 
 T. Henderson, D. Ranasinghe, V. G. Zakrzewski, J. Gao, N. Rega, 
 G. Zheng, W. Liang, M. Hada, M. Ehara, K. Toyota, R. Fukuda, 
 J. Hasegawa, M. Ishida, T. Nakajima, Y. Honda, O. Kitao, H. Nakai, 
 T. Vreven, K. Throssell, J. A. Montgomery, Jr., J. E. Peralta, 
 F. Ogliaro, M. J. Bearpark, J. J. Heyd, E. N. Brothers, K. N. Kudin, 
 V. N. Staroverov, T. A. Keith, R. Kobayashi, J. Normand, 
 K. Raghavachari, A. P. Rendell, J. C. Burant, S. S. Iyengar, 
 J. Tomasi, M. Cossi, J. M. Millam, M. Klene, C. Adamo, R. Cammi, 
 J. W. Ochterski, R. L. Martin, K. Morokuma, O. Farkas, 
 J. B. Foresman, and D. J. Fox, Gaussian, Inc., Wallingford CT, 2019.
 
 ******************************************
 Gaussian 16:  ES64L-G16RevC.01  3-Jul-2019
                27-Oct-2021 
 ******************************************
 %mem=100GB
 %nprocshared=16
 Will use up to   16 processors via shared memory.
 ---------------------------------------------------------------
 # opt=modredundant b3lyp/6-311+g(d,p) scrf=(pcm, solvent=water)
 ---------------------------------------------------------------
 1/18=120,19=15,26=3,38=1/1,3;
 2/9=110,12=2,17=6,18=5,40=1/2;
 3/5=4,6=6,7=111,11=2,25=1,30=1,70=2201,71=1,72=1,74=-5/1,2,3;
 4//1;
 5/5=2,38=5,53=1/2;
 6/7=2,8=2,9=2,10=2,28=1/1;
 7//1,2,3,16;
 1/18=20,19=15,26=3/3(2);
 2/9=110/2;
 99//99;
 2/9=110/2;
 3/5=4,6=6,7=111,11=2,25=1,30=1,70=2205,71=1,72=1,74=-5/1,2,3;
 4/5=5,16=3,69=1/1;
 5/5=2,38=5,53=1/2;
 7//1,2,3,16;
 1/18=20,19=15,26=3/3(-5);
 2/9=110/2;
 6/7=2,8=2,9=2,10=2,19=2,28=1/1;
 99/9=1/99;
 -----------
 NDI_170.pdb
 -----------
 Symbolic Z-matrix:
 Charge =  0 Multiplicity = 1
 C                    -2.563    -2.994    -0.409 
 C                    -2.257    -1.551    -0.224 
 C                    -3.301    -0.607    -0.083 
 C                    -4.65     -1.024    -0.115 
 C                    -4.992    -2.459    -0.304 
 C                    -0.949    -1.137    -0.215 
 C                    -2.962     0.764     0.102 
 C                    -1.595     1.188     0.123 
 C                    -0.561     0.232    -0.072 
 C                    -1.328     2.616     0.446 
 C                    -3.777     3.115     0.508 
 C                    -4.035     1.679     0.268 
 C                    -5.356     1.252     0.23 
 C                    -5.672    -0.098     0.036 
 H                    -6.699    -0.442     0.008 
 H                    -6.133     1.997     0.361 
 H                    -0.19     -1.895    -0.369 
 N                    -2.432     3.476     0.608 
 N                    -3.916    -3.353    -0.438 
 O                    -1.695    -3.847    -0.532 
 O                    -6.149    -2.85     -0.34 
 O                    -4.676     3.938     0.629 
 O                    -0.212     3.097     0.596 
 C                    -2.111     4.875     0.912 
 H                    -1.54      4.931     1.84 
 H                    -1.5       5.299     0.111 
 H                    -3.05      5.414     1.003 
 C                    -4.206    -4.779    -0.625 
 H                    -3.759    -5.126    -1.559 
 H                    -3.775    -5.355     0.196 
 H                    -5.286    -4.897    -0.649 
 C                     0.876     0.482    -0.178 
 C                     1.947    -0.39     -0.185 
 S                     1.453     2.149    -0.153 
 C                     3.199     0.256    -0.176 
 H                     1.828    -1.461    -0.204 
 C                     3.129     1.653    -0.169 
 O                     4.419    -0.345    -0.174 
 C                     4.219     2.586    -0.202 
 C                     4.455    -1.761    -0.326 
 C                     4.148     3.978    -0.171 
 S                     5.907     2.09     -0.29 
 H                     5.51     -2.03     -0.381 
 H                     3.997    -2.264     0.534 
 H                     3.946    -2.074    -1.245 
 C                     5.415     4.627    -0.218 
 O                     2.932     4.579    -0.106 
 C                     6.447     3.73     -0.284 
 H                     5.554     5.699    -0.203 
 C                     2.893     6.       -0.041 
 H                     7.505     3.948    -0.327 
 H                     3.333     6.452    -0.939 
 H                     1.839     6.27      0.02 
 H                     3.416     6.372     0.848 
 
 The following ModRedundant input section has been read:
 D       8       9      32      33 F                                           
 

 GradGradGradGradGradGradGradGradGradGradGradGradGradGradGradGradGradGrad
 Berny optimization.
 Initialization pass.
                           ----------------------------
                           !    Initial Parameters    !
                           ! (Angstroms and Degrees)  !
 --------------------------                            --------------------------
 ! Name  Definition              Value          Derivative Info.                !
 --------------------------------------------------------------------------------
 ! R1    R(1,2)                  1.4866         estimate D2E/DX2                !
 ! R2    R(1,19)                 1.4001         estimate D2E/DX2                !
 ! R3    R(1,20)                 1.2232         estimate D2E/DX2                !
 ! R4    R(2,3)                  1.4146         estimate D2E/DX2                !
 ! R5    R(2,6)                  1.372          estimate D2E/DX2                !
 ! R6    R(3,4)                  1.4123         estimate D2E/DX2                !
 ! R7    R(3,7)                  1.4244         estimate D2E/DX2                !
 ! R8    R(4,5)                  1.4872         estimate D2E/DX2                !
 ! R9    R(4,14)                 1.3874         estimate D2E/DX2                !
 ! R10   R(5,19)                 1.4053         estimate D2E/DX2                !
 ! R11   R(5,21)                 1.2218         estimate D2E/DX2                !
 ! R12   R(6,9)                  1.4301         estimate D2E/DX2                !
 ! R13   R(6,17)                 1.0837         estimate D2E/DX2                !
 ! R14   R(7,8)                  1.4314         estimate D2E/DX2                !
 ! R15   R(7,12)                 1.4199         estimate D2E/DX2                !
 ! R16   R(8,9)                  1.4217         estimate D2E/DX2                !
 ! R17   R(8,10)                 1.4882         estimate D2E/DX2                !
 ! R18   R(9,32)                 1.4624         estimate D2E/DX2                !
 ! R19   R(10,18)                1.4088         estimate D2E/DX2                !
 ! R20   R(10,23)                1.2245         estimate D2E/DX2                !
 ! R21   R(11,12)                1.4786         estimate D2E/DX2                !
 ! R22   R(11,18)                1.3962         estimate D2E/DX2                !
 ! R23   R(11,22)                1.2248         estimate D2E/DX2                !
 ! R24   R(12,13)                1.3888         estimate D2E/DX2                !
 ! R25   R(13,14)                1.4            estimate D2E/DX2                !
 ! R26   R(13,16)                1.0844         estimate D2E/DX2                !
 ! R27   R(14,15)                1.0834         estimate D2E/DX2                !
 ! R28   R(18,24)                1.4672         estimate D2E/DX2                !
 ! R29   R(19,28)                1.4672         estimate D2E/DX2                !
 ! R30   R(24,25)                1.091          estimate D2E/DX2                !
 ! R31   R(24,26)                1.093          estimate D2E/DX2                !
 ! R32   R(24,27)                1.0865         estimate D2E/DX2                !
 ! R33   R(28,29)                1.0921         estimate D2E/DX2                !
 ! R34   R(28,30)                1.0916         estimate D2E/DX2                !
 ! R35   R(28,31)                1.0867         estimate D2E/DX2                !
 ! R36   R(32,33)                1.3811         estimate D2E/DX2                !
 ! R37   R(32,34)                1.7642         estimate D2E/DX2                !
 ! R38   R(33,35)                1.4089         estimate D2E/DX2                !
 ! R39   R(33,36)                1.0778         estimate D2E/DX2                !
 ! R40   R(34,37)                1.7479         estimate D2E/DX2                !
 ! R41   R(35,37)                1.3988         estimate D2E/DX2                !
 ! R42   R(35,38)                1.36           estimate D2E/DX2                !
 ! R43   R(37,39)                1.4352         estimate D2E/DX2                !
 ! R44   R(38,40)                1.4246         estimate D2E/DX2                !
 ! R45   R(39,41)                1.3942         estimate D2E/DX2                !
 ! R46   R(39,42)                1.7616         estimate D2E/DX2                !
 ! R47   R(40,43)                1.0901         estimate D2E/DX2                !
 ! R48   R(40,44)                1.0965         estimate D2E/DX2                !
 ! R49   R(40,45)                1.0962         estimate D2E/DX2                !
 ! R50   R(41,46)                1.4243         estimate D2E/DX2                !
 ! R51   R(41,47)                1.358          estimate D2E/DX2                !
 ! R52   R(42,48)                1.7266         estimate D2E/DX2                !
 ! R53   R(46,48)                1.3689         estimate D2E/DX2                !
 ! R54   R(46,49)                1.0811         estimate D2E/DX2                !
 ! R55   R(47,50)                1.423          estimate D2E/DX2                !
 ! R56   R(48,51)                1.0811         estimate D2E/DX2                !
 ! R57   R(50,52)                1.0974         estimate D2E/DX2                !
 ! R58   R(50,53)                1.0897         estimate D2E/DX2                !
 ! R59   R(50,54)                1.0965         estimate D2E/DX2                !
 ! A1    A(2,1,19)             116.767          estimate D2E/DX2                !
 ! A2    A(2,1,20)             122.9113         estimate D2E/DX2                !
 ! A3    A(19,1,20)            120.3217         estimate D2E/DX2                !
 ! A4    A(1,2,3)              120.5473         estimate D2E/DX2                !
 ! A5    A(1,2,6)              119.3369         estimate D2E/DX2                !
 ! A6    A(3,2,6)              120.1056         estimate D2E/DX2                !
 ! A7    A(2,3,4)              120.3743         estimate D2E/DX2                !
 ! A8    A(2,3,7)              118.662          estimate D2E/DX2                !
 ! A9    A(4,3,7)              120.9617         estimate D2E/DX2                !
 ! A10   A(3,4,5)              120.4909         estimate D2E/DX2                !
 ! A11   A(3,4,14)             120.2702         estimate D2E/DX2                !
 ! A12   A(5,4,14)             119.2382         estimate D2E/DX2                !
 ! A13   A(4,5,19)             116.7341         estimate D2E/DX2                !
 ! A14   A(4,5,21)             122.024          estimate D2E/DX2                !
 ! A15   A(19,5,21)            121.2418         estimate D2E/DX2                !
 ! A16   A(2,6,9)              123.2421         estimate D2E/DX2                !
 ! A17   A(2,6,17)             117.1119         estimate D2E/DX2                !
 ! A18   A(9,6,17)             119.589          estimate D2E/DX2                !
 ! A19   A(3,7,8)              120.9519         estimate D2E/DX2                !
 ! A20   A(3,7,12)             117.1037         estimate D2E/DX2                !
 ! A21   A(8,7,12)             121.944          estimate D2E/DX2                !
 ! A22   A(7,8,9)              119.5639         estimate D2E/DX2                !
 ! A23   A(7,8,10)             117.3064         estimate D2E/DX2                !
 ! A24   A(9,8,10)             122.9922         estimate D2E/DX2                !
 ! A25   A(6,9,8)              117.3944         estimate D2E/DX2                !
 ! A26   A(6,9,32)             115.0236         estimate D2E/DX2                !
 ! A27   A(8,9,32)             127.5648         estimate D2E/DX2                !
 ! A28   A(8,10,18)            118.042          estimate D2E/DX2                !
 ! A29   A(8,10,23)            124.5436         estimate D2E/DX2                !
 ! A30   A(18,10,23)           117.4097         estimate D2E/DX2                !
 ! A31   A(12,11,18)           115.5202         estimate D2E/DX2                !
 ! A32   A(12,11,22)           122.7205         estimate D2E/DX2                !
 ! A33   A(18,11,22)           121.7534         estimate D2E/DX2                !
 ! A34   A(7,12,11)            120.8614         estimate D2E/DX2                !
 ! A35   A(7,12,13)            121.162          estimate D2E/DX2                !
 ! A36   A(11,12,13)           117.9699         estimate D2E/DX2                !
 ! A37   A(12,13,14)           120.9948         estimate D2E/DX2                !
 ! A38   A(12,13,16)           117.8401         estimate D2E/DX2                !
 ! A39   A(14,13,16)           121.1642         estimate D2E/DX2                !
 ! A40   A(4,14,13)            119.5003         estimate D2E/DX2                !
 ! A41   A(4,14,15)            118.9169         estimate D2E/DX2                !
 ! A42   A(13,14,15)           121.5811         estimate D2E/DX2                !
 ! A43   A(10,18,11)           126.0753         estimate D2E/DX2                !
 ! A44   A(10,18,24)           115.7508         estimate D2E/DX2                !
 ! A45   A(11,18,24)           118.1737         estimate D2E/DX2                !
 ! A46   A(1,19,5)             125.0856         estimate D2E/DX2                !
 ! A47   A(1,19,28)            116.2868         estimate D2E/DX2                !
 ! A48   A(5,19,28)            118.6276         estimate D2E/DX2                !
 ! A49   A(18,24,25)           109.8574         estimate D2E/DX2                !
 ! A50   A(18,24,26)           109.8979         estimate D2E/DX2                !
 ! A51   A(18,24,27)           107.5355         estimate D2E/DX2                !
 ! A52   A(25,24,26)           108.1108         estimate D2E/DX2                !
 ! A53   A(25,24,27)           110.8301         estimate D2E/DX2                !
 ! A54   A(26,24,27)           110.6124         estimate D2E/DX2                !
 ! A55   A(19,28,29)           109.6906         estimate D2E/DX2                !
 ! A56   A(19,28,30)           109.8136         estimate D2E/DX2                !
 ! A57   A(19,28,31)           107.7461         estimate D2E/DX2                !
 ! A58   A(29,28,30)           108.2991         estimate D2E/DX2                !
 ! A59   A(29,28,31)           110.6959         estimate D2E/DX2                !
 ! A60   A(30,28,31)           110.5924         estimate D2E/DX2                !
 ! A61   A(9,32,33)            130.875          estimate D2E/DX2                !
 ! A62   A(9,32,34)            118.8078         estimate D2E/DX2                !
 ! A63   A(33,32,34)           110.0619         estimate D2E/DX2                !
 ! A64   A(32,33,35)           113.5524         estimate D2E/DX2                !
 ! A65   A(32,33,36)           122.8119         estimate D2E/DX2                !
 ! A66   A(35,33,36)           123.6338         estimate D2E/DX2                !
 ! A67   A(32,34,37)            92.5988         estimate D2E/DX2                !
 ! A68   A(33,35,37)           114.4252         estimate D2E/DX2                !
 ! A69   A(33,35,38)           126.4813         estimate D2E/DX2                !
 ! A70   A(37,35,38)           119.0935         estimate D2E/DX2                !
 ! A71   A(34,37,35)           109.356          estimate D2E/DX2                !
 ! A72   A(34,37,39)           122.9549         estimate D2E/DX2                !
 ! A73   A(35,37,39)           127.6732         estimate D2E/DX2                !
 ! A74   A(35,38,40)           117.5007         estimate D2E/DX2                !
 ! A75   A(37,39,41)           127.5828         estimate D2E/DX2                !
 ! A76   A(37,39,42)           123.085          estimate D2E/DX2                !
 ! A77   A(41,39,42)           109.3322         estimate D2E/DX2                !
 ! A78   A(38,40,43)           105.9684         estimate D2E/DX2                !
 ! A79   A(38,40,44)           111.2057         estimate D2E/DX2                !
 ! A80   A(38,40,45)           111.1944         estimate D2E/DX2                !
 ! A81   A(43,40,44)           109.3048         estimate D2E/DX2                !
 ! A82   A(43,40,45)           109.6708         estimate D2E/DX2                !
 ! A83   A(44,40,45)           109.4265         estimate D2E/DX2                !
 ! A84   A(39,41,46)           114.1367         estimate D2E/DX2                !
 ! A85   A(39,41,47)           119.2457         estimate D2E/DX2                !
 ! A86   A(46,41,47)           126.6172         estimate D2E/DX2                !
 ! A87   A(39,42,48)            91.838          estimate D2E/DX2                !
 ! A88   A(41,46,48)           111.9392         estimate D2E/DX2                !
 ! A89   A(41,46,49)           124.454          estimate D2E/DX2                !
 ! A90   A(48,46,49)           123.6068         estimate D2E/DX2                !
 ! A91   A(41,47,50)           117.9481         estimate D2E/DX2                !
 ! A92   A(42,48,46)           112.7539         estimate D2E/DX2                !
 ! A93   A(42,48,51)           119.8325         estimate D2E/DX2                !
 ! A94   A(46,48,51)           127.4133         estimate D2E/DX2                !
 ! A95   A(47,50,52)           111.2801         estimate D2E/DX2                !
 ! A96   A(47,50,53)           106.0501         estimate D2E/DX2                !
 ! A97   A(47,50,54)           111.2694         estimate D2E/DX2                !
 ! A98   A(52,50,53)           109.3629         estimate D2E/DX2                !
 ! A99   A(52,50,54)           109.4191         estimate D2E/DX2                !
 ! A100  A(53,50,54)           109.384          estimate D2E/DX2                !
 ! D1    D(19,1,2,3)             0.1578         estimate D2E/DX2                !
 ! D2    D(19,1,2,6)          -178.6792         estimate D2E/DX2                !
 ! D3    D(20,1,2,3)          -179.8231         estimate D2E/DX2                !
 ! D4    D(20,1,2,6)             1.3399         estimate D2E/DX2                !
 ! D5    D(2,1,19,5)            -0.124          estimate D2E/DX2                !
 ! D6    D(2,1,19,28)          179.8267         estimate D2E/DX2                !
 ! D7    D(20,1,19,5)          179.8575         estimate D2E/DX2                !
 ! D8    D(20,1,19,28)          -0.1919         estimate D2E/DX2                !
 ! D9    D(1,2,3,4)              0.0571         estimate D2E/DX2                !
 ! D10   D(1,2,3,7)            179.5453         estimate D2E/DX2                !
 ! D11   D(6,2,3,4)            178.8851         estimate D2E/DX2                !
 ! D12   D(6,2,3,7)             -1.6266         estimate D2E/DX2                !
 ! D13   D(1,2,6,9)            178.625          estimate D2E/DX2                !
 ! D14   D(1,2,6,17)             1.3881         estimate D2E/DX2                !
 ! D15   D(3,2,6,9)             -0.2173         estimate D2E/DX2                !
 ! D16   D(3,2,6,17)          -177.4541         estimate D2E/DX2                !
 ! D17   D(2,3,4,5)             -0.3074         estimate D2E/DX2                !
 ! D18   D(2,3,4,14)           179.3968         estimate D2E/DX2                !
 ! D19   D(7,3,4,5)           -179.7837         estimate D2E/DX2                !
 ! D20   D(7,3,4,14)            -0.0795         estimate D2E/DX2                !
 ! D21   D(2,3,7,8)              1.0523         estimate D2E/DX2                !
 ! D22   D(2,3,7,12)          -178.712          estimate D2E/DX2                !
 ! D23   D(4,3,7,8)           -179.4626         estimate D2E/DX2                !
 ! D24   D(4,3,7,12)             0.7731         estimate D2E/DX2                !
 ! D25   D(3,4,5,19)             0.3343         estimate D2E/DX2                !
 ! D26   D(3,4,5,21)          -179.7799         estimate D2E/DX2                !
 ! D27   D(14,4,5,19)         -179.3729         estimate D2E/DX2                !
 ! D28   D(14,4,5,21)            0.5129         estimate D2E/DX2                !
 ! D29   D(3,4,14,13)           -0.4559         estimate D2E/DX2                !
 ! D30   D(3,4,14,15)         -179.9937         estimate D2E/DX2                !
 ! D31   D(5,4,14,13)          179.252          estimate D2E/DX2                !
 ! D32   D(5,4,14,15)           -0.2858         estimate D2E/DX2                !
 ! D33   D(4,5,19,1)            -0.1141         estimate D2E/DX2                !
 ! D34   D(4,5,19,28)          179.9364         estimate D2E/DX2                !
 ! D35   D(21,5,19,1)          179.9992         estimate D2E/DX2                !
 ! D36   D(21,5,19,28)           0.0496         estimate D2E/DX2                !
 ! D37   D(2,6,9,8)              2.5984         estimate D2E/DX2                !
 ! D38   D(2,6,9,32)          -176.0103         estimate D2E/DX2                !
 ! D39   D(17,6,9,8)           179.77           estimate D2E/DX2                !
 ! D40   D(17,6,9,32)            1.1613         estimate D2E/DX2                !
 ! D41   D(3,7,8,9)              1.3551         estimate D2E/DX2                !
 ! D42   D(3,7,8,10)          -174.5099         estimate D2E/DX2                !
 ! D43   D(12,7,8,9)          -178.8921         estimate D2E/DX2                !
 ! D44   D(12,7,8,10)            5.2428         estimate D2E/DX2                !
 ! D45   D(3,7,12,11)          178.0768         estimate D2E/DX2                !
 ! D46   D(3,7,12,13)           -0.9621         estimate D2E/DX2                !
 ! D47   D(8,7,12,11)           -1.685          estimate D2E/DX2                !
 ! D48   D(8,7,12,13)          179.2761         estimate D2E/DX2                !
 ! D49   D(7,8,9,6)             -3.0809         estimate D2E/DX2                !
 ! D50   D(7,8,9,32)           175.3285         estimate D2E/DX2                !
 ! D51   D(10,8,9,6)           172.5381         estimate D2E/DX2                !
 ! D52   D(10,8,9,32)           -9.0525         estimate D2E/DX2                !
 ! D53   D(7,8,10,18)           -4.7549         estimate D2E/DX2                !
 ! D54   D(7,8,10,23)          174.4235         estimate D2E/DX2                !
 ! D55   D(9,8,10,18)          179.5335         estimate D2E/DX2                !
 ! D56   D(9,8,10,23)           -1.2882         estimate D2E/DX2                !
 ! D57   D(6,9,32,33)          -11.5326         estimate D2E/DX2                !
 ! D58   D(6,9,32,34)          174.9083         estimate D2E/DX2                !
 ! D59   D(8,9,32,33)          170.0259         Frozen                          !
 ! D60   D(8,9,32,34)           -3.5332         estimate D2E/DX2                !
 ! D61   D(8,10,18,11)           0.7189         estimate D2E/DX2                !
 ! D62   D(8,10,18,24)        -179.4089         estimate D2E/DX2                !
 ! D63   D(23,10,18,11)       -178.5188         estimate D2E/DX2                !
 ! D64   D(23,10,18,24)          1.3535         estimate D2E/DX2                !
 ! D65   D(18,11,12,7)          -2.3856         estimate D2E/DX2                !
 ! D66   D(18,11,12,13)        176.6833         estimate D2E/DX2                !
 ! D67   D(22,11,12,7)         178.4862         estimate D2E/DX2                !
 ! D68   D(22,11,12,13)         -2.445          estimate D2E/DX2                !
 ! D69   D(12,11,18,10)          2.8444         estimate D2E/DX2                !
 ! D70   D(12,11,18,24)       -177.0251         estimate D2E/DX2                !
 ! D71   D(22,11,18,10)       -178.0181         estimate D2E/DX2                !
 ! D72   D(22,11,18,24)          2.1124         estimate D2E/DX2                !
 ! D73   D(7,12,13,14)           0.461          estimate D2E/DX2                !
 ! D74   D(7,12,13,16)        -179.8781         estimate D2E/DX2                !
 ! D75   D(11,12,13,14)       -178.6049         estimate D2E/DX2                !
 ! D76   D(11,12,13,16)          1.056          estimate D2E/DX2                !
 ! D77   D(12,13,14,4)           0.2708         estimate D2E/DX2                !
 ! D78   D(12,13,14,15)        179.7958         estimate D2E/DX2                !
 ! D79   D(16,13,14,4)        -179.3788         estimate D2E/DX2                !
 ! D80   D(16,13,14,15)          0.1463         estimate D2E/DX2                !
 ! D81   D(10,18,24,25)        -59.609          estimate D2E/DX2                !
 ! D82   D(10,18,24,26)         59.2209         estimate D2E/DX2                !
 ! D83   D(10,18,24,27)        179.6858         estimate D2E/DX2                !
 ! D84   D(11,18,24,25)        120.2739         estimate D2E/DX2                !
 ! D85   D(11,18,24,26)       -120.8962         estimate D2E/DX2                !
 ! D86   D(11,18,24,27)         -0.4313         estimate D2E/DX2                !
 ! D87   D(1,19,28,29)         -58.1407         estimate D2E/DX2                !
 ! D88   D(1,19,28,30)          60.7668         estimate D2E/DX2                !
 ! D89   D(1,19,28,31)        -178.7139         estimate D2E/DX2                !
 ! D90   D(5,19,28,29)         121.8132         estimate D2E/DX2                !
 ! D91   D(5,19,28,30)        -119.2792         estimate D2E/DX2                !
 ! D92   D(5,19,28,31)           1.2401         estimate D2E/DX2                !
 ! D93   D(9,32,33,35)        -174.2258         estimate D2E/DX2                !
 ! D94   D(9,32,33,36)           6.263          estimate D2E/DX2                !
 ! D95   D(34,32,33,35)         -0.2325         estimate D2E/DX2                !
 ! D96   D(34,32,33,36)       -179.7437         estimate D2E/DX2                !
 ! D97   D(9,32,34,37)         175.3683         estimate D2E/DX2                !
 ! D98   D(33,32,34,37)          0.5493         estimate D2E/DX2                !
 ! D99   D(32,33,35,37)         -0.3277         estimate D2E/DX2                !
 ! D100  D(32,33,35,38)        179.6895         estimate D2E/DX2                !
 ! D101  D(36,33,35,37)        179.1789         estimate D2E/DX2                !
 ! D102  D(36,33,35,38)         -0.8039         estimate D2E/DX2                !
 ! D103  D(32,34,37,35)         -0.717          estimate D2E/DX2                !
 ! D104  D(32,34,37,39)        177.9332         estimate D2E/DX2                !
 ! D105  D(33,35,37,34)          0.7269         estimate D2E/DX2                !
 ! D106  D(33,35,37,39)       -177.842          estimate D2E/DX2                !
 ! D107  D(38,35,37,34)       -179.2888         estimate D2E/DX2                !
 ! D108  D(38,35,37,39)          2.1422         estimate D2E/DX2                !
 ! D109  D(33,35,38,40)          6.5601         estimate D2E/DX2                !
 ! D110  D(37,35,38,40)       -173.422          estimate D2E/DX2                !
 ! D111  D(34,37,39,41)          2.8523         estimate D2E/DX2                !
 ! D112  D(34,37,39,42)       -177.2116         estimate D2E/DX2                !
 ! D113  D(35,37,39,41)       -178.7568         estimate D2E/DX2                !
 ! D114  D(35,37,39,42)          1.1793         estimate D2E/DX2                !
 ! D115  D(35,38,40,43)        175.4372         estimate D2E/DX2                !
 ! D116  D(35,38,40,44)        -65.8865         estimate D2E/DX2                !
 ! D117  D(35,38,40,45)         56.3274         estimate D2E/DX2                !
 ! D118  D(37,39,41,46)        179.9997         estimate D2E/DX2                !
 ! D119  D(37,39,41,47)         -0.2135         estimate D2E/DX2                !
 ! D120  D(42,39,41,46)          0.0564         estimate D2E/DX2                !
 ! D121  D(42,39,41,47)        179.8433         estimate D2E/DX2                !
 ! D122  D(37,39,42,48)        179.9987         estimate D2E/DX2                !
 ! D123  D(41,39,42,48)         -0.055          estimate D2E/DX2                !
 ! D124  D(39,41,46,48)         -0.0268         estimate D2E/DX2                !
 ! D125  D(39,41,46,49)       -179.9819         estimate D2E/DX2                !
 ! D126  D(47,41,46,48)       -179.7951         estimate D2E/DX2                !
 ! D127  D(47,41,46,49)          0.2497         estimate D2E/DX2                !
 ! D128  D(39,41,47,50)        178.4149         estimate D2E/DX2                !
 ! D129  D(46,41,47,50)         -1.8274         estimate D2E/DX2                !
 ! D130  D(39,42,48,46)          0.0419         estimate D2E/DX2                !
 ! D131  D(39,42,48,51)        179.871          estimate D2E/DX2                !
 ! D132  D(41,46,48,42)         -0.0171         estimate D2E/DX2                !
 ! D133  D(41,46,48,51)       -179.8304         estimate D2E/DX2                !
 ! D134  D(49,46,48,42)        179.9385         estimate D2E/DX2                !
 ! D135  D(49,46,48,51)          0.1252         estimate D2E/DX2                !
 ! D136  D(41,47,50,52)         62.0346         estimate D2E/DX2                !
 ! D137  D(41,47,50,53)       -179.1302         estimate D2E/DX2                !
 ! D138  D(41,47,50,54)        -60.2753         estimate D2E/DX2                !
 --------------------------------------------------------------------------------
 Trust Radius=3.00D-01 FncErr=1.00D-07 GrdErr=1.00D-06 EigMax=2.50D+02 EigMin=1.00D-04
 Number of steps in this run=    307 maximum allowed number of steps=    324.
 GradGradGradGradGradGradGradGradGradGradGradGradGradGradGradGradGradGrad

 Stoichiometry    C26H18N2O6S2
 Framework group  C1[X(C26H18N2O6S2)]
 Deg. of freedom   156
 Full point group                 C1      NOp   1
 Largest Abelian subgroup         C1      NOp   1
 Largest concise Abelian subgroup C1      NOp   1
                         Standard orientation:                         
 ---------------------------------------------------------------------
 Center     Atomic      Atomic             Coordinates (Angstroms)
 Number     Number       Type             X           Y           Z
 ---------------------------------------------------------------------
      1          6           0       -3.886211   -2.536764   -0.043291
      2          6           0       -2.978326   -1.360135   -0.005904
      3          6           0       -3.502273   -0.046539   -0.035841
      4          6           0       -4.897243    0.164613   -0.100542
      5          6           0       -5.833945   -0.989738   -0.144954
      6          6           0       -1.621425   -1.559079    0.033884
      7          6           0       -2.596355    1.051568    0.011714
      8          6           0       -1.182099    0.837410    0.065783
      9          6           0       -0.672211   -0.489469    0.042937
     10          6           0       -0.316337    2.035372    0.239407
     11          6           0       -2.297691    3.553491    0.098008
     12          6           0       -3.159180    2.355150    0.008143
     13          6           0       -4.533364    2.544437   -0.059700
     14          6           0       -5.409365    1.453883   -0.117199
     15          1           0       -6.483001    1.590518   -0.167043
     16          1           0       -4.904778    3.563243   -0.060967
     17          1           0       -1.271808   -2.584595    0.012749
     18          7           0       -0.931150    3.302910    0.236284
     19          7           0       -5.259318   -2.271798   -0.111861
     20          8           0       -3.480493   -3.690380   -0.016364
     21          8           0       -7.044986   -0.839460   -0.205132
     22          8           0       -2.744427    4.693601    0.070665
     23          8           0        0.896978    1.997787    0.399945
     24          6           0       -0.029538    4.449093    0.397589
     25          1           0        0.504707    4.369832    1.345566
     26          1           0        0.708472    4.458209   -0.408610
     27          1           0       -0.636809    5.349653    0.370450
     28          6           0       -6.145356   -3.440495   -0.152213
     29          1           0       -5.892762   -4.064226   -1.012288
     30          1           0       -6.014022   -4.035828    0.753275
     31          1           0       -7.167385   -3.078879   -0.226987
     32          6           0        0.728988   -0.905467   -0.004950
     33          6           0        1.308325   -2.149426    0.151285
     34         16           0        1.979284    0.332328   -0.135582
     35          6           0        2.716787   -2.117251    0.161314
     36          1           0        0.731195   -3.054558    0.247310
     37          6           0        3.267307   -0.840909    0.004991
     38          8           0        3.548955   -3.183365    0.304500
     39          6           0        4.656399   -0.487882   -0.068977
     40          6           0        2.960069   -4.480480    0.317161
     41          6           0        5.203739    0.787523   -0.200988
     42         16           0        5.955463   -1.675592    0.000910
     43          1           0        3.789987   -5.186260    0.356171
     44          1           0        2.324616   -4.618982    1.199992
     45          1           0        2.368643   -4.656071   -0.588926
     46          6           0        6.627197    0.808650   -0.245942
     47          8           0        4.374922    1.860506   -0.277492
     48          6           0        7.160730   -0.448203   -0.147696
     49          1           0        7.222749    1.705457   -0.344855
     50          6           0        4.963623    3.152203   -0.377180
     51          1           0        8.207146   -0.719738   -0.152066
     52          1           0        5.560647    3.248202   -1.292961
     53          1           0        4.135021    3.859210   -0.410294
     54          1           0        5.593642    3.370428    0.493273
 ---------------------------------------------------------------------
 Rotational constants (GHZ):           0.1753624           0.0587370           0.0441868
 Standard basis: 6-311+G(d,p) (5D, 7F)
 There are   952 symmetry adapted cartesian basis functions of A   symmetry.
 There are   916 symmetry adapted basis functions of A   symmetry.
   916 basis functions,  1468 primitive gaussians,   952 cartesian basis functions
   134 alpha electrons      134 beta electrons
       nuclear repulsion energy      4130.7521512043 Hartrees.
 NAtoms=   54 NActive=   54 NUniq=   54 SFac= 1.00D+00 NAtFMM=   60 NAOKFM=F Big=F
 Integral buffers will be    131072 words long.
 Raffenetti 2 integral format.
 Two-electron integral symmetry is turned on.
 ------------------------------------------------------------------------------
 Polarizable Continuum Model (PCM)
 =================================
 Model                : PCM.
 Atomic radii         : UFF (Universal Force Field).
 Polarization charges : Total charges.
 Charge compensation  : None.
 Solution method      : On-the-fly selection.
 Cavity type          : Scaled VdW (van der Waals Surface) (Alpha=1.100).
 Cavity algorithm     : GePol (No added spheres)
                        Default sphere list used, NSphG=   54.
                        Lebedev-Laikov grids with approx.  5.0 points / Ang**2.
                        Smoothing algorithm: York/Karplus (Gamma=1.0000).
                        Polarization charges: spherical gaussians, with
                                              point-specific exponents (IZeta= 3).
                        Self-potential: point-specific (ISelfS= 7).
                        Self-field    : sphere-specific E.n sum rule (ISelfD= 2).
 1st derivatives      : Analytical E(r).r(x)/FMM algorithm (CHGder, D1EAlg=3).
                        Cavity 1st derivative terms included.
 Solvent              : Water, Eps=  78.355300 Eps(inf)=   1.777849
 ------------------------------------------------------------------------------
 One-electron integrals computed using PRISM.
 NBasis=   916 RedAO= T EigKep=  1.48D-06  NBF=   916
 NBsUse=   900 1.00D-06 EigRej=  8.43D-07 NBFU=   900
 ExpMin= 4.05D-02 ExpMax= 9.34D+04 ExpMxC= 3.17D+03 IAcc=3 IRadAn=         5 AccDes= 0.00D+00
 Harris functional with IExCor=  402 and IRadAn=       5 diagonalized for initial guess.
 HarFok:  IExCor=  402 AccDes= 0.00D+00 IRadAn=         5 IDoV= 1 UseB2=F ITyADJ=14
 ICtDFT=  3500011 ScaDFX=  1.000000  1.000000  1.000000  1.000000
 FoFCou: FMM=F IPFlag=           0 FMFlag=      100000 FMFlg1=           0
         NFxFlg=           0 DoJE=T BraDBF=F KetDBF=T FulRan=T
         wScrn=  0.000000 ICntrl=       500 IOpCl=  0 I1Cent=   200000004 NGrid=           0
         NMat0=    1 NMatS0=      1 NMatT0=    0 NMatD0=    1 NMtDS0=    0 NMtDT0=    0
 Petite list used in FoFCou.
 Requested convergence on RMS density matrix=1.00D-08 within 128 cycles.
 Requested convergence on MAX density matrix=1.00D-06.
 Requested convergence on             energy=1.00D-06.
 No special actions if energy rises.
 Inv3:  Mode=1 IEnd=    52066668.
 Iteration    1 A*A^-1 deviation from unit magnitude is 7.55D-15 for   4161.
 Iteration    1 A*A^-1 deviation from orthogonality  is 2.24D-15 for   2112    876.
 Iteration    1 A^-1*A deviation from unit magnitude is 7.33D-15 for   4161.
 Iteration    1 A^-1*A deviation from orthogonality  is 8.89D-14 for   4152   4119.
 Error on total polarization charges =  0.02329
 SCF Done:  E(RB3LYP) =  -2359.31437478     A.U. after   17 cycles
            NFock= 17  Conv=0.31D-08     -V/T= 2.0030

 **********************************************************************

            Population analysis using the SCF Density.

 **********************************************************************

 Orbital symmetries:
       Occupied  (A) (A) (A) (A) (A) (A) (A) (A) (A) (A) (A) (A)
                 (A) (A) (A) (A) (A) (A) (A) (A) (A) (A) (A) (A)
                 (A) (A) (A) (A) (A) (A) (A) (A) (A) (A) (A) (A)
                 (A) (A) (A) (A) (A) (A) (A) (A) (A) (A) (A) (A)
                 (A) (A) (A) (A) (A) (A) (A) (A) (A) (A) (A) (A)
                 (A) (A) (A) (A) (A) (A) (A) (A) (A) (A) (A) (A)
                 (A) (A) (A) (A) (A) (A) (A) (A) (A) (A) (A) (A)
                 (A) (A) (A) (A) (A) (A) (A) (A) (A) (A) (A) (A)
                 (A) (A) (A) (A) (A) (A) (A) (A) (A) (A) (A) (A)
                 (A) (A) (A) (A) (A) (A) (A) (A) (A) (A) (A) (A)
                 (A) (A) (A) (A) (A) (A) (A) (A) (A) (A) (A) (A)
                 (A) (A)
       Virtual   (A) (A) (A) (A) (A) (A) (A) (A) (A) (A) (A) (A)
                 (A) (A) (A) (A) (A) (A) (A) (A) (A) (A) (A) (A)
                 (A) (A) (A) (A) (A) (A) (A) (A) (A) (A) (A) (A)
                 (A) (A) (A) (A) (A) (A) (A) (A) (A) (A) (A) (A)
                 (A) (A) (A) (A) (A) (A) (A) (A) (A) (A) (A) (A)
                 (A) (A) (A) (A) (A) (A) (A) (A) (A) (A) (A) (A)
                 (A) (A) (A) (A) (A) (A) (A) (A) (A) (A) (A) (A)
                 (A) (A) (A) (A) (A) (A) (A) (A) (A) (A) (A) (A)
                 (A) (A) (A) (A) (A) (A) (A) (A) (A) (A) (A) (A)
                 (A) (A) (A) (A) (A) (A) (A) (A) (A) (A) (A) (A)
                 (A) (A) (A) (A) (A) (A) (A) (A) (A) (A) (A) (A)
                 (A) (A) (A) (A) (A) (A) (A) (A) (A) (A) (A) (A)
                 (A) (A) (A) (A) (A) (A) (A) (A) (A) (A) (A) (A)
                 (A) (A) (A) (A) (A) (A) (A) (A) (A) (A) (A) (A)
                 (A) (A) (A) (A) (A) (A) (A) (A) (A) (A) (A) (A)
                 (A) (A) (A) (A) (A) (A) (A) (A) (A) (A) (A) (A)
                 (A) (A) (A) (A) (A) (A) (A) (A) (A) (A) (A) (A)
                 (A) (A) (A) (A) (A) (A) (A) (A) (A) (A) (A) (A)
                 (A) (A) (A) (A) (A) (A) (A) (A) (A) (A) (A) (A)
                 (A) (A) (A) (A) (A) (A) (A) (A) (A) (A) (A) (A)
                 (A) (A) (A) (A) (A) (A) (A) (A) (A) (A) (A) (A)
                 (A) (A) (A) (A) (A) (A) (A) (A) (A) (A) (A) (A)
                 (A) (A) (A) (A) (A) (A) (A) (A) (A) (A) (A) (A)
                 (A) (A) (A) (A) (A) (A) (A) (A) (A) (A) (A) (A)
                 (A) (A) (A) (A) (A) (A) (A) (A) (A) (A) (A) (A)
                 (A) (A) (A) (A) (A) (A) (A) (A) (A) (A) (A) (A)
                 (A) (A) (A) (A) (A) (A) (A) (A) (A) (A) (A) (A)
                 (A) (A) (A) (A) (A) (A) (A) (A) (A) (A) (A) (A)
                 (A) (A) (A) (A) (A) (A) (A) (A) (A) (A) (A) (A)
                 (A) (A) (A) (A) (A) (A) (A) (A) (A) (A) (A) (A)
                 (A) (A) (A) (A) (A) (A) (A) (A) (A) (A) (A) (A)
                 (A) (A) (A) (A) (A) (A) (A) (A) (A) (A) (A) (A)
                 (A) (A) (A) (A) (A) (A) (A) (A) (A) (A) (A) (A)
                 (A) (A) (A) (A) (A) (A) (A) (A) (A) (A) (A) (A)
                 (A) (A) (A) (A) (A) (A) (A) (A) (A) (A) (A) (A)
                 (A) (A) (A) (A) (A) (A) (A) (A) (A) (A) (A) (A)
                 (A) (A) (A) (A) (A) (A) (A) (A) (A) (A) (A) (A)
                 (A) (A) (A) (A) (A) (A) (A) (A) (A) (A) (A) (A)
                 (A) (A) (A) (A) (A) (A) (A) (A) (A) (A) (A) (A)
                 (A) (A) (A) (A) (A) (A) (A) (A) (A) (A) (A) (A)
                 (A) (A) (A) (A) (A) (A) (A) (A) (A) (A) (A) (A)
                 (A) (A) (A) (A) (A) (A) (A) (A) (A) (A) (A) (A)
                 (A) (A) (A) (A) (A) (A) (A) (A) (A) (A) (A) (A)
                 (A) (A) (A) (A) (A) (A) (A) (A) (A) (A) (A) (A)
                 (A) (A) (A) (A) (A) (A) (A) (A) (A) (A) (A) (A)
                 (A) (A) (A) (A) (A) (A) (A) (A) (A) (A) (A) (A)
                 (A) (A) (A) (A) (A) (A) (A) (A) (A) (A) (A) (A)
                 (A) (A) (A) (A) (A) (A) (A) (A) (A) (A) (A) (A)
                 (A) (A) (A) (A) (A) (A) (A) (A) (A) (A) (A) (A)
                 (A) (A) (A) (A) (A) (A) (A) (A) (A) (A) (A) (A)
                 (A) (A) (A) (A) (A) (A) (A) (A) (A) (A) (A) (A)
                 (A) (A) (A) (A) (A) (A) (A) (A) (A) (A) (A) (A)
                 (A) (A) (A) (A) (A) (A) (A) (A) (A) (A) (A) (A)
                 (A) (A) (A) (A) (A) (A) (A) (A) (A) (A) (A) (A)
                 (A) (A) (A) (A) (A) (A) (A) (A) (A) (A) (A) (A)
                 (A) (A) (A) (A) (A) (A) (A) (A) (A) (A) (A) (A)
                 (A) (A) (A) (A) (A) (A) (A) (A) (A) (A) (A) (A)
                 (A) (A) (A) (A) (A) (A) (A) (A) (A) (A) (A) (A)
                 (A) (A) (A) (A) (A) (A) (A) (A) (A) (A) (A) (A)
                 (A) (A) (A) (A) (A) (A) (A) (A) (A) (A) (A) (A)
                 (A) (A) (A) (A) (A) (A) (A) (A) (A) (A) (A) (A)
                 (A) (A) (A) (A) (A) (A) (A) (A) (A) (A) (A) (A)
                 (A) (A) (A) (A) (A) (A) (A) (A) (A) (A) (A) (A)
                 (A) (A) (A) (A) (A) (A) (A) (A) (A) (A)
 The electronic state is 1-A.
 Alpha  occ. eigenvalues --  -88.88538 -88.87617 -19.17026 -19.16733 -19.13414
 Alpha  occ. eigenvalues --  -19.12963 -19.12953 -19.12240 -14.38864 -14.38691
 Alpha  occ. eigenvalues --  -10.31600 -10.31504 -10.31389 -10.30784 -10.25072
 Alpha  occ. eigenvalues --  -10.24545 -10.24130 -10.22863 -10.22761 -10.22669
 Alpha  occ. eigenvalues --  -10.22513 -10.22440 -10.22314 -10.22243 -10.22097
 Alpha  occ. eigenvalues --  -10.21783 -10.21738 -10.21618 -10.21133 -10.21128
 Alpha  occ. eigenvalues --  -10.20890 -10.20826 -10.20736 -10.20664 -10.19166
 Alpha  occ. eigenvalues --  -10.18890  -7.97101  -7.96112  -5.93405  -5.93022
 Alpha  occ. eigenvalues --   -5.92675  -5.92438  -5.92002  -5.91636  -1.09950
 Alpha  occ. eigenvalues --   -1.08888  -1.08566  -1.08267  -1.07135  -1.07118
 Alpha  occ. eigenvalues --   -0.96482  -0.96353  -0.92182  -0.90132  -0.88723
 Alpha  occ. eigenvalues --   -0.86432  -0.84089  -0.80330  -0.78364  -0.77503
 Alpha  occ. eigenvalues --   -0.76268  -0.75246  -0.75159  -0.73085  -0.72472
 Alpha  occ. eigenvalues --   -0.71770  -0.70139  -0.68708  -0.67326  -0.65904
 Alpha  occ. eigenvalues --   -0.65421  -0.65075  -0.60835  -0.59815  -0.58756
 Alpha  occ. eigenvalues --   -0.57560  -0.56717  -0.56162  -0.55292  -0.54643
 Alpha  occ. eigenvalues --   -0.53797  -0.51880  -0.51095  -0.50232  -0.49839
 Alpha  occ. eigenvalues --   -0.49452  -0.49445  -0.48686  -0.48275  -0.48147
 Alpha  occ. eigenvalues --   -0.47826  -0.47780  -0.47063  -0.46495  -0.46340
 Alpha  occ. eigenvalues --   -0.45691  -0.45253  -0.44561  -0.44171  -0.43772
 Alpha  occ. eigenvalues --   -0.43279  -0.42803  -0.42414  -0.41876  -0.41693
 Alpha  occ. eigenvalues --   -0.41387  -0.41357  -0.41207  -0.40831  -0.40201
 Alpha  occ. eigenvalues --   -0.39672  -0.39086  -0.38717  -0.37479  -0.36990
 Alpha  occ. eigenvalues --   -0.36389  -0.35682  -0.34418  -0.33995  -0.33661
 Alpha  occ. eigenvalues --   -0.33433  -0.32384  -0.31178  -0.30318  -0.30028
 Alpha  occ. eigenvalues --   -0.29644  -0.29538  -0.29238  -0.27464  -0.26981
 Alpha  occ. eigenvalues --   -0.26121  -0.24887  -0.22823  -0.19578
 Alpha virt. eigenvalues --   -0.13121  -0.07648  -0.06645  -0.04976  -0.03727
 Alpha virt. eigenvalues --   -0.00668  -0.00500   0.00216   0.00400   0.00675
 Alpha virt. eigenvalues --    0.00755   0.01352   0.01678   0.01799   0.02180
 Alpha virt. eigenvalues --    0.02517   0.02820   0.03005   0.03310   0.03754
 Alpha virt. eigenvalues --    0.03821   0.03885   0.04148   0.04433   0.04693
 Alpha virt. eigenvalues --    0.04836   0.05276   0.05429   0.06016   0.06082
 Alpha virt. eigenvalues --    0.06114   0.06711   0.06763   0.06971   0.07210
 Alpha virt. eigenvalues --    0.07679   0.07916   0.08086   0.08289   0.08632
 Alpha virt. eigenvalues --    0.08839   0.09007   0.09249   0.09621   0.09820
 Alpha virt. eigenvalues --    0.10009   0.10133   0.10155   0.10356   0.10731
 Alpha virt. eigenvalues --    0.11052   0.11458   0.11586   0.12083   0.12707
 Alpha virt. eigenvalues --    0.12826   0.13014   0.13241   0.13505   0.13597
 Alpha virt. eigenvalues --    0.13839   0.14112   0.14189   0.14238   0.14512
 Alpha virt. eigenvalues --    0.14707   0.14830   0.15016   0.15306   0.15666
 Alpha virt. eigenvalues --    0.15702   0.15957   0.16199   0.16385   0.16775
 Alpha virt. eigenvalues --    0.16915   0.17139   0.17484   0.17653   0.17698
 Alpha virt. eigenvalues --    0.18159   0.18376   0.18453   0.18618   0.18946
 Alpha virt. eigenvalues --    0.19068   0.19254   0.19354   0.19638   0.19857
 Alpha virt. eigenvalues --    0.20023   0.20226   0.20332   0.20527   0.20640
 Alpha virt. eigenvalues --    0.20939   0.21077   0.21304   0.21457   0.21730
 Alpha virt. eigenvalues --    0.21931   0.22034   0.22335   0.22524   0.22830
 Alpha virt. eigenvalues --    0.23045   0.23164   0.23424   0.23606   0.23930
 Alpha virt. eigenvalues --    0.24068   0.24187   0.24388   0.24495   0.24658
 Alpha virt. eigenvalues --    0.24732   0.24983   0.25112   0.25292   0.25506
 Alpha virt. eigenvalues --    0.25845   0.25872   0.26142   0.26381   0.26453
 Alpha virt. eigenvalues --    0.26960   0.27043   0.27181   0.27342   0.27409
 Alpha virt. eigenvalues --    0.27691   0.27804   0.27866   0.28255   0.28618
 Alpha virt. eigenvalues --    0.28869   0.29030   0.29066   0.29439   0.29518
 Alpha virt. eigenvalues --    0.29736   0.30025   0.30245   0.30677   0.30991
 Alpha virt. eigenvalues --    0.31137   0.31344   0.31577   0.31752   0.32022
 Alpha virt. eigenvalues --    0.32193   0.32622   0.32872   0.33135   0.33162
 Alpha virt. eigenvalues --    0.33957   0.34168   0.34389   0.34427   0.34892
 Alpha virt. eigenvalues --    0.35347   0.35592   0.35819   0.36213   0.36669
 Alpha virt. eigenvalues --    0.37053   0.37522   0.37650   0.38042   0.38373
 Alpha virt. eigenvalues --    0.38539   0.38944   0.39268   0.39869   0.40267
 Alpha virt. eigenvalues --    0.40946   0.41431   0.41595   0.42168   0.42512
 Alpha virt. eigenvalues --    0.43010   0.43445   0.43485   0.44127   0.44506
 Alpha virt. eigenvalues --    0.44749   0.44993   0.45255   0.45655   0.45741
 Alpha virt. eigenvalues --    0.46286   0.47074   0.47380   0.47613   0.47889
 Alpha virt. eigenvalues --    0.48065   0.48474   0.48686   0.49640   0.49950
 Alpha virt. eigenvalues --    0.50353   0.50707   0.51604   0.51892   0.52770
 Alpha virt. eigenvalues --    0.53029   0.53159   0.53465   0.54340   0.54682
 Alpha virt. eigenvalues --    0.55034   0.55289   0.55453   0.56118   0.56458
 Alpha virt. eigenvalues --    0.56549   0.56960   0.57148   0.57652   0.57682
 Alpha virt. eigenvalues --    0.57956   0.58562   0.59023   0.59495   0.59576
 Alpha virt. eigenvalues --    0.59925   0.60858   0.61019   0.61314   0.61706
 Alpha virt. eigenvalues --    0.62025   0.62368   0.62930   0.63212   0.63503
 Alpha virt. eigenvalues --    0.63858   0.64325   0.64742   0.64860   0.65075
 Alpha virt. eigenvalues --    0.65484   0.65806   0.65881   0.66066   0.66996
 Alpha virt. eigenvalues --    0.67192   0.67588   0.68121   0.68458   0.69196
 Alpha virt. eigenvalues --    0.69314   0.69676   0.70108   0.70369   0.70725
 Alpha virt. eigenvalues --    0.71018   0.71584   0.71910   0.72084   0.72456
 Alpha virt. eigenvalues --    0.72755   0.73436   0.74023   0.74070   0.74509
 Alpha virt. eigenvalues --    0.74770   0.75251   0.75528   0.75681   0.75899
 Alpha virt. eigenvalues --    0.76431   0.76787   0.77133   0.77224   0.77742
 Alpha virt. eigenvalues --    0.78499   0.78991   0.79765   0.80071   0.80464
 Alpha virt. eigenvalues --    0.81137   0.82145   0.82669   0.82846   0.83467
 Alpha virt. eigenvalues --    0.84415   0.84782   0.85217   0.85279   0.86550
 Alpha virt. eigenvalues --    0.87279   0.87995   0.88827   0.89155   0.89452
 Alpha virt. eigenvalues --    0.90236   0.90941   0.91166   0.91719   0.92378
 Alpha virt. eigenvalues --    0.92507   0.92769   0.93218   0.93637   0.93756
 Alpha virt. eigenvalues --    0.94342   0.94834   0.95109   0.95738   0.95865
 Alpha virt. eigenvalues --    0.96018   0.96789   0.97301   0.98023   0.98453
 Alpha virt. eigenvalues --    0.98854   0.99405   1.00012   1.00101   1.00953
 Alpha virt. eigenvalues --    1.01418   1.01691   1.01855   1.02362   1.03064
 Alpha virt. eigenvalues --    1.03473   1.04033   1.04276   1.04915   1.05125
 Alpha virt. eigenvalues --    1.05321   1.06196   1.06494   1.06896   1.07222
 Alpha virt. eigenvalues --    1.07325   1.08313   1.08389   1.08880   1.09461
 Alpha virt. eigenvalues --    1.09776   1.10187   1.10627   1.10922   1.12274
 Alpha virt. eigenvalues --    1.12530   1.13967   1.14222   1.14898   1.15917
 Alpha virt. eigenvalues --    1.16568   1.17514   1.17733   1.18103   1.18887
 Alpha virt. eigenvalues --    1.19119   1.19995   1.20471   1.21043   1.21510
 Alpha virt. eigenvalues --    1.21893   1.24576   1.25010   1.25129   1.25558
 Alpha virt. eigenvalues --    1.26272   1.26545   1.27193   1.27573   1.28911
 Alpha virt. eigenvalues --    1.29510   1.30332   1.30416   1.31014   1.31784
 Alpha virt. eigenvalues --    1.33200   1.34252   1.35176   1.35372   1.36199
 Alpha virt. eigenvalues --    1.36835   1.37703   1.39535   1.40346   1.40606
 Alpha virt. eigenvalues --    1.41356   1.42093   1.42586   1.43070   1.43335
 Alpha virt. eigenvalues --    1.43635   1.43913   1.44221   1.44734   1.44896
 Alpha virt. eigenvalues --    1.45380   1.45882   1.46115   1.46513   1.47421
 Alpha virt. eigenvalues --    1.47762   1.48085   1.48611   1.49469   1.50911
 Alpha virt. eigenvalues --    1.50997   1.51238   1.52164   1.52536   1.53529
 Alpha virt. eigenvalues --    1.54236   1.54801   1.54989   1.55201   1.55465
 Alpha virt. eigenvalues --    1.55861   1.55928   1.56434   1.57534   1.57659
 Alpha virt. eigenvalues --    1.58955   1.59940   1.60301   1.61314   1.62637
 Alpha virt. eigenvalues --    1.63028   1.63206   1.64426   1.65050   1.65921
 Alpha virt. eigenvalues --    1.66333   1.66871   1.67257   1.67652   1.67777
 Alpha virt. eigenvalues --    1.68800   1.69243   1.69599   1.69651   1.70063
 Alpha virt. eigenvalues --    1.70191   1.71128   1.71351   1.71854   1.73150
 Alpha virt. eigenvalues --    1.74091   1.74695   1.75016   1.75945   1.76962
 Alpha virt. eigenvalues --    1.77360   1.77507   1.78253   1.79310   1.79657
 Alpha virt. eigenvalues --    1.80194   1.80524   1.80948   1.82385   1.82805
 Alpha virt. eigenvalues --    1.84665   1.85799   1.86161   1.86606   1.86790
 Alpha virt. eigenvalues --    1.87140   1.87494   1.88253   1.88692   1.88800
 Alpha virt. eigenvalues --    1.89588   1.90669   1.91055   1.91917   1.92388
 Alpha virt. eigenvalues --    1.92720   1.94023   1.94724   1.95441   1.95855
 Alpha virt. eigenvalues --    1.96524   1.97473   1.98513   1.99225   2.00509
 Alpha virt. eigenvalues --    2.00658   2.01867   2.02131   2.02667   2.03045
 Alpha virt. eigenvalues --    2.03398   2.03943   2.04406   2.04852   2.06103
 Alpha virt. eigenvalues --    2.06575   2.07495   2.07983   2.08964   2.09451
 Alpha virt. eigenvalues --    2.09669   2.10125   2.11779   2.12743   2.13620
 Alpha virt. eigenvalues --    2.14030   2.14639   2.15291   2.15394   2.16124
 Alpha virt. eigenvalues --    2.16945   2.17705   2.19647   2.19797   2.20108
 Alpha virt. eigenvalues --    2.20189   2.21030   2.22867   2.23043   2.25103
 Alpha virt. eigenvalues --    2.25355   2.26203   2.26845   2.28995   2.32881
 Alpha virt. eigenvalues --    2.33148   2.34536   2.35286   2.36452   2.37963
 Alpha virt. eigenvalues --    2.39776   2.40202   2.41182   2.43286   2.43795
 Alpha virt. eigenvalues --    2.44000   2.44348   2.45866   2.46551   2.46963
 Alpha virt. eigenvalues --    2.47248   2.48190   2.48657   2.49994   2.50394
 Alpha virt. eigenvalues --    2.52119   2.52364   2.52876   2.53176   2.53465
 Alpha virt. eigenvalues --    2.53807   2.54387   2.55422   2.56294   2.56676
 Alpha virt. eigenvalues --    2.58554   2.58932   2.59059   2.60755   2.62623
 Alpha virt. eigenvalues --    2.63494   2.63982   2.65140   2.66136   2.66593
 Alpha virt. eigenvalues --    2.67592   2.67966   2.68813   2.68939   2.69431
 Alpha virt. eigenvalues --    2.69701   2.70539   2.70834   2.71248   2.72376
 Alpha virt. eigenvalues --    2.72822   2.73155   2.74689   2.75148   2.75931
 Alpha virt. eigenvalues --    2.76416   2.77734   2.79109   2.79563   2.80597
 Alpha virt. eigenvalues --    2.81290   2.82688   2.83716   2.84100   2.84502
 Alpha virt. eigenvalues --    2.85025   2.85324   2.85970   2.86386   2.86972
 Alpha virt. eigenvalues --    2.87702   2.88639   2.88996   2.89566   2.90717
 Alpha virt. eigenvalues --    2.91709   2.92350   2.93280   2.94111   2.94651
 Alpha virt. eigenvalues --    2.96411   2.96595   2.97440   2.98770   3.00330
 Alpha virt. eigenvalues --    3.00783   3.02609   3.03679   3.04488   3.05364
 Alpha virt. eigenvalues --    3.05982   3.08898   3.09619   3.11065   3.11697
 Alpha virt. eigenvalues --    3.12759   3.14207   3.14550   3.15328   3.16664
 Alpha virt. eigenvalues --    3.17987   3.18349   3.20529   3.22232   3.23116
 Alpha virt. eigenvalues --    3.23355   3.23969   3.24867   3.27239   3.28526
 Alpha virt. eigenvalues --    3.30374   3.31598   3.32073   3.33199   3.33535
 Alpha virt. eigenvalues --    3.33835   3.34105   3.35009   3.37833   3.38674
 Alpha virt. eigenvalues --    3.40425   3.41786   3.42088   3.43143   3.44193
 Alpha virt. eigenvalues --    3.45258   3.46419   3.48626   3.49074   3.51285
 Alpha virt. eigenvalues --    3.53912   3.55496   3.57578   3.59228   3.59864
 Alpha virt. eigenvalues --    3.61272   3.64656   3.66230   3.66537   3.69813
 Alpha virt. eigenvalues --    3.70417   3.72176   3.72693   3.76036   3.77070
 Alpha virt. eigenvalues --    3.77279   3.80312   3.83360   3.85061   3.85322
 Alpha virt. eigenvalues --    3.86261   3.89190   3.90534   3.92676   3.93002
 Alpha virt. eigenvalues --    3.94580   3.96813   4.01287   4.03499   4.04937
 Alpha virt. eigenvalues --    4.08759   4.11159   4.12954   4.14591   4.21073
 Alpha virt. eigenvalues --    4.24314   4.25506   4.27326   4.35175   4.40108
 Alpha virt. eigenvalues --    4.41072   4.53448   4.72052   4.84443   4.87064
 Alpha virt. eigenvalues --    4.87508   4.90317   5.01667   5.02433   5.03194
 Alpha virt. eigenvalues --    5.04676   5.05319   5.06649   5.10957   5.13073
 Alpha virt. eigenvalues --    5.24323   5.26523   5.29082   5.34464   5.42783
 Alpha virt. eigenvalues --    5.43770   5.75207   5.76661   5.79886   5.80413
 Alpha virt. eigenvalues --    5.81461   5.84560   8.02831   8.09565  17.28832
 Alpha virt. eigenvalues --   17.33649  17.50006  17.53074  17.61666  17.71445
 Alpha virt. eigenvalues --   23.48955  23.57306  23.71216  23.78423  23.81741
 Alpha virt. eigenvalues --   23.82545  23.84221  23.86181  23.86417  23.88022
 Alpha virt. eigenvalues --   23.89706  23.90992  23.92030  23.92974  23.94669
 Alpha virt. eigenvalues --   23.95219  23.96108  23.98238  24.00732  24.01724
 Alpha virt. eigenvalues --   24.02603  24.05173  24.11935  24.13347  24.14247
 Alpha virt. eigenvalues --   24.14277  35.56031  35.58811  49.96261  49.98039
 Alpha virt. eigenvalues --   50.01496  50.03562  50.05086  50.06555 189.20289
 Alpha virt. eigenvalues --  189.27847
          Condensed to atoms (all electrons):
 Mulliken charges:
               1
     1  C    0.450873
     2  C   -0.230370
     3  C    0.126931
     4  C    0.246856
     5  C    0.346962
     6  C   -0.212656
     7  C    0.098276
     8  C   -0.128259
     9  C    0.504569
    10  C    0.058455
    11  C    0.206769
    12  C    0.118548
    13  C   -0.528092
    14  C   -0.647034
    15  H    0.163603
    16  H    0.164870
    17  H    0.172906
    18  N   -0.106305
    19  N   -0.105338
    20  O   -0.350673
    21  O   -0.331703
    22  O   -0.344737
    23  O   -0.119020
    24  C   -0.193201
    25  H    0.186666
    26  H    0.188359
    27  H    0.182302
    28  C   -0.216447
    29  H    0.181624
    30  H    0.183025
    31  H    0.179146
    32  C    0.019313
    33  C   -0.202523
    34  S   -0.235788
    35  C   -0.437481
    36  H    0.157817
    37  C    0.414424
    38  O   -0.166725
    39  C    0.676331
    40  C   -0.243668
    41  C   -0.032710
    42  S   -0.267366
    43  H    0.175849
    44  H    0.159830
    45  H    0.163556
    46  C   -0.525507
    47  O   -0.120216
    48  C   -0.377158
    49  H    0.164040
    50  C   -0.255670
    51  H    0.191626
    52  H    0.159956
    53  H    0.174426
    54  H    0.160739
 Sum of Mulliken charges =  -0.00000
 Mulliken charges with hydrogens summed into heavy atoms:
               1
     1  C    0.450873
     2  C   -0.230370
     3  C    0.126931
     4  C    0.246856
     5  C    0.346962
     6  C   -0.039750
     7  C    0.098276
     8  C   -0.128259
     9  C    0.504569
    10  C    0.058455
    11  C    0.206769
    12  C    0.118548
    13  C   -0.363223
    14  C   -0.483431
    18  N   -0.106305
    19  N   -0.105338
    20  O   -0.350673
    21  O   -0.331703
    22  O   -0.344737
    23  O   -0.119020
    24  C    0.364126
    28  C    0.327348
    32  C    0.019313
    33  C   -0.044706
    34  S   -0.235788
    35  C   -0.437481
    37  C    0.414424
    38  O   -0.166725
    39  C    0.676331
    40  C    0.255567
    41  C   -0.032710
    42  S   -0.267366
    46  C   -0.361467
    47  O   -0.120216
    48  C   -0.185532
    50  C    0.239450
 Electronic spatial extent (au):  <R**2>=          22147.3156
 Charge=             -0.0000 electrons
 Dipole moment (field-independent basis, Debye):
    X=              5.4431    Y=             -0.4438    Z=             -0.1214  Tot=              5.4625
 Quadrupole moment (field-independent basis, Debye-Ang):
   XX=           -213.3097   YY=           -212.2121   ZZ=           -223.5233
   XY=             18.6650   XZ=             -3.3885   YZ=             -1.6761
 Traceless Quadrupole moment (field-independent basis, Debye-Ang):
   XX=              3.0386   YY=              4.1363   ZZ=             -7.1749
   XY=             18.6650   XZ=             -3.3885   YZ=             -1.6761
 Octapole moment (field-independent basis, Debye-Ang**2):
  XXX=            469.0671  YYY=            -85.1672  ZZZ=              3.2340  XYY=            155.1971
  XXY=             48.6100  XXZ=            -10.8169  XZZ=            -16.5796  YZZ=              2.3014
  YYZ=              3.8111  XYZ=            -10.4767
 Hexadecapole moment (field-independent basis, Debye-Ang**3):
 XXXX=         -21491.9813 YYYY=          -7640.2314 ZZZZ=           -319.7926 XXXY=            620.9836
 XXXZ=           -177.1152 YYYX=            395.2735 YYYZ=            -20.3325 ZZZX=              9.3888
 ZZZY=              3.5754 XXYY=          -4511.4573 XXZZ=          -3863.2238 YYZZ=          -1292.4365
 XXYZ=            -49.4892 YYXZ=              4.4867 ZZXY=             65.1044
 N-N= 4.130752151204D+03 E-N=-1.380213921027D+04  KE= 2.352142874064D+03
 D1PCM: PCM CHGder 1st derivatives, ID1Alg=3 FixD1E=F DoIter=F DoCFld=F I1PDM=0.
 Calling FoFJK, ICntrl=      2127 FMM=F ISym2X=0 I1Cent= 0 IOpClX= 0 NMat=1 NMatS=1 NMatT=0.
 ***** Axes restored to original set *****
 -------------------------------------------------------------------
 Center     Atomic                   Forces (Hartrees/Bohr)
 Number     Number              X              Y              Z
 -------------------------------------------------------------------
      1        6          -0.001594997   -0.000159902    0.000281734
      2        6           0.006759063   -0.000233534   -0.000596471
      3        6          -0.004008875    0.001113404    0.000248866
      4        6           0.003648178    0.000890910    0.000189198
      5        6           0.002257604    0.000870168    0.000168498
      6        6          -0.002847517   -0.002969221   -0.003063488
      7        6          -0.001410461    0.000752597    0.000506633
      8        6          -0.000451110    0.009511206    0.003990382
      9        6           0.014874540   -0.006603005   -0.004092333
     10        6          -0.033413795   -0.011085650   -0.000997510
     11        6           0.001662595   -0.004272963   -0.000911208
     12        6           0.002650031    0.001604444    0.000591432
     13        6          -0.002443934   -0.003238619   -0.000541448
     14        6          -0.000588704    0.003248544    0.000486544
     15        1           0.000629178    0.001846171    0.000189140
     16        1           0.000117411   -0.002215296   -0.000349648
     17        1          -0.001015572    0.001733725    0.001279932
     18        7           0.002988654   -0.003032384   -0.000657372
     19        7           0.001291486    0.001762246    0.000125464
     20        8          -0.002755132    0.002246741    0.000322634
     21        8           0.002716953   -0.000011030   -0.000096302
     22        8           0.001747201    0.000027209   -0.000005222
     23        8          -0.050386346    0.021288658    0.018383021
     24        6           0.001862751    0.002964945   -0.000515175
     25        1          -0.001486975    0.000153688    0.000018761
     26        1          -0.002041723   -0.000354608    0.000886175
     27        1           0.002037983    0.000337897    0.000225553
     28        6           0.000103331   -0.002441818   -0.000699338
     29        1          -0.001488755    0.000617049    0.000701584
     30        1          -0.001240779    0.000551723   -0.000178435
     31        1           0.001723885   -0.001090714   -0.000144883
     32        6          -0.020766444    0.027713412    0.011451413
     33        6           0.009235499   -0.006933450   -0.002652150
     34       16           0.070066475   -0.012191193   -0.013680478
     35        6           0.000240708   -0.007334339   -0.001083689
     36        1           0.001670152   -0.001525448    0.001412966
     37        6          -0.001732283   -0.009888638   -0.013412509
     38        8          -0.001506140   -0.000410879    0.000879951
     39        6          -0.001826973   -0.001874219    0.000890028
     40        6           0.001624770   -0.005701595    0.000682711
     41        6          -0.001779124    0.000176244   -0.000465833
     42       16           0.001676897    0.000889378    0.000521665
     43        1          -0.001306086   -0.000106508   -0.000108443
     44        1           0.000544686    0.001020951   -0.000951050
     45        1           0.000972806    0.000997178    0.000923435
     46        6          -0.000617182   -0.000492202    0.000351134
     47        8           0.004917367   -0.003445385   -0.000636193
     48        6          -0.000206374    0.001302252    0.000047857
     49        1           0.000170400   -0.000788843   -0.000016052
     50        6           0.000613013    0.008043234   -0.000056477
     51        1          -0.000995862   -0.000527958   -0.000187267
     52        1          -0.001019848   -0.001373614    0.001593240
     53        1           0.001051845   -0.000380726   -0.000089464
     54        1          -0.000924471   -0.000980233   -0.001161512
 -------------------------------------------------------------------
 Cartesian Forces:  Max     0.070066475 RMS     0.008773349

 GradGradGradGradGradGradGradGradGradGradGradGradGradGradGradGradGradGrad
 Berny optimization.
 FormGI is forming the generalized inverse of G from B-inverse, IUseBI=4.
 Internal  Forces:  Max     0.223995317 RMS     0.026263208
 Search for a local minimum.
 Step number   1 out of a maximum of  307
 All quantities printed in internal units (Hartrees-Bohrs-Radians)
 Mixed Optimization -- RFO/linear search
 Second derivative matrix not updated -- first step.
 ITU=  0
     Eigenvalues ---    0.00803   0.00803   0.01176   0.01203   0.01245
     Eigenvalues ---    0.01292   0.01308   0.01311   0.01367   0.01387
     Eigenvalues ---    0.01419   0.01429   0.01458   0.01496   0.01515
     Eigenvalues ---    0.01568   0.01572   0.01577   0.01624   0.01652
     Eigenvalues ---    0.01692   0.01711   0.01713   0.01719   0.01754
     Eigenvalues ---    0.01783   0.01803   0.01847   0.01959   0.02040
     Eigenvalues ---    0.02045   0.02067   0.02072   0.02079   0.02135
     Eigenvalues ---    0.02149   0.02163   0.02179   0.02197   0.02221
     Eigenvalues ---    0.02247   0.02248   0.07556   0.07572   0.07690
     Eigenvalues ---    0.07700   0.10060   0.10069   0.10634   0.10637
     Eigenvalues ---    0.15983   0.15999   0.15999   0.16000   0.16000
     Eigenvalues ---    0.16000   0.16000   0.16000   0.16000   0.16000
     Eigenvalues ---    0.16000   0.16000   0.16000   0.16000   0.16000
     Eigenvalues ---    0.16000   0.16000   0.16000   0.22530   0.22583
     Eigenvalues ---    0.23518   0.23582   0.24516   0.24747   0.24866
     Eigenvalues ---    0.24931   0.24952   0.24985   0.24987   0.24988
     Eigenvalues ---    0.24991   0.24994   0.24997   0.24997   0.24998
     Eigenvalues ---    0.24998   0.25000   0.25000   0.25000   0.25000
     Eigenvalues ---    0.25000   0.25000   0.25000   0.25000   0.25000
     Eigenvalues ---    0.25000   0.28796   0.28898   0.30139   0.32113
     Eigenvalues ---    0.32582   0.32774   0.33111   0.33787   0.33970
     Eigenvalues ---    0.34069   0.34076   0.34108   0.34354   0.34466
     Eigenvalues ---    0.34577   0.34629   0.34693   0.34796   0.34843
     Eigenvalues ---    0.35198   0.35218   0.35468   0.35553   0.35582
     Eigenvalues ---    0.35864   0.35864   0.36078   0.36083   0.36267
     Eigenvalues ---    0.36396   0.36662   0.39352   0.40194   0.40257
     Eigenvalues ---    0.40641   0.40651   0.41524   0.41777   0.42009
     Eigenvalues ---    0.42300   0.42708   0.43455   0.43883   0.44092
     Eigenvalues ---    0.44538   0.44594   0.45014   0.45406   0.46251
     Eigenvalues ---    0.47305   0.47629   0.49310   0.49556   0.52947
     Eigenvalues ---    0.53360   0.93281   0.93432   0.93989   0.94585
     Eigenvalues --- 1000.000001000.000001000.000001000.000001000.00000
     Eigenvalues --- 1000.000001000.000001000.000001000.000001000.00000
     Eigenvalues --- 1000.000001000.000001000.000001000.000001000.00000
     Eigenvalues --- 1000.000001000.000001000.000001000.000001000.00000
     Eigenvalues --- 1000.000001000.000001000.000001000.000001000.00000
     Eigenvalues --- 1000.000001000.000001000.000001000.000001000.00000
     Eigenvalues --- 1000.000001000.000001000.000001000.000001000.00000
     Eigenvalues --- 1000.000001000.000001000.000001000.000001000.00000
     Eigenvalues --- 1000.000001000.000001000.000001000.000001000.00000
     Eigenvalues --- 1000.000001000.000001000.000001000.000001000.00000
     Eigenvalues --- 1000.000001000.000001000.000001000.000001000.00000
     Eigenvalues --- 1000.000001000.000001000.000001000.000001000.00000
     Eigenvalues --- 1000.000001000.000001000.000001000.000001000.00000
     Eigenvalues --- 1000.000001000.000001000.000001000.000001000.00000
     Eigenvalues --- 1000.000001000.000001000.000001000.000001000.00000
     Eigenvalues --- 1000.000001000.000001000.000001000.000001000.00000
     Eigenvalues --- 1000.000001000.000001000.000001000.000001000.00000
     Eigenvalues --- 1000.000001000.000001000.000001000.000001000.00000
     Eigenvalues --- 1000.000001000.000001000.000001000.000001000.00000
     Eigenvalues --- 1000.000001000.000001000.000001000.000001000.00000
     Eigenvalues --- 1000.000001000.000001000.000001000.000001000.00000
     Eigenvalues --- 1000.000001000.000001000.000001000.000001000.00000
     Eigenvalues --- 1000.000001000.000001000.000001000.000001000.00000
     Eigenvalues --- 1000.000001000.000001000.000001000.000001000.00000
     Eigenvalues --- 1000.000001000.000001000.000001000.000001000.00000
     Eigenvalues --- 1000.000001000.000001000.000001000.000001000.00000
     Eigenvalues --- 1000.000001000.000001000.000001000.000001000.00000
     Eigenvalues --- 1000.000001000.000001000.000001000.000001000.00000
     Eigenvalues --- 1000.000001000.00000
 RFO step:  Lambda=-3.40673370D-01 EMin= 8.02933640D-03
 Linear search not attempted -- first point.
 Maximum step size (   0.300) exceeded in Quadratic search.
    -- Step size scaled by   0.404
 Iteration  1 RMS(Cart)=  0.31355421 RMS(Int)=  0.00805028
 Iteration  2 RMS(Cart)=  0.14191515 RMS(Int)=  0.00123384
 Iteration  3 RMS(Cart)=  0.00433021 RMS(Int)=  0.00012483
 Iteration  4 RMS(Cart)=  0.00000092 RMS(Int)=  0.00012483
 Iteration  1 RMS(Cart)=  0.00002884 RMS(Int)=  0.00000472
 Iteration  2 RMS(Cart)=  0.00001622 RMS(Int)=  0.00000527
 Iteration  3 RMS(Cart)=  0.00000912 RMS(Int)=  0.00000597
 Iteration  4 RMS(Cart)=  0.00000513 RMS(Int)=  0.00000645
 Iteration  5 RMS(Cart)=  0.00000289 RMS(Int)=  0.00000674
 Iteration  6 RMS(Cart)=  0.00000162 RMS(Int)=  0.00000691
 Iteration  7 RMS(Cart)=  0.00000091 RMS(Int)=  0.00000701
 Variable       Old X    -DE/DX   Delta X   Delta X   Delta X     New X
                                 (Linear)    (Quad)   (Total)
    R1        2.80935  -0.00056   0.00000  -0.00059  -0.00059   2.80876
    R2        2.64584  -0.00968   0.00000  -0.00501  -0.00499   2.64085
    R3        2.31147  -0.00355   0.00000  -0.00112  -0.00112   2.31035
    R4        2.67311  -0.02188   0.00000  -0.01285  -0.01293   2.66018
    R5        2.59267  -0.02955   0.00000  -0.01566  -0.01567   2.57700
    R6        2.66894   0.00375   0.00000   0.00200   0.00199   2.67093
    R7        2.69164   0.00681   0.00000   0.00467   0.00463   2.69627
    R8        2.81049  -0.00184   0.00000  -0.00084  -0.00084   2.80965
    R9        2.62173  -0.01144   0.00000  -0.00627  -0.00629   2.61544
   R10        2.65570  -0.00945   0.00000  -0.00474  -0.00473   2.65097
   R11        2.30889  -0.00257   0.00000  -0.00081  -0.00081   2.30809
   R12        2.70248   0.00316   0.00000   0.00118   0.00124   2.70372
   R13        2.04786  -0.00211   0.00000  -0.00122  -0.00122   2.04664
   R14        2.70495   0.05089   0.00000   0.03050   0.03058   2.73553
   R15        2.68322   0.01500   0.00000   0.00930   0.00929   2.69251
   R16        2.68655   0.10147   0.00000   0.05506   0.05513   2.74168
   R17        2.81233   0.02185   0.00000   0.01358   0.01368   2.82601
   R18        2.76359   0.05784   0.00000   0.03303   0.03303   2.79663
   R19        2.66221  -0.01266   0.00000  -0.00729  -0.00727   2.65494
   R20        2.31391  -0.03531   0.00000  -0.01119  -0.01119   2.30272
   R21        2.79415  -0.02614   0.00000  -0.01590  -0.01599   2.77816
   R22        2.63842  -0.03100   0.00000  -0.01677  -0.01683   2.62158
   R23        2.31456  -0.00126   0.00000  -0.00040  -0.00040   2.31416
   R24        2.62448  -0.00116   0.00000  -0.00053  -0.00053   2.62396
   R25        2.64561  -0.01974   0.00000  -0.01059  -0.01061   2.63500
   R26        2.04921  -0.00165   0.00000  -0.00096  -0.00096   2.04825
   R27        2.04741  -0.00119   0.00000  -0.00069  -0.00069   2.04672
   R28        2.77259   0.00317   0.00000   0.00182   0.00182   2.77442
   R29        2.77252   0.00252   0.00000   0.00145   0.00145   2.77397
   R30        2.06176  -0.00075   0.00000  -0.00044  -0.00044   2.06132
   R31        2.06551  -0.00193   0.00000  -0.00114  -0.00114   2.06437
   R32        2.05322  -0.00158   0.00000  -0.00092  -0.00092   2.05230
   R33        2.06368  -0.00140   0.00000  -0.00083  -0.00083   2.06285
   R34        2.06281  -0.00092   0.00000  -0.00054  -0.00054   2.06227
   R35        2.05355  -0.00159   0.00000  -0.00093  -0.00093   2.05262
   R36        2.60993   0.02662   0.00000   0.01317   0.01323   2.62315
   R37        3.33388   0.01784   0.00000   0.01193   0.01197   3.34585
   R38        2.66237  -0.01648   0.00000  -0.00877  -0.00877   2.65360
   R39        2.03667   0.00131   0.00000   0.00075   0.00075   2.03742
   R40        3.30310   0.00313   0.00000   0.00188   0.00185   3.30495
   R41        2.64329  -0.01450   0.00000  -0.00776  -0.00782   2.63547
   R42        2.57003   0.00215   0.00000   0.00100   0.00100   2.57103
   R43        2.71206   0.00114   0.00000   0.00062   0.00062   2.71268
   R44        2.69208   0.00376   0.00000   0.00200   0.00200   2.69409
   R45        2.63457   0.00280   0.00000   0.00146   0.00146   2.63603
   R46        3.32887   0.00157   0.00000   0.00106   0.00106   3.32994
   R47        2.06007  -0.00123   0.00000  -0.00072  -0.00072   2.05935
   R48        2.07214  -0.00144   0.00000  -0.00086  -0.00086   2.07128
   R49        2.07148  -0.00151   0.00000  -0.00089  -0.00089   2.07059
   R50        2.69158  -0.00095   0.00000  -0.00052  -0.00052   2.69107
   R51        2.56619  -0.00335   0.00000  -0.00155  -0.00155   2.56465
   R52        3.26285  -0.00134   0.00000  -0.00085  -0.00085   3.26200
   R53        2.58692  -0.00219   0.00000  -0.00109  -0.00110   2.58582
   R54        2.04294  -0.00076   0.00000  -0.00044  -0.00044   2.04250
   R55        2.68912   0.00532   0.00000   0.00283   0.00283   2.69194
   R56        2.04295  -0.00107   0.00000  -0.00062  -0.00062   2.04233
   R57        2.07380  -0.00228   0.00000  -0.00135  -0.00135   2.07245
   R58        2.05931  -0.00112   0.00000  -0.00065  -0.00065   2.05866
   R59        2.07202  -0.00171   0.00000  -0.00102  -0.00102   2.07100
    A1        2.03797   0.00283   0.00000   0.00122   0.00121   2.03918
    A2        2.14521  -0.00103   0.00000  -0.00035  -0.00034   2.14486
    A3        2.10001  -0.00179   0.00000  -0.00087  -0.00087   2.09914
    A4        2.10395   0.00968   0.00000   0.00764   0.00765   2.11160
    A5        2.08282  -0.01242   0.00000  -0.00640  -0.00634   2.07648
    A6        2.09624   0.00271   0.00000  -0.00128  -0.00135   2.09489
    A7        2.10093  -0.01320   0.00000  -0.00965  -0.00962   2.09131
    A8        2.07104  -0.00073   0.00000  -0.00174  -0.00184   2.06920
    A9        2.11118   0.01392   0.00000   0.01138   0.01145   2.12263
   A10        2.10296   0.00636   0.00000   0.00471   0.00469   2.10765
   A11        2.09911   0.00492   0.00000   0.00295   0.00292   2.10203
   A12        2.08110  -0.01127   0.00000  -0.00766  -0.00761   2.07349
   A13        2.03739   0.00116   0.00000   0.00101   0.00099   2.03838
   A14        2.12972   0.00045   0.00000   0.00020   0.00021   2.12993
   A15        2.11607  -0.00162   0.00000  -0.00121  -0.00120   2.11487
   A16        2.15098   0.04534   0.00000   0.03023   0.03028   2.18126
   A17        2.04399  -0.02227   0.00000  -0.01483  -0.01485   2.02914
   A18        2.08722  -0.02318   0.00000  -0.01554  -0.01557   2.07165
   A19        2.11101   0.01808   0.00000   0.01272   0.01266   2.12367
   A20        2.04385  -0.03351   0.00000  -0.02405  -0.02404   2.01980
   A21        2.12832   0.01543   0.00000   0.01133   0.01138   2.13971
   A22        2.08678  -0.03284   0.00000  -0.01959  -0.01959   2.06719
   A23        2.04738  -0.06381   0.00000  -0.04267  -0.04252   2.00486
   A24        2.14662   0.09650   0.00000   0.06209   0.06195   2.20857
   A25        2.04892  -0.03292   0.00000  -0.02073  -0.02058   2.02834
   A26        2.00754  -0.19118   0.00000  -0.13169  -0.13174   1.87580
[...]
 Alpha  occ. eigenvalues --   -0.57527  -0.56825  -0.56194  -0.55088  -0.54875
 Alpha  occ. eigenvalues --   -0.53890  -0.51655  -0.50335  -0.50140  -0.49735
 Alpha  occ. eigenvalues --   -0.49562  -0.49143  -0.48583  -0.48465  -0.48121
 Alpha  occ. eigenvalues --   -0.48049  -0.47254  -0.46953  -0.46527  -0.45835
 Alpha  occ. eigenvalues --   -0.45535  -0.45389  -0.44996  -0.44282  -0.43746
 Alpha  occ. eigenvalues --   -0.42886  -0.42661  -0.42294  -0.42085  -0.41942
 Alpha  occ. eigenvalues --   -0.41845  -0.41529  -0.41114  -0.40740  -0.40098
 Alpha  occ. eigenvalues --   -0.39717  -0.39259  -0.38902  -0.37813  -0.37380
 Alpha  occ. eigenvalues --   -0.36529  -0.36373  -0.34440  -0.34168  -0.33823
 Alpha  occ. eigenvalues --   -0.33727  -0.31967  -0.31469  -0.30758  -0.30264
 Alpha  occ. eigenvalues --   -0.29651  -0.29318  -0.29042  -0.28626  -0.27463
 Alpha  occ. eigenvalues --   -0.26131  -0.25281  -0.24819  -0.19760
 Alpha virt. eigenvalues --   -0.13211  -0.08072  -0.06435  -0.04715  -0.03907
 Alpha virt. eigenvalues --   -0.00712  -0.00537   0.00157   0.00252   0.00381
 Alpha virt. eigenvalues --    0.00845   0.01308   0.01425   0.01585   0.02051
 Alpha virt. eigenvalues --    0.02272   0.02688   0.02780   0.02933   0.03172
 Alpha virt. eigenvalues --    0.03711   0.03800   0.03857   0.04453   0.04492
 Alpha virt. eigenvalues --    0.04655   0.04780   0.05301   0.05676   0.06044
 Alpha virt. eigenvalues --    0.06152   0.06342   0.06534   0.06751   0.07201
 Alpha virt. eigenvalues --    0.07401   0.07684   0.07858   0.08019   0.08058
 Alpha virt. eigenvalues --    0.08506   0.08610   0.09043   0.09109   0.09590
 Alpha virt. eigenvalues --    0.09713   0.09920   0.10085   0.10280   0.10642
 Alpha virt. eigenvalues --    0.10969   0.11099   0.11681   0.11741   0.11940
 Alpha virt. eigenvalues --    0.12398   0.12814   0.13093   0.13131   0.13547
 Alpha virt. eigenvalues --    0.13670   0.13927   0.14073   0.14206   0.14302
 Alpha virt. eigenvalues --    0.14655   0.14720   0.14887   0.14998   0.15352
 Alpha virt. eigenvalues --    0.15751   0.15894   0.15988   0.16181   0.16465
 Alpha virt. eigenvalues --    0.16640   0.16997   0.17293   0.17560   0.17714
 Alpha virt. eigenvalues --    0.17782   0.18126   0.18295   0.18408   0.18675
 Alpha virt. eigenvalues --    0.18791   0.18843   0.19267   0.19426   0.19919
 Alpha virt. eigenvalues --    0.19975   0.20091   0.20126   0.20277   0.20554
 Alpha virt. eigenvalues --    0.20818   0.20932   0.21069   0.21214   0.21614
 Alpha virt. eigenvalues --    0.21705   0.21858   0.22151   0.22203   0.22410
 Alpha virt. eigenvalues --    0.22546   0.23108   0.23325   0.23423   0.23685
 Alpha virt. eigenvalues --    0.23940   0.23961   0.24138   0.24342   0.24446
 Alpha virt. eigenvalues --    0.24800   0.24860   0.24990   0.25238   0.25520
 Alpha virt. eigenvalues --    0.25608   0.25946   0.26079   0.26186   0.26356
 Alpha virt. eigenvalues --    0.26556   0.26646   0.26787   0.27050   0.27304
 Alpha virt. eigenvalues --    0.27453   0.27694   0.27981   0.28187   0.28310
 Alpha virt. eigenvalues --    0.28561   0.28837   0.29074   0.29203   0.29550
 Alpha virt. eigenvalues --    0.29902   0.29972   0.30147   0.30384   0.30617
 Alpha virt. eigenvalues --    0.31027   0.31256   0.31380   0.31558   0.31656
 Alpha virt. eigenvalues --    0.31832   0.32159   0.32399   0.32834   0.32997
 Alpha virt. eigenvalues --    0.33359   0.33489   0.33769   0.34118   0.34450
 Alpha virt. eigenvalues --    0.34840   0.35263   0.35446   0.35607   0.35745
 Alpha virt. eigenvalues --    0.36235   0.36470   0.36702   0.37291   0.37630
 Alpha virt. eigenvalues --    0.37754   0.37916   0.38378   0.38651   0.39273
 Alpha virt. eigenvalues --    0.39279   0.39809   0.40402   0.40652   0.40912
 Alpha virt. eigenvalues --    0.41189   0.42376   0.42697   0.43025   0.43205
 Alpha virt. eigenvalues --    0.43541   0.43714   0.44044   0.44421   0.44578
 Alpha virt. eigenvalues --    0.45238   0.45454   0.46332   0.46569   0.46609
 Alpha virt. eigenvalues --    0.47370   0.47802   0.48453   0.48937   0.49164
 Alpha virt. eigenvalues --    0.49459   0.50021   0.50306   0.50956   0.51134
 Alpha virt. eigenvalues --    0.51570   0.51849   0.52546   0.52947   0.54181
 Alpha virt. eigenvalues --    0.54603   0.54770   0.54976   0.55214   0.55532
 Alpha virt. eigenvalues --    0.55721   0.55858   0.56407   0.56861   0.57227
 Alpha virt. eigenvalues --    0.57331   0.57670   0.58068   0.58320   0.59155
 Alpha virt. eigenvalues --    0.59535   0.60128   0.60689   0.60917   0.61163
 Alpha virt. eigenvalues --    0.61325   0.61824   0.62065   0.62544   0.63526
 Alpha virt. eigenvalues --    0.63789   0.64059   0.64468   0.64870   0.65093
 Alpha virt. eigenvalues --    0.65446   0.65875   0.65886   0.66678   0.66736
 Alpha virt. eigenvalues --    0.67209   0.67367   0.67824   0.67909   0.68657
 Alpha virt. eigenvalues --    0.69220   0.69379   0.69860   0.70138   0.70561
 Alpha virt. eigenvalues --    0.70765   0.71012   0.71399   0.71833   0.72341
 Alpha virt. eigenvalues --    0.72481   0.72678   0.73100   0.73441   0.73753
 Alpha virt. eigenvalues --    0.74264   0.74511   0.74583   0.74913   0.75211
 Alpha virt. eigenvalues --    0.75364   0.75762   0.76091   0.76586   0.77014
 Alpha virt. eigenvalues --    0.77296   0.77670   0.78354   0.78755   0.79169
 Alpha virt. eigenvalues --    0.79477   0.79828   0.80587   0.81032   0.81201
 Alpha virt. eigenvalues --    0.82712   0.83493   0.83793   0.84218   0.85480
 Alpha virt. eigenvalues --    0.86030   0.86746   0.87137   0.87863   0.88119
 Alpha virt. eigenvalues --    0.88828   0.89647   0.89885   0.90581   0.91106
 Alpha virt. eigenvalues --    0.91541   0.91879   0.92205   0.92684   0.92853
 Alpha virt. eigenvalues --    0.93486   0.93797   0.94308   0.94574   0.94822
 Alpha virt. eigenvalues --    0.95056   0.95380   0.96115   0.96898   0.97225
 Alpha virt. eigenvalues --    0.97749   0.98235   0.98588   0.99166   1.00324
 Alpha virt. eigenvalues --    1.00596   1.01249   1.01355   1.01542   1.02202
 Alpha virt. eigenvalues --    1.02521   1.02925   1.03193   1.03796   1.04375
 Alpha virt. eigenvalues --    1.04841   1.05049   1.05508   1.05789   1.06356
 Alpha virt. eigenvalues --    1.06576   1.07023   1.07734   1.08066   1.08579
 Alpha virt. eigenvalues --    1.08870   1.09360   1.09706   1.10264   1.10848
 Alpha virt. eigenvalues --    1.11636   1.12034   1.12993   1.14455   1.14577
 Alpha virt. eigenvalues --    1.15505   1.15982   1.17270   1.17733   1.17945
 Alpha virt. eigenvalues --    1.18432   1.19211   1.19639   1.20192   1.20282
 Alpha virt. eigenvalues --    1.21513   1.21745   1.22268   1.23674   1.24248
 Alpha virt. eigenvalues --    1.24591   1.25498   1.25990   1.26186   1.26763
 Alpha virt. eigenvalues --    1.27838   1.27968   1.29736   1.30265   1.30858
 Alpha virt. eigenvalues --    1.32019   1.32709   1.33651   1.34423   1.34835
 Alpha virt. eigenvalues --    1.35221   1.35624   1.36007   1.37486   1.40068
 Alpha virt. eigenvalues --    1.40647   1.41050   1.41355   1.41760   1.42256
 Alpha virt. eigenvalues --    1.43110   1.43201   1.43646   1.44114   1.44396
 Alpha virt. eigenvalues --    1.44897   1.45326   1.45721   1.45848   1.46344
 Alpha virt. eigenvalues --    1.46811   1.47906   1.48577   1.49178   1.49609
 Alpha virt. eigenvalues --    1.49806   1.51086   1.51519   1.52089   1.52568
 Alpha virt. eigenvalues --    1.53341   1.53689   1.54390   1.54631   1.54980
 Alpha virt. eigenvalues --    1.55340   1.55537   1.55886   1.56462   1.57531
 Alpha virt. eigenvalues --    1.57893   1.58523   1.59543   1.59993   1.60856
 Alpha virt. eigenvalues --    1.61087   1.62683   1.62899   1.63820   1.64233
 Alpha virt. eigenvalues --    1.65589   1.65683   1.66126   1.66772   1.66985
 Alpha virt. eigenvalues --    1.67342   1.68669   1.69510   1.69686   1.69958
 Alpha virt. eigenvalues --    1.70397   1.70709   1.70848   1.71954   1.72095
 Alpha virt. eigenvalues --    1.73201   1.73594   1.74251   1.75016   1.76005
 Alpha virt. eigenvalues --    1.76528   1.76749   1.77381   1.77746   1.78703
 Alpha virt. eigenvalues --    1.79115   1.79544   1.80463   1.80836   1.81663
 Alpha virt. eigenvalues --    1.82538   1.83762   1.84487   1.85268   1.86432
 Alpha virt. eigenvalues --    1.86622   1.86917   1.87369   1.87605   1.88368
 Alpha virt. eigenvalues --    1.88566   1.89228   1.89844   1.90441   1.91181
 Alpha virt. eigenvalues --    1.91333   1.91753   1.93674   1.94153   1.95566
 Alpha virt. eigenvalues --    1.96047   1.97294   1.97669   1.98825   1.99153
 Alpha virt. eigenvalues --    1.99480   1.99707   2.00591   2.00685   2.01711
 Alpha virt. eigenvalues --    2.02557   2.02772   2.03050   2.03890   2.05135
 Alpha virt. eigenvalues --    2.06154   2.06260   2.07507   2.07674   2.08333
 Alpha virt. eigenvalues --    2.08463   2.09135   2.10538   2.11365   2.11713
 Alpha virt. eigenvalues --    2.12515   2.13182   2.13504   2.14195   2.15247
 Alpha virt. eigenvalues --    2.15345   2.16613   2.17707   2.18225   2.18664
 Alpha virt. eigenvalues --    2.19383   2.19866   2.20547   2.21979   2.22564
 Alpha virt. eigenvalues --    2.22963   2.25218   2.25932   2.26190   2.29193
 Alpha virt. eigenvalues --    2.31789   2.32874   2.33920   2.34850   2.37462
 Alpha virt. eigenvalues --    2.38132   2.39065   2.40035   2.41258   2.43083
 Alpha virt. eigenvalues --    2.43683   2.43729   2.44644   2.45745   2.45850
 Alpha virt. eigenvalues --    2.46750   2.47680   2.47803   2.48753   2.50040
 Alpha virt. eigenvalues --    2.50325   2.51947   2.52462   2.52726   2.53207
 Alpha virt. eigenvalues --    2.53827   2.54104   2.55016   2.55670   2.56566
 Alpha virt. eigenvalues --    2.57432   2.58022   2.58603   2.59265   2.61299
 Alpha virt. eigenvalues --    2.62440   2.63241   2.63982   2.64952   2.66063
 Alpha virt. eigenvalues --    2.67131   2.67421   2.68030   2.68380   2.68592
 Alpha virt. eigenvalues --    2.68992   2.70368   2.70822   2.71384   2.71640
 Alpha virt. eigenvalues --    2.72495   2.73026   2.73682   2.74478   2.74890
 Alpha virt. eigenvalues --    2.76617   2.77505   2.77959   2.78623   2.80770
 Alpha virt. eigenvalues --    2.81126   2.82370   2.82717   2.83090   2.83224
 Alpha virt. eigenvalues --    2.83623   2.84223   2.85075   2.85953   2.86476
 Alpha virt. eigenvalues --    2.86976   2.87415   2.88235   2.89745   2.90083
 Alpha virt. eigenvalues --    2.90655   2.91920   2.92448   2.92767   2.94557
 Alpha virt. eigenvalues --    2.94776   2.95199   2.96148   2.97106   2.98872
 Alpha virt. eigenvalues --    3.00589   3.01820   3.02849   3.03252   3.03750
 Alpha virt. eigenvalues --    3.05734   3.06431   3.06711   3.08643   3.09082
 Alpha virt. eigenvalues --    3.10755   3.12396   3.12791   3.14725   3.14947
 Alpha virt. eigenvalues --    3.16572   3.16957   3.18370   3.20787   3.21244
 Alpha virt. eigenvalues --    3.22869   3.23021   3.23466   3.25163   3.26884
 Alpha virt. eigenvalues --    3.28935   3.29511   3.30662   3.31910   3.33490
 Alpha virt. eigenvalues --    3.33689   3.34159   3.34362   3.36215   3.37919
 Alpha virt. eigenvalues --    3.38142   3.40077   3.40612   3.42359   3.42893
 Alpha virt. eigenvalues --    3.43493   3.45086   3.45675   3.48405   3.49043
 Alpha virt. eigenvalues --    3.50993   3.53425   3.55780   3.57825   3.59616
 Alpha virt. eigenvalues --    3.60535   3.61262   3.64603   3.65593   3.66360
 Alpha virt. eigenvalues --    3.68582   3.70199   3.73352   3.74794   3.75616
 Alpha virt. eigenvalues --    3.77743   3.77807   3.80885   3.83059   3.84434
 Alpha virt. eigenvalues --    3.85033   3.85174   3.89348   3.90631   3.92706
 Alpha virt. eigenvalues --    3.93499   3.94725   3.97015   4.01043   4.02446
 Alpha virt. eigenvalues --    4.03976   4.07987   4.10098   4.12283   4.13910
 Alpha virt. eigenvalues --    4.20043   4.23992   4.25148   4.26773   4.34657
 Alpha virt. eigenvalues --    4.38237   4.40884   4.51631   4.68369   4.84655
 Alpha virt. eigenvalues --    4.84922   4.87093   4.89662   5.01177   5.02118
 Alpha virt. eigenvalues --    5.03449   5.04939   5.05832   5.09635   5.10914
 Alpha virt. eigenvalues --    5.12061   5.23927   5.25318   5.26047   5.28194
 Alpha virt. eigenvalues --    5.41390   5.42386   5.75182   5.75926   5.78450
 Alpha virt. eigenvalues --    5.80007   5.81614   5.82076   8.02023   8.05244
 Alpha virt. eigenvalues --   17.28578  17.31770  17.49164  17.52168  17.57210
 Alpha virt. eigenvalues --   17.63404  23.48570  23.55807  23.71315  23.79445
 Alpha virt. eigenvalues --   23.82247  23.82464  23.84682  23.86828  23.87020
 Alpha virt. eigenvalues --   23.88020  23.88688  23.91219  23.92191  23.93510
 Alpha virt. eigenvalues --   23.94968  23.95941  23.96216  23.99377  24.00607
 Alpha virt. eigenvalues --   24.01839  24.02072  24.05291  24.09579  24.13650
 Alpha virt. eigenvalues --   24.14689  24.14852  35.55505  35.57928  49.95939
 Alpha virt. eigenvalues --   49.97640  50.01527  50.02805  50.04961  50.06201
 Alpha virt. eigenvalues --  189.19318 189.23154
          Condensed to atoms (all electrons):
 Mulliken charges:
               1
     1  C    0.416257
     2  C   -0.087369
     3  C    0.163691
     4  C    0.227429
     5  C    0.278816
     6  C    0.159055
     7  C    0.077014
     8  C    0.441755
     9  C    0.341099
    10  C   -0.685378
    11  C    0.348923
    12  C    0.066189
    13  C   -0.476235
    14  C   -0.589186
    15  H    0.164007
    16  H    0.164631
    17  H    0.164147
    18  N    0.052827
    19  N   -0.116109
    20  O   -0.346911
    21  O   -0.334495
    22  O   -0.359075
    23  O   -0.287956
    24  C   -0.205107
    25  H    0.190523
    26  H    0.182890
    27  H    0.180130
    28  C   -0.212486
    29  H    0.186723
    30  H    0.179872
    31  H    0.179422
    32  C   -0.008400
    33  C   -0.482336
    34  S   -0.714223
    35  C   -0.481073
    36  H    0.161627
    37  C    0.696504
    38  O   -0.157689
    39  C    0.875619
    40  C   -0.243228
    41  C   -0.000527
    42  S   -0.212773
    43  H    0.179527
    44  H    0.164355
    45  H    0.165423
    46  C   -0.554657
    47  O   -0.149149
    48  C   -0.313819
    49  H    0.164569
    50  C   -0.254429
    51  H    0.193538
    52  H    0.164156
    53  H    0.176777
    54  H    0.165116
 Sum of Mulliken charges =  -0.00000
 Mulliken charges with hydrogens summed into heavy atoms:
               1
     1  C    0.416257
     2  C   -0.087369
     3  C    0.163691
     4  C    0.227429
     5  C    0.278816
     6  C    0.323202
     7  C    0.077014
     8  C    0.441755
     9  C    0.341099
    10  C   -0.685378
    11  C    0.348923
    12  C    0.066189
    13  C   -0.311604
    14  C   -0.425179
    18  N    0.052827
    19  N   -0.116109
    20  O   -0.346911
    21  O   -0.334495
    22  O   -0.359075
    23  O   -0.287956
    24  C    0.348436
    28  C    0.333531
    32  C   -0.008400
    33  C   -0.320709
    34  S   -0.714223
    35  C   -0.481073
    37  C    0.696504
    38  O   -0.157689
    39  C    0.875619
    40  C    0.266077
    41  C   -0.000527
    42  S   -0.212773
    46  C   -0.390088
    47  O   -0.149149
    48  C   -0.120280
    50  C    0.251620
 Electronic spatial extent (au):  <R**2>=          21996.2831
 Charge=             -0.0000 electrons
 Dipole moment (field-independent basis, Debye):
    X=              6.4501    Y=             -1.3839    Z=             -1.3596  Tot=              6.7355
 Quadrupole moment (field-independent basis, Debye-Ang):
   XX=           -204.6975   YY=           -213.3087   ZZ=           -222.7570
   XY=             14.9974   XZ=            -15.5245   YZ=            -11.3260
 Traceless Quadrupole moment (field-independent basis, Debye-Ang):
   XX=              8.8902   YY=              0.2790   ZZ=             -9.1693
   XY=             14.9974   XZ=            -15.5245   YZ=            -11.3260
 Octapole moment (field-independent basis, Debye-Ang**2):
  XXX=            474.6018  YYY=            -76.1226  ZZZ=             -5.9926  XYY=            148.0372
  XXY=             41.4969  XXZ=            -41.8605  XZZ=              8.7075  YZZ=             -4.3001
  YYZ=             13.3987  XYZ=            -49.1304
 Hexadecapole moment (field-independent basis, Debye-Ang**3):
 XXXX=         -20353.0687 YYYY=          -7568.7019 ZZZZ=           -979.8385 XXXY=            389.5023
 XXXZ=           -825.5393 YYYX=            465.7007 YYYZ=            -57.0703 ZZZX=             -6.6245
 ZZZY=            -32.0234 XXYY=          -4424.0586 XXZZ=          -3743.8472 YYZZ=          -1319.3653
 XXYZ=           -235.6569 YYXZ=             14.8889 ZZXY=             53.4691
 N-N= 4.107800154177D+03 E-N=-1.375594878082D+04  KE= 2.351994536023D+03
 Unable to Open any file for archive entry.
 1\1\GINC-CX3-6-13\FOpt\RB3LYP\6-311+G(d,p)\C26H18N2O6S2\NS5018\28-Oct-
 2021\0\\# opt=modredundant b3lyp/6-311+g(d,p) scrf=(pcm, solvent=water
 )\\NDI_170.pdb\\0,1\C,-2.3921009927,-2.8543582299,-0.5876487429\C,-2.1
 657576452,-1.4445329526,-0.1824949684\C,-3.2481770324,-0.5353121478,-0
 .1410144408\C,-4.5472312496,-0.9451056775,-0.4961857194\C,-4.798875828
 3,-2.3481281775,-0.9128031047\C,-0.8943199506,-1.0165806308,0.09642631
 89\C,-2.99597632,0.7991976158,0.2734831159\C,-1.6807782458,1.212770093
 5,0.6322787504\C,-0.5865638382,0.3269555335,0.4707193306\C,-1.55823868
 98,2.5191905406,1.3187659223\C,-3.8969159732,3.0994214165,0.7358320065
 \C,-4.0911337508,1.6979694721,0.3076401162\C,-5.3622955802,1.279498552
 9,-0.061493362\C,-5.5975771281,-0.0394824926,-0.4604747608\H,-6.591411
 6674,-0.3627414411,-0.7398224895\H,-6.1736941169,1.9949308087,-0.03275
 57264\H,-0.0950075487,-1.7325044508,-0.0252306818\N,-2.6276189595,3.42
 36489964,1.2061451353\N,-3.7001720752,-3.2191656061,-0.913080852\O,-1.
 4926532642,-3.6794458848,-0.6405979\O,-5.9092803747,-2.737836632,-1.23
 81872144\O,-4.797213087,3.9288461893,0.7116722464\O,-0.5920243989,2.83
 41361222,1.9984623165\C,-2.4210223356,4.7649692951,1.7729221456\H,-2.5
 40959478,4.7457600085,2.8580314441\H,-1.4148224565,5.099609054,1.53406
 09208\H,-3.1583099375,5.4323134429,1.3383825636\C,-3.9101842743,-4.621
 7141636,-1.3044342928\H,-3.380121501,-4.8319438306,-2.2338881433\H,-3.
 5286708793,-5.2775306711,-0.5231910695\H,-4.9745208974,-4.7781540357,-
 1.4412891625\C,0.8354101067,0.6587554634,0.4875093073\C,1.8754597886,-
 0.2652011109,0.520577675\S,1.4658371421,2.2413948113,0.0807272657\C,3.
 1390175508,0.2862368684,0.2559468282\H,1.7334061637,-1.3079358019,0.75
 91601302\C,3.1107109217,1.6520041755,-0.0410307414\O,4.3285944936,-0.3
 682319007,0.2606423485\C,4.216712089,2.5016960607,-0.3709564741\C,4.32
 32938889,-1.7722607597,0.5460660869\C,4.1870085271,3.8611078939,-0.681
 6194379\S,5.8817548277,1.9238776476,-0.4457330822\H,5.3631446212,-2.08
 7972655,0.4994530569\H,3.9258733924,-1.9644950686,1.5462740714\H,3.739
 8105189,-2.3188236686,-0.1996737459\C,5.4634810922,4.4200253967,-0.968
 0237711\O,3.0033974201,4.5169798257,-0.6895268606\C,6.4615507726,3.490
 3841963,-0.8783329379\H,5.6350184757,5.454130418,-1.2277853708\C,3.004
 6474283,5.9162794923,-1.0066908997\H,7.517793072,3.6389121648,-1.04448
 19329\H,3.3914629204,6.0844581129,-2.0147274171\H,1.9648452278,6.23098
 53784,-0.9559788288\H,3.5953990357,6.4780129421,-0.2790249714\\Version
 =ES64L-G16RevC.01\State=1-A\HF=-2359.3570854\RMSD=3.905e-09\RMSF=6.015
 e-04\Dipole=2.5047319,0.6120352,-0.6115551\Quadrupole=-3.5192895,12.79
 49713,-9.2756817,10.1038866,-6.015624,-10.2084201\PG=C01 [X(C26H18N2O6
 S2)]\\@
 The archive entry for this job was punched.


 NATURE REVEALS EVERY SECRET ONCE.
                    - RALPH WALDO EMERSON
 Job cpu time:       4 days 13 hours  1 minutes 10.0 seconds.
 Elapsed time:       0 days  6 hours 53 minutes 33.2 seconds.
 File lengths (MBytes):  RWF=    992 Int=      0 D2E=      0 Chk=     77 Scr=      1
 Normal termination of Gaussian 16 at Thu Oct 28 05:43:59 2021.
