 Entering Gaussian System, Link 0=g16
 Input=NDI_-15.gjf
 Output=NDI_-15.log
 Initial command:
 /apps/gaussian/g16-c01-avx/g16/l1.exe "/tmp/pbs.4768611[160].pbs/Gau-3077493.inp" -scrdir="/tmp/pbs.4768611[160].pbs/"
 Entering Link 1 = /apps/gaussian/g16-c01-avx/g16/l1.exe PID=   3077494.
  
 Copyright (c) 1988-2019, Gaussian, Inc.  All Rights Reserved.
  
 This is part of the Gaussian(R) 16 program.  It is based on
 the Gaussian(R) 09 system (copyright 2009, Gaussian, Inc.),
 the Gaussian(R) 03 system (copyright 2003, Gaussian, Inc.),
 the Gaussian(R) 98 system (copyright 1998, Gaussian, Inc.),
 the Gaussian(R) 94 system (copyright 1995, Gaussian, Inc.),
 the Gaussian 92(TM) system (copyright 1992, Gaussian, Inc.),
 the Gaussian 90(TM) system (copyright 1990, Gaussian, Inc.),
 the Gaussian 88(TM) system (copyright 1988, Gaussian, Inc.),
 the Gaussian 86(TM) system (copyright 1986, Carnegie Mellon
 University), and the Gaussian 82(TM) system (copyright 1983,
 Carnegie Mellon University). Gaussian is a federally registered
 trademark of Gaussian, Inc.
  
 This software contains proprietary and confidential information,
 including trade secrets, belonging to Gaussian, Inc.
  
 This software is provided under written license and may be
 used, copied, transmitted, or stored only in accord with that
 written license.
  
 The following legend is applicable only to US Government
 contracts under FAR:
  
                    RESTRICTED RIGHTS LEGEND
  
 Use, reproduction and disclosure by the US Government is
 subject to restrictions as set forth in subparagraphs (a)
 and (c) of the Commercial Computer Software - Restricted
 Rights clause in FAR 52.227-19.
  
 Gaussian, Inc.
 340 Quinnipiac St., Bldg. 40, Wallingford CT 06492
  
  
 ---------------------------------------------------------------
 Warning -- This program may not be used in any manner that
 competes with the business of Gaussian, Inc. or will provide
 assistance to any competitor of Gaussian, Inc.  The licensee
 of this program is prohibited from giving any competitor of
 Gaussian, Inc. access to this program.  By using this program,
 the user acknowledges that Gaussian, Inc. is engaged in the
 business of creating and licensing software in the field of
 computational chemistry and represents and warrants to the
 licensee that it is not a competitor of Gaussian, Inc. and that
 it will not use this program in any manner prohibited above.
 ---------------------------------------------------------------
  

 Cite this work as:
 Gaussian 16, Revision C.01,
 M. J. Frisch, G. W. Trucks, H. B. Schlegel, G. E. Scuseria, 
 M. A. Robb, J. R. Cheeseman, G. Scalmani, V. Barone, 
 G. A. Petersson, H. Nakatsuji, X. Li, M. Caricato, A. V. Marenich, 
 J. Bloino, B. G. Janesko, R. Gomperts, B. Mennucci, H. P. Hratchian, 
 J. V. Ortiz, A. F. Izmaylov, J. L. Sonnenberg, D. Williams-Young, 
 F. Ding, F. Lipparini, F. Egidi, J. Goings, B. Peng, A. Petrone, 
 T. Henderson, D. Ranasinghe, V. G. Zakrzewski, J. Gao, N. Rega, 
 G. Zheng, W. Liang, M. Hada, M. Ehara, K. Toyota, R. Fukuda, 
 J. Hasegawa, M. Ishida, T. Nakajima, Y. Honda, O. Kitao, H. Nakai, 
 T. Vreven, K. Throssell, J. A. Montgomery, Jr., J. E. Peralta, 
 F. Ogliaro, M. J. Bearpark, J. J. Heyd, E. N. Brothers, K. N. Kudin, 
 V. N. Staroverov, T. A. Keith, R. Kobayashi, J. Normand, 
 K. Raghavachari, A. P. Rendell, J. C. Burant, S. S. Iyengar, 
 J. Tomasi, M. Cossi, J. M. Millam, M. Klene, C. Adamo, R. Cammi, 
 J. W. Ochterski, R. L. Martin, K. Morokuma, O. Farkas, 
 J. B. Foresman, and D. J. Fox, Gaussian, Inc., Wallingford CT, 2019.
 
 ******************************************
 Gaussian 16:  ES64L-G16RevC.01  3-Jul-2019
                27-Oct-2021 
 ******************************************
 %mem=100GB
 %nprocshared=16
 Will use up to   16 processors via shared memory.
 ---------------------------------------------------------------
 # opt=modredundant b3lyp/6-311+g(d,p) scrf=(pcm, solvent=water)
 ---------------------------------------------------------------
 1/18=120,19=15,26=3,38=1/1,3;
 2/9=110,12=2,17=6,18=5,40=1/2;
 3/5=4,6=6,7=111,11=2,25=1,30=1,70=2201,71=1,72=1,74=-5/1,2,3;
 4//1;
 5/5=2,38=5,53=1/2;
 6/7=2,8=2,9=2,10=2,28=1/1;
 7//1,2,3,16;
 1/18=20,19=15,26=3/3(2);
 2/9=110/2;
 99//99;
 2/9=110/2;
 3/5=4,6=6,7=111,11=2,25=1,30=1,70=2205,71=1,72=1,74=-5/1,2,3;
 4/5=5,16=3,69=1/1;
 5/5=2,38=5,53=1/2;
 7//1,2,3,16;
 1/18=20,19=15,26=3/3(-5);
 2/9=110/2;
 6/7=2,8=2,9=2,10=2,19=2,28=1/1;
 99/9=1/99;
 -----------
 NDI_-15.pdb
 -----------
 Symbolic Z-matrix:
 Charge =  0 Multiplicity = 1
 C                    -2.563    -2.994    -0.409 
 C                    -2.257    -1.551    -0.224 
 C                    -3.301    -0.607    -0.083 
 C                    -4.65     -1.024    -0.115 
 C                    -4.992    -2.459    -0.304 
 C                    -0.949    -1.137    -0.215 
 C                    -2.962     0.764     0.102 
 C                    -1.595     1.188     0.123 
 C                    -0.561     0.232    -0.072 
 C                    -1.328     2.616     0.446 
 C                    -3.777     3.115     0.508 
 C                    -4.035     1.679     0.268 
 C                    -5.356     1.252     0.23 
 C                    -5.672    -0.098     0.036 
 H                    -6.699    -0.442     0.008 
 H                    -6.133     1.997     0.361 
 H                    -0.19     -1.895    -0.369 
 N                    -2.432     3.476     0.608 
 N                    -3.916    -3.353    -0.438 
 O                    -1.695    -3.847    -0.532 
 O                    -6.149    -2.85     -0.34 
 O                    -4.676     3.938     0.629 
 O                    -0.212     3.097     0.596 
 C                    -2.111     4.875     0.912 
 H                    -1.54      4.931     1.84 
 H                    -1.5       5.299     0.111 
 H                    -3.05      5.414     1.003 
 C                    -4.206    -4.779    -0.625 
 H                    -3.759    -5.126    -1.559 
 H                    -3.775    -5.355     0.196 
 H                    -5.286    -4.897    -0.649 
 C                     0.876     0.482    -0.178 
 C                     1.576     1.653    -0.393 
 S                     1.979    -0.894    -0.191 
 C                     2.962     1.458    -0.559 
 H                     1.102     2.621    -0.42 
 C                     3.373     0.125    -0.47 
 O                     3.893     2.422    -0.788 
 C                     4.711    -0.389    -0.552 
 C                     3.462     3.779    -0.731 
 C                     5.117    -1.72     -0.486 
 S                     6.125     0.642    -0.76 
 H                     4.359     4.385    -0.859 
 H                     2.753     4.005    -1.537 
 H                     2.997     4.007     0.236 
 C                     6.523    -1.908    -0.599 
 O                     4.181    -2.692    -0.322 
 C                     7.186    -0.72     -0.751 
 H                     7.017    -2.869    -0.57 
 C                     4.622    -4.045    -0.294 
 H                     8.252    -0.571    -0.861 
 H                     5.3      -4.225     0.549 
 H                     3.725    -4.651    -0.172 
 H                     5.123    -4.32     -1.23 
 
 The following ModRedundant input section has been read:
 D       8       9      32      33 F                                           
 

 GradGradGradGradGradGradGradGradGradGradGradGradGradGradGradGradGradGrad
 Berny optimization.
 Initialization pass.
                           ----------------------------
                           !    Initial Parameters    !
                           ! (Angstroms and Degrees)  !
 --------------------------                            --------------------------
 ! Name  Definition              Value          Derivative Info.                !
 --------------------------------------------------------------------------------
 ! R1    R(1,2)                  1.4866         estimate D2E/DX2                !
 ! R2    R(1,19)                 1.4001         estimate D2E/DX2                !
 ! R3    R(1,20)                 1.2232         estimate D2E/DX2                !
 ! R4    R(2,3)                  1.4146         estimate D2E/DX2                !
 ! R5    R(2,6)                  1.372          estimate D2E/DX2                !
 ! R6    R(3,4)                  1.4123         estimate D2E/DX2                !
 ! R7    R(3,7)                  1.4244         estimate D2E/DX2                !
 ! R8    R(4,5)                  1.4872         estimate D2E/DX2                !
 ! R9    R(4,14)                 1.3874         estimate D2E/DX2                !
 ! R10   R(5,19)                 1.4053         estimate D2E/DX2                !
 ! R11   R(5,21)                 1.2218         estimate D2E/DX2                !
 ! R12   R(6,9)                  1.4301         estimate D2E/DX2                !
 ! R13   R(6,17)                 1.0837         estimate D2E/DX2                !
 ! R14   R(7,8)                  1.4314         estimate D2E/DX2                !
 ! R15   R(7,12)                 1.4199         estimate D2E/DX2                !
 ! R16   R(8,9)                  1.4217         estimate D2E/DX2                !
 ! R17   R(8,10)                 1.4882         estimate D2E/DX2                !
 ! R18   R(9,32)                 1.4624         estimate D2E/DX2                !
 ! R19   R(10,18)                1.4088         estimate D2E/DX2                !
 ! R20   R(10,23)                1.2245         estimate D2E/DX2                !
 ! R21   R(11,12)                1.4786         estimate D2E/DX2                !
 ! R22   R(11,18)                1.3962         estimate D2E/DX2                !
 ! R23   R(11,22)                1.2248         estimate D2E/DX2                !
 ! R24   R(12,13)                1.3888         estimate D2E/DX2                !
 ! R25   R(13,14)                1.4            estimate D2E/DX2                !
 ! R26   R(13,16)                1.0844         estimate D2E/DX2                !
 ! R27   R(14,15)                1.0834         estimate D2E/DX2                !
 ! R28   R(18,24)                1.4672         estimate D2E/DX2                !
 ! R29   R(19,28)                1.4672         estimate D2E/DX2                !
 ! R30   R(24,25)                1.091          estimate D2E/DX2                !
 ! R31   R(24,26)                1.093          estimate D2E/DX2                !
 ! R32   R(24,27)                1.0865         estimate D2E/DX2                !
 ! R33   R(28,29)                1.0921         estimate D2E/DX2                !
 ! R34   R(28,30)                1.0916         estimate D2E/DX2                !
 ! R35   R(28,31)                1.0867         estimate D2E/DX2                !
 ! R36   R(32,33)                1.3811         estimate D2E/DX2                !
 ! R37   R(32,34)                1.7636         estimate D2E/DX2                !
 ! R38   R(33,35)                1.4095         estimate D2E/DX2                !
 ! R39   R(33,36)                1.0782         estimate D2E/DX2                !
 ! R40   R(34,37)                1.7491         estimate D2E/DX2                !
 ! R41   R(35,37)                1.3978         estimate D2E/DX2                !
 ! R42   R(35,38)                1.3596         estimate D2E/DX2                !
 ! R43   R(37,39)                1.4357         estimate D2E/DX2                !
 ! R44   R(38,40)                1.4249         estimate D2E/DX2                !
 ! R45   R(39,41)                1.3931         estimate D2E/DX2                !
 ! R46   R(39,42)                1.7623         estimate D2E/DX2                !
 ! R47   R(40,43)                1.0901         estimate D2E/DX2                !
 ! R48   R(40,44)                1.097          estimate D2E/DX2                !
 ! R49   R(40,45)                1.0969         estimate D2E/DX2                !
 ! R50   R(41,46)                1.423          estimate D2E/DX2                !
 ! R51   R(41,47)                1.3593         estimate D2E/DX2                !
 ! R52   R(42,48)                1.7265         estimate D2E/DX2                !
 ! R53   R(46,48)                1.3689         estimate D2E/DX2                !
 ! R54   R(46,49)                1.0809         estimate D2E/DX2                !
 ! R55   R(47,50)                1.4233         estimate D2E/DX2                !
 ! R56   R(48,51)                1.082          estimate D2E/DX2                !
 ! R57   R(50,52)                1.0967         estimate D2E/DX2                !
 ! R58   R(50,53)                1.0894         estimate D2E/DX2                !
 ! R59   R(50,54)                1.0967         estimate D2E/DX2                !
 ! A1    A(2,1,19)             116.767          estimate D2E/DX2                !
 ! A2    A(2,1,20)             122.9113         estimate D2E/DX2                !
 ! A3    A(19,1,20)            120.3217         estimate D2E/DX2                !
 ! A4    A(1,2,3)              120.5473         estimate D2E/DX2                !
 ! A5    A(1,2,6)              119.3369         estimate D2E/DX2                !
 ! A6    A(3,2,6)              120.1056         estimate D2E/DX2                !
 ! A7    A(2,3,4)              120.3743         estimate D2E/DX2                !
 ! A8    A(2,3,7)              118.662          estimate D2E/DX2                !
 ! A9    A(4,3,7)              120.9617         estimate D2E/DX2                !
 ! A10   A(3,4,5)              120.4909         estimate D2E/DX2                !
 ! A11   A(3,4,14)             120.2702         estimate D2E/DX2                !
 ! A12   A(5,4,14)             119.2382         estimate D2E/DX2                !
 ! A13   A(4,5,19)             116.7341         estimate D2E/DX2                !
 ! A14   A(4,5,21)             122.024          estimate D2E/DX2                !
 ! A15   A(19,5,21)            121.2418         estimate D2E/DX2                !
 ! A16   A(2,6,9)              123.2421         estimate D2E/DX2                !
 ! A17   A(2,6,17)             117.1119         estimate D2E/DX2                !
 ! A18   A(9,6,17)             119.589          estimate D2E/DX2                !
 ! A19   A(3,7,8)              120.9519         estimate D2E/DX2                !
 ! A20   A(3,7,12)             117.1037         estimate D2E/DX2                !
 ! A21   A(8,7,12)             121.944          estimate D2E/DX2                !
 ! A22   A(7,8,9)              119.5639         estimate D2E/DX2                !
 ! A23   A(7,8,10)             117.3064         estimate D2E/DX2                !
 ! A24   A(9,8,10)             122.9922         estimate D2E/DX2                !
 ! A25   A(6,9,8)              117.3944         estimate D2E/DX2                !
 ! A26   A(6,9,32)             115.0236         estimate D2E/DX2                !
 ! A27   A(8,9,32)             127.5648         estimate D2E/DX2                !
 ! A28   A(8,10,18)            118.042          estimate D2E/DX2                !
 ! A29   A(8,10,23)            124.5436         estimate D2E/DX2                !
 ! A30   A(18,10,23)           117.4097         estimate D2E/DX2                !
 ! A31   A(12,11,18)           115.5202         estimate D2E/DX2                !
 ! A32   A(12,11,22)           122.7205         estimate D2E/DX2                !
 ! A33   A(18,11,22)           121.7534         estimate D2E/DX2                !
 ! A34   A(7,12,11)            120.8614         estimate D2E/DX2                !
 ! A35   A(7,12,13)            121.162          estimate D2E/DX2                !
 ! A36   A(11,12,13)           117.9699         estimate D2E/DX2                !
 ! A37   A(12,13,14)           120.9948         estimate D2E/DX2                !
 ! A38   A(12,13,16)           117.8401         estimate D2E/DX2                !
 ! A39   A(14,13,16)           121.1642         estimate D2E/DX2                !
 ! A40   A(4,14,13)            119.5003         estimate D2E/DX2                !
 ! A41   A(4,14,15)            118.9169         estimate D2E/DX2                !
 ! A42   A(13,14,15)           121.5811         estimate D2E/DX2                !
 ! A43   A(10,18,11)           126.0753         estimate D2E/DX2                !
 ! A44   A(10,18,24)           115.7508         estimate D2E/DX2                !
 ! A45   A(11,18,24)           118.1737         estimate D2E/DX2                !
 ! A46   A(1,19,5)             125.0856         estimate D2E/DX2                !
 ! A47   A(1,19,28)            116.2868         estimate D2E/DX2                !
 ! A48   A(5,19,28)            118.6276         estimate D2E/DX2                !
 ! A49   A(18,24,25)           109.8574         estimate D2E/DX2                !
 ! A50   A(18,24,26)           109.8979         estimate D2E/DX2                !
 ! A51   A(18,24,27)           107.5355         estimate D2E/DX2                !
 ! A52   A(25,24,26)           108.1108         estimate D2E/DX2                !
 ! A53   A(25,24,27)           110.8301         estimate D2E/DX2                !
 ! A54   A(26,24,27)           110.6124         estimate D2E/DX2                !
 ! A55   A(19,28,29)           109.6906         estimate D2E/DX2                !
 ! A56   A(19,28,30)           109.8136         estimate D2E/DX2                !
 ! A57   A(19,28,31)           107.7461         estimate D2E/DX2                !
 ! A58   A(29,28,30)           108.2991         estimate D2E/DX2                !
 ! A59   A(29,28,31)           110.6959         estimate D2E/DX2                !
 ! A60   A(30,28,31)           110.5924         estimate D2E/DX2                !
 ! A61   A(9,32,33)            130.8628         estimate D2E/DX2                !
 ! A62   A(9,32,34)            118.7975         estimate D2E/DX2                !
 ! A63   A(33,32,34)           110.0839         estimate D2E/DX2                !
 ! A64   A(32,33,35)           113.5428         estimate D2E/DX2                !
 ! A65   A(32,33,36)           122.8411         estimate D2E/DX2                !
 ! A66   A(35,33,36)           123.6134         estimate D2E/DX2                !
 ! A67   A(32,34,37)            92.5839         estimate D2E/DX2                !
 ! A68   A(33,35,37)           114.4305         estimate D2E/DX2                !
 ! A69   A(33,35,38)           126.5203         estimate D2E/DX2                !
 ! A70   A(37,35,38)           119.0492         estimate D2E/DX2                !
 ! A71   A(34,37,35)           109.3537         estimate D2E/DX2                !
 ! A72   A(34,37,39)           122.9075         estimate D2E/DX2                !
 ! A73   A(35,37,39)           127.7221         estimate D2E/DX2                !
 ! A74   A(35,38,40)           117.4756         estimate D2E/DX2                !
 ! A75   A(37,39,41)           127.6589         estimate D2E/DX2                !
 ! A76   A(37,39,42)           123.0293         estimate D2E/DX2                !
 ! A77   A(41,39,42)           109.3118         estimate D2E/DX2                !
 ! A78   A(38,40,43)           106.0115         estimate D2E/DX2                !
 ! A79   A(38,40,44)           111.2411         estimate D2E/DX2                !
 ! A80   A(38,40,45)           111.1874         estimate D2E/DX2                !
 ! A81   A(43,40,44)           109.3317         estimate D2E/DX2                !
 ! A82   A(43,40,45)           109.6814         estimate D2E/DX2                !
 ! A83   A(44,40,45)           109.3235         estimate D2E/DX2                !
 ! A84   A(39,41,46)           114.2308         estimate D2E/DX2                !
 ! A85   A(39,41,47)           119.2237         estimate D2E/DX2                !
 ! A86   A(46,41,47)           126.5452         estimate D2E/DX2                !
 ! A87   A(39,42,48)            91.7734         estimate D2E/DX2                !
 ! A88   A(41,46,48)           111.8817         estimate D2E/DX2                !
 ! A89   A(41,46,49)           124.533          estimate D2E/DX2                !
 ! A90   A(48,46,49)           123.5853         estimate D2E/DX2                !
 ! A91   A(41,47,50)           117.9534         estimate D2E/DX2                !
 ! A92   A(42,48,46)           112.8023         estimate D2E/DX2                !
 ! A93   A(42,48,51)           119.7553         estimate D2E/DX2                !
 ! A94   A(46,48,51)           127.4424         estimate D2E/DX2                !
 ! A95   A(47,50,52)           111.2654         estimate D2E/DX2                !
 ! A96   A(47,50,53)           106.0143         estimate D2E/DX2                !
 ! A97   A(47,50,54)           111.2918         estimate D2E/DX2                !
 ! A98   A(52,50,53)           109.3698         estimate D2E/DX2                !
 ! A99   A(52,50,54)           109.4187         estimate D2E/DX2                !
 ! A100  A(53,50,54)           109.4054         estimate D2E/DX2                !
 ! D1    D(19,1,2,3)             0.1578         estimate D2E/DX2                !
 ! D2    D(19,1,2,6)          -178.6792         estimate D2E/DX2                !
 ! D3    D(20,1,2,3)          -179.8231         estimate D2E/DX2                !
 ! D4    D(20,1,2,6)             1.3399         estimate D2E/DX2                !
 ! D5    D(2,1,19,5)            -0.124          estimate D2E/DX2                !
 ! D6    D(2,1,19,28)          179.8267         estimate D2E/DX2                !
 ! D7    D(20,1,19,5)          179.8575         estimate D2E/DX2                !
 ! D8    D(20,1,19,28)          -0.1919         estimate D2E/DX2                !
 ! D9    D(1,2,3,4)              0.0571         estimate D2E/DX2                !
 ! D10   D(1,2,3,7)            179.5453         estimate D2E/DX2                !
 ! D11   D(6,2,3,4)            178.8851         estimate D2E/DX2                !
 ! D12   D(6,2,3,7)             -1.6266         estimate D2E/DX2                !
 ! D13   D(1,2,6,9)            178.625          estimate D2E/DX2                !
 ! D14   D(1,2,6,17)             1.3881         estimate D2E/DX2                !
 ! D15   D(3,2,6,9)             -0.2173         estimate D2E/DX2                !
 ! D16   D(3,2,6,17)          -177.4541         estimate D2E/DX2                !
 ! D17   D(2,3,4,5)             -0.3074         estimate D2E/DX2                !
 ! D18   D(2,3,4,14)           179.3968         estimate D2E/DX2                !
 ! D19   D(7,3,4,5)           -179.7837         estimate D2E/DX2                !
 ! D20   D(7,3,4,14)            -0.0795         estimate D2E/DX2                !
 ! D21   D(2,3,7,8)              1.0523         estimate D2E/DX2                !
 ! D22   D(2,3,7,12)          -178.712          estimate D2E/DX2                !
 ! D23   D(4,3,7,8)           -179.4626         estimate D2E/DX2                !
 ! D24   D(4,3,7,12)             0.7731         estimate D2E/DX2                !
 ! D25   D(3,4,5,19)             0.3343         estimate D2E/DX2                !
 ! D26   D(3,4,5,21)          -179.7799         estimate D2E/DX2                !
 ! D27   D(14,4,5,19)         -179.3729         estimate D2E/DX2                !
 ! D28   D(14,4,5,21)            0.5129         estimate D2E/DX2                !
 ! D29   D(3,4,14,13)           -0.4559         estimate D2E/DX2                !
 ! D30   D(3,4,14,15)         -179.9937         estimate D2E/DX2                !
 ! D31   D(5,4,14,13)          179.252          estimate D2E/DX2                !
 ! D32   D(5,4,14,15)           -0.2858         estimate D2E/DX2                !
 ! D33   D(4,5,19,1)            -0.1141         estimate D2E/DX2                !
 ! D34   D(4,5,19,28)          179.9364         estimate D2E/DX2                !
 ! D35   D(21,5,19,1)          179.9992         estimate D2E/DX2                !
 ! D36   D(21,5,19,28)           0.0496         estimate D2E/DX2                !
 ! D37   D(2,6,9,8)              2.5984         estimate D2E/DX2                !
 ! D38   D(2,6,9,32)          -176.0103         estimate D2E/DX2                !
 ! D39   D(17,6,9,8)           179.77           estimate D2E/DX2                !
 ! D40   D(17,6,9,32)            1.1613         estimate D2E/DX2                !
 ! D41   D(3,7,8,9)              1.3551         estimate D2E/DX2                !
 ! D42   D(3,7,8,10)          -174.5099         estimate D2E/DX2                !
 ! D43   D(12,7,8,9)          -178.8921         estimate D2E/DX2                !
 ! D44   D(12,7,8,10)            5.2428         estimate D2E/DX2                !
 ! D45   D(3,7,12,11)          178.0768         estimate D2E/DX2                !
 ! D46   D(3,7,12,13)           -0.9621         estimate D2E/DX2                !
 ! D47   D(8,7,12,11)           -1.685          estimate D2E/DX2                !
 ! D48   D(8,7,12,13)          179.2761         estimate D2E/DX2                !
 ! D49   D(7,8,9,6)             -3.0809         estimate D2E/DX2                !
 ! D50   D(7,8,9,32)           175.3285         estimate D2E/DX2                !
 ! D51   D(10,8,9,6)           172.5381         estimate D2E/DX2                !
 ! D52   D(10,8,9,32)           -9.0525         estimate D2E/DX2                !
 ! D53   D(7,8,10,18)           -4.7549         estimate D2E/DX2                !
 ! D54   D(7,8,10,23)          174.4235         estimate D2E/DX2                !
 ! D55   D(9,8,10,18)          179.5335         estimate D2E/DX2                !
 ! D56   D(9,8,10,23)           -1.2882         estimate D2E/DX2                !
 ! D57   D(6,9,32,33)          163.4366         estimate D2E/DX2                !
 ! D58   D(6,9,32,34)          -10.1182         estimate D2E/DX2                !
 ! D59   D(8,9,32,33)          -15.005          Frozen                          !
 ! D60   D(8,9,32,34)          171.4403         estimate D2E/DX2                !
 ! D61   D(8,10,18,11)           0.7189         estimate D2E/DX2                !
 ! D62   D(8,10,18,24)        -179.4089         estimate D2E/DX2                !
 ! D63   D(23,10,18,11)       -178.5188         estimate D2E/DX2                !
 ! D64   D(23,10,18,24)          1.3535         estimate D2E/DX2                !
 ! D65   D(18,11,12,7)          -2.3856         estimate D2E/DX2                !
 ! D66   D(18,11,12,13)        176.6833         estimate D2E/DX2                !
 ! D67   D(22,11,12,7)         178.4862         estimate D2E/DX2                !
 ! D68   D(22,11,12,13)         -2.445          estimate D2E/DX2                !
 ! D69   D(12,11,18,10)          2.8444         estimate D2E/DX2                !
 ! D70   D(12,11,18,24)       -177.0251         estimate D2E/DX2                !
 ! D71   D(22,11,18,10)       -178.0181         estimate D2E/DX2                !
 ! D72   D(22,11,18,24)          2.1124         estimate D2E/DX2                !
 ! D73   D(7,12,13,14)           0.461          estimate D2E/DX2                !
 ! D74   D(7,12,13,16)        -179.8781         estimate D2E/DX2                !
 ! D75   D(11,12,13,14)       -178.6049         estimate D2E/DX2                !
 ! D76   D(11,12,13,16)          1.056          estimate D2E/DX2                !
 ! D77   D(12,13,14,4)           0.2708         estimate D2E/DX2                !
 ! D78   D(12,13,14,15)        179.7958         estimate D2E/DX2                !
 ! D79   D(16,13,14,4)        -179.3788         estimate D2E/DX2                !
 ! D80   D(16,13,14,15)          0.1463         estimate D2E/DX2                !
 ! D81   D(10,18,24,25)        -59.609          estimate D2E/DX2                !
 ! D82   D(10,18,24,26)         59.2209         estimate D2E/DX2                !
 ! D83   D(10,18,24,27)        179.6858         estimate D2E/DX2                !
 ! D84   D(11,18,24,25)        120.2739         estimate D2E/DX2                !
 ! D85   D(11,18,24,26)       -120.8962         estimate D2E/DX2                !
 ! D86   D(11,18,24,27)         -0.4313         estimate D2E/DX2                !
 ! D87   D(1,19,28,29)         -58.1407         estimate D2E/DX2                !
 ! D88   D(1,19,28,30)          60.7668         estimate D2E/DX2                !
 ! D89   D(1,19,28,31)        -178.7139         estimate D2E/DX2                !
 ! D90   D(5,19,28,29)         121.8132         estimate D2E/DX2                !
 ! D91   D(5,19,28,30)        -119.2792         estimate D2E/DX2                !
 ! D92   D(5,19,28,31)           1.2401         estimate D2E/DX2                !
 ! D93   D(9,32,33,35)        -174.2275         estimate D2E/DX2                !
 ! D94   D(9,32,33,36)           6.3557         estimate D2E/DX2                !
 ! D95   D(34,32,33,35)         -0.2397         estimate D2E/DX2                !
 ! D96   D(34,32,33,36)       -179.6565         estimate D2E/DX2                !
 ! D97   D(9,32,34,37)         175.3429         estimate D2E/DX2                !
 ! D98   D(33,32,34,37)          0.529          estimate D2E/DX2                !
 ! D99   D(32,33,35,37)         -0.2874         estimate D2E/DX2                !
 ! D100  D(32,33,35,38)        179.7745         estimate D2E/DX2                !
 ! D101  D(36,33,35,37)        179.1242         estimate D2E/DX2                !
 ! D102  D(36,33,35,38)         -0.8139         estimate D2E/DX2                !
 ! D103  D(32,34,37,35)         -0.6756         estimate D2E/DX2                !
 ! D104  D(32,34,37,39)        177.9468         estimate D2E/DX2                !
 ! D105  D(33,35,37,34)          0.6731         estimate D2E/DX2                !
 ! D106  D(33,35,37,39)       -177.8647         estimate D2E/DX2                !
 ! D107  D(38,35,37,34)       -179.3838         estimate D2E/DX2                !
 ! D108  D(38,35,37,39)          2.0783         estimate D2E/DX2                !
 ! D109  D(33,35,38,40)          6.4667         estimate D2E/DX2                !
 ! D110  D(37,35,38,40)       -173.4688         estimate D2E/DX2                !
 ! D111  D(34,37,39,41)          2.8423         estimate D2E/DX2                !
 ! D112  D(34,37,39,42)       -177.1418         estimate D2E/DX2                !
 ! D113  D(35,37,39,41)       -178.8009         estimate D2E/DX2                !
 ! D114  D(35,37,39,42)          1.2149         estimate D2E/DX2                !
 ! D115  D(35,38,40,43)        175.5161         estimate D2E/DX2                !
 ! D116  D(35,38,40,44)        -65.7304         estimate D2E/DX2                !
 ! D117  D(35,38,40,45)         56.3715         estimate D2E/DX2                !
 ! D118  D(37,39,41,46)       -179.9824         estimate D2E/DX2                !
 ! D119  D(37,39,41,47)         -0.1749         estimate D2E/DX2                !
 ! D120  D(42,39,41,46)          0.0035         estimate D2E/DX2                !
 ! D121  D(42,39,41,47)        179.811          estimate D2E/DX2                !
 ! D122  D(37,39,42,48)        179.985          estimate D2E/DX2                !
 ! D123  D(41,39,42,48)         -0.0017         estimate D2E/DX2                !
 ! D124  D(39,41,46,48)         -0.004          estimate D2E/DX2                !
 ! D125  D(39,41,46,49)       -179.9722         estimate D2E/DX2                !
 ! D126  D(47,41,46,48)       -179.7948         estimate D2E/DX2                !
 ! D127  D(47,41,46,49)          0.237          estimate D2E/DX2                !
 ! D128  D(39,41,47,50)        178.3517         estimate D2E/DX2                !
 ! D129  D(46,41,47,50)         -1.8668         estimate D2E/DX2                !
 ! D130  D(39,42,48,46)         -0.0005         estimate D2E/DX2                !
 ! D131  D(39,42,48,51)        179.8938         estimate D2E/DX2                !
 ! D132  D(41,46,48,42)          0.0026         estimate D2E/DX2                !
 ! D133  D(41,46,48,51)       -179.8819         estimate D2E/DX2                !
 ! D134  D(49,46,48,42)        179.9711         estimate D2E/DX2                !
 ! D135  D(49,46,48,51)          0.0867         estimate D2E/DX2                !
 ! D136  D(41,47,50,52)         62.0677         estimate D2E/DX2                !
 ! D137  D(41,47,50,53)       -179.1183         estimate D2E/DX2                !
 ! D138  D(41,47,50,54)        -60.2471         estimate D2E/DX2                !
 --------------------------------------------------------------------------------
 Trust Radius=3.00D-01 FncErr=1.00D-07 GrdErr=1.00D-06 EigMax=2.50D+02 EigMin=1.00D-04
 Number of steps in this run=    307 maximum allowed number of steps=    324.
 GradGradGradGradGradGradGradGradGradGradGradGradGradGradGradGradGradGrad

 Stoichiometry    C26H18N2O6S2
 Framework group  C1[X(C26H18N2O6S2)]
 Deg. of freedom   156
 Full point group                 C1      NOp   1
 Largest Abelian subgroup         C1      NOp   1
 Largest concise Abelian subgroup C1      NOp   1
                         Standard orientation:                         
 ---------------------------------------------------------------------
 Center     Atomic      Atomic             Coordinates (Angstroms)
 Number     Number       Type             X           Y           Z
 ---------------------------------------------------------------------
      1          6           0       -2.485903   -3.035795   -0.089348
      2          6           0       -2.215274   -1.575312   -0.027212
      3          6           0       -3.280932   -0.645257   -0.045213
      4          6           0       -4.618288   -1.092908   -0.121377
      5          6           0       -4.924702   -2.546605   -0.190538
      6          6           0       -0.917286   -1.133765    0.023815
      7          6           0       -2.976245    0.744303    0.026036
      8          6           0       -1.620325    1.198253    0.091726
      9          6           0       -0.560950    0.250829    0.056635
     10          6           0       -1.397332    2.656262    0.289931
     11          6           0       -3.852730    3.105042    0.148286
     12          6           0       -4.072005    1.647274    0.033867
     13          6           0       -5.380878    1.189709   -0.045513
     14          6           0       -5.662361   -0.179317   -0.126301
     15          1           0       -6.679844   -0.546872   -0.185307
     16          1           0       -6.176355    1.926636   -0.037170
     17          1           0       -0.138070   -1.886242   -0.007238
     18          7           0       -2.522899    3.503437    0.297204
     19          7           0       -3.828356   -3.425528   -0.168448
     20          8           0       -1.598450   -3.877423   -0.073457
     21          8           0       -6.070637   -2.964555   -0.261101
     22          8           0       -4.770512    3.915944    0.131383
     23          8           0       -0.301121    3.173865    0.462346
     24          6           0       -2.244338    4.931942    0.482777
     25          1           0       -1.735738    5.089700    1.435037
     26          1           0       -1.589365    5.290022   -0.315652
     27          1           0       -3.195619    5.456465    0.461287
     28          6           0       -4.083158   -4.868936   -0.233221
     29          1           0       -3.571068   -5.294501   -1.098803
     30          1           0       -3.697367   -5.353471    0.665650
     31          1           0       -5.157334   -5.012376   -0.313667
     32          6           0        0.875793    0.520921    0.017594
     33          6           0        1.569784    1.680807   -0.266140
     34         16           0        1.998799   -0.825376    0.208636
     35          6           0        2.966530    1.501175   -0.324536
     36          1           0        1.083383    2.631053   -0.417388
     37          6           0        3.391784    0.192316   -0.080040
     38          8           0        3.895168    2.458796   -0.587389
     39          6           0        4.740197   -0.297705   -0.026882
     40          6           0        3.440103    3.805180   -0.690480
     41          6           0        5.161923   -1.606902    0.194259
     42         16           0        6.148339    0.739215   -0.244949
     43          1           0        4.333886    4.415551   -0.820202
     44          1           0        2.781460    3.936776   -1.557812
     45          1           0        2.909782    4.115116    0.218363
     46          6           0        6.575074   -1.774018    0.189082
     47          8           0        4.232642   -2.578863    0.393018
     48          6           0        7.227790   -0.591951   -0.036073
     49          1           0        7.081190   -2.716666    0.342895
     50          6           0        4.692103   -3.912848    0.580774
     51          1           0        8.296209   -0.430893   -0.092629
     52          1           0        5.316691   -3.995782    1.478407
     53          1           0        3.798710   -4.523799    0.704537
     54          1           0        5.257071   -4.265775   -0.290419
 ---------------------------------------------------------------------
 Rotational constants (GHZ):           0.1526983           0.0604496           0.0436572
 Standard basis: 6-311+G(d,p) (5D, 7F)
 There are   952 symmetry adapted cartesian basis functions of A   symmetry.
 There are   916 symmetry adapted basis functions of A   symmetry.
   916 basis functions,  1468 primitive gaussians,   952 cartesian basis functions
   134 alpha electrons      134 beta electrons
       nuclear repulsion energy      4090.4014633515 Hartrees.
 NAtoms=   54 NActive=   54 NUniq=   54 SFac= 1.00D+00 NAtFMM=   60 NAOKFM=F Big=F
 Integral buffers will be    131072 words long.
 Raffenetti 2 integral format.
 Two-electron integral symmetry is turned on.
 ------------------------------------------------------------------------------
 Polarizable Continuum Model (PCM)
 =================================
 Model                : PCM.
 Atomic radii         : UFF (Universal Force Field).
 Polarization charges : Total charges.
 Charge compensation  : None.
 Solution method      : On-the-fly selection.
 Cavity type          : Scaled VdW (van der Waals Surface) (Alpha=1.100).
 Cavity algorithm     : GePol (No added spheres)
                        Default sphere list used, NSphG=   54.
                        Lebedev-Laikov grids with approx.  5.0 points / Ang**2.
                        Smoothing algorithm: York/Karplus (Gamma=1.0000).
                        Polarization charges: spherical gaussians, with
                                              point-specific exponents (IZeta= 3).
                        Self-potential: point-specific (ISelfS= 7).
                        Self-field    : sphere-specific E.n sum rule (ISelfD= 2).
 1st derivatives      : Analytical E(r).r(x)/FMM algorithm (CHGder, D1EAlg=3).
                        Cavity 1st derivative terms included.
 Solvent              : Water, Eps=  78.355300 Eps(inf)=   1.777849
 ------------------------------------------------------------------------------
 One-electron integrals computed using PRISM.
 NBasis=   916 RedAO= T EigKep=  1.44D-06  NBF=   916
 NBsUse=   901 1.00D-06 EigRej=  8.07D-07 NBFU=   901
 ExpMin= 4.05D-02 ExpMax= 9.34D+04 ExpMxC= 3.17D+03 IAcc=3 IRadAn=         5 AccDes= 0.00D+00
 Harris functional with IExCor=  402 and IRadAn=       5 diagonalized for initial guess.
 HarFok:  IExCor=  402 AccDes= 0.00D+00 IRadAn=         5 IDoV= 1 UseB2=F ITyADJ=14
 ICtDFT=  3500011 ScaDFX=  1.000000  1.000000  1.000000  1.000000
 FoFCou: FMM=F IPFlag=           0 FMFlag=      100000 FMFlg1=           0
         NFxFlg=           0 DoJE=T BraDBF=F KetDBF=T FulRan=T
         wScrn=  0.000000 ICntrl=       500 IOpCl=  0 I1Cent=   200000004 NGrid=           0
         NMat0=    1 NMatS0=      1 NMatT0=    0 NMatD0=    1 NMtDS0=    0 NMtDT0=    0
 Petite list used in FoFCou.
 Requested convergence on RMS density matrix=1.00D-08 within 128 cycles.
 Requested convergence on MAX density matrix=1.00D-06.
 Requested convergence on             energy=1.00D-06.
 No special actions if energy rises.
 Inv3:  Mode=1 IEnd=    52869612.
 Iteration    1 A*A^-1 deviation from unit magnitude is 6.99D-15 for   4186.
 Iteration    1 A*A^-1 deviation from orthogonality  is 4.96D-15 for   4190   3276.
 Iteration    1 A^-1*A deviation from unit magnitude is 6.66D-15 for   4186.
 Iteration    1 A^-1*A deviation from orthogonality  is 2.49D-15 for   3957   3445.
 Error on total polarization charges =  0.02316
 SCF Done:  E(RB3LYP) =  -2359.34923513     A.U. after   17 cycles
            NFock= 17  Conv=0.21D-08     -V/T= 2.0032

 **********************************************************************

            Population analysis using the SCF Density.

 **********************************************************************

 Orbital symmetries:
       Occupied  (A) (A) (A) (A) (A) (A) (A) (A) (A) (A) (A) (A)
                 (A) (A) (A) (A) (A) (A) (A) (A) (A) (A) (A) (A)
                 (A) (A) (A) (A) (A) (A) (A) (A) (A) (A) (A) (A)
                 (A) (A) (A) (A) (A) (A) (A) (A) (A) (A) (A) (A)
                 (A) (A) (A) (A) (A) (A) (A) (A) (A) (A) (A) (A)
                 (A) (A) (A) (A) (A) (A) (A) (A) (A) (A) (A) (A)
                 (A) (A) (A) (A) (A) (A) (A) (A) (A) (A) (A) (A)
                 (A) (A) (A) (A) (A) (A) (A) (A) (A) (A) (A) (A)
                 (A) (A) (A) (A) (A) (A) (A) (A) (A) (A) (A) (A)
                 (A) (A) (A) (A) (A) (A) (A) (A) (A) (A) (A) (A)
                 (A) (A) (A) (A) (A) (A) (A) (A) (A) (A) (A) (A)
                 (A) (A)
       Virtual   (A) (A) (A) (A) (A) (A) (A) (A) (A) (A) (A) (A)
                 (A) (A) (A) (A) (A) (A) (A) (A) (A) (A) (A) (A)
                 (A) (A) (A) (A) (A) (A) (A) (A) (A) (A) (A) (A)
                 (A) (A) (A) (A) (A) (A) (A) (A) (A) (A) (A) (A)
                 (A) (A) (A) (A) (A) (A) (A) (A) (A) (A) (A) (A)
                 (A) (A) (A) (A) (A) (A) (A) (A) (A) (A) (A) (A)
                 (A) (A) (A) (A) (A) (A) (A) (A) (A) (A) (A) (A)
                 (A) (A) (A) (A) (A) (A) (A) (A) (A) (A) (A) (A)
                 (A) (A) (A) (A) (A) (A) (A) (A) (A) (A) (A) (A)
                 (A) (A) (A) (A) (A) (A) (A) (A) (A) (A) (A) (A)
                 (A) (A) (A) (A) (A) (A) (A) (A) (A) (A) (A) (A)
                 (A) (A) (A) (A) (A) (A) (A) (A) (A) (A) (A) (A)
                 (A) (A) (A) (A) (A) (A) (A) (A) (A) (A) (A) (A)
                 (A) (A) (A) (A) (A) (A) (A) (A) (A) (A) (A) (A)
                 (A) (A) (A) (A) (A) (A) (A) (A) (A) (A) (A) (A)
                 (A) (A) (A) (A) (A) (A) (A) (A) (A) (A) (A) (A)
                 (A) (A) (A) (A) (A) (A) (A) (A) (A) (A) (A) (A)
                 (A) (A) (A) (A) (A) (A) (A) (A) (A) (A) (A) (A)
                 (A) (A) (A) (A) (A) (A) (A) (A) (A) (A) (A) (A)
                 (A) (A) (A) (A) (A) (A) (A) (A) (A) (A) (A) (A)
                 (A) (A) (A) (A) (A) (A) (A) (A) (A) (A) (A) (A)
                 (A) (A) (A) (A) (A) (A) (A) (A) (A) (A) (A) (A)
                 (A) (A) (A) (A) (A) (A) (A) (A) (A) (A) (A) (A)
                 (A) (A) (A) (A) (A) (A) (A) (A) (A) (A) (A) (A)
                 (A) (A) (A) (A) (A) (A) (A) (A) (A) (A) (A) (A)
                 (A) (A) (A) (A) (A) (A) (A) (A) (A) (A) (A) (A)
                 (A) (A) (A) (A) (A) (A) (A) (A) (A) (A) (A) (A)
                 (A) (A) (A) (A) (A) (A) (A) (A) (A) (A) (A) (A)
                 (A) (A) (A) (A) (A) (A) (A) (A) (A) (A) (A) (A)
                 (A) (A) (A) (A) (A) (A) (A) (A) (A) (A) (A) (A)
                 (A) (A) (A) (A) (A) (A) (A) (A) (A) (A) (A) (A)
                 (A) (A) (A) (A) (A) (A) (A) (A) (A) (A) (A) (A)
                 (A) (A) (A) (A) (A) (A) (A) (A) (A) (A) (A) (A)
                 (A) (A) (A) (A) (A) (A) (A) (A) (A) (A) (A) (A)
                 (A) (A) (A) (A) (A) (A) (A) (A) (A) (A) (A) (A)
                 (A) (A) (A) (A) (A) (A) (A) (A) (A) (A) (A) (A)
                 (A) (A) (A) (A) (A) (A) (A) (A) (A) (A) (A) (A)
                 (A) (A) (A) (A) (A) (A) (A) (A) (A) (A) (A) (A)
                 (A) (A) (A) (A) (A) (A) (A) (A) (A) (A) (A) (A)
                 (A) (A) (A) (A) (A) (A) (A) (A) (A) (A) (A) (A)
                 (A) (A) (A) (A) (A) (A) (A) (A) (A) (A) (A) (A)
                 (A) (A) (A) (A) (A) (A) (A) (A) (A) (A) (A) (A)
                 (A) (A) (A) (A) (A) (A) (A) (A) (A) (A) (A) (A)
                 (A) (A) (A) (A) (A) (A) (A) (A) (A) (A) (A) (A)
                 (A) (A) (A) (A) (A) (A) (A) (A) (A) (A) (A) (A)
                 (A) (A) (A) (A) (A) (A) (A) (A) (A) (A) (A) (A)
                 (A) (A) (A) (A) (A) (A) (A) (A) (A) (A) (A) (A)
                 (A) (A) (A) (A) (A) (A) (A) (A) (A) (A) (A) (A)
                 (A) (A) (A) (A) (A) (A) (A) (A) (A) (A) (A) (A)
                 (A) (A) (A) (A) (A) (A) (A) (A) (A) (A) (A) (A)
                 (A) (A) (A) (A) (A) (A) (A) (A) (A) (A) (A) (A)
                 (A) (A) (A) (A) (A) (A) (A) (A) (A) (A) (A) (A)
                 (A) (A) (A) (A) (A) (A) (A) (A) (A) (A) (A) (A)
                 (A) (A) (A) (A) (A) (A) (A) (A) (A) (A) (A) (A)
                 (A) (A) (A) (A) (A) (A) (A) (A) (A) (A) (A) (A)
                 (A) (A) (A) (A) (A) (A) (A) (A) (A) (A) (A) (A)
                 (A) (A) (A) (A) (A) (A) (A) (A) (A) (A) (A) (A)
                 (A) (A) (A) (A) (A) (A) (A) (A) (A) (A) (A) (A)
                 (A) (A) (A) (A) (A) (A) (A) (A) (A) (A) (A) (A)
                 (A) (A) (A) (A) (A) (A) (A) (A) (A) (A) (A) (A)
                 (A) (A) (A) (A) (A) (A) (A) (A) (A) (A) (A) (A)
                 (A) (A) (A) (A) (A) (A) (A) (A) (A) (A) (A) (A)
                 (A) (A) (A) (A) (A) (A) (A) (A) (A) (A) (A) (A)
                 (A) (A) (A) (A) (A) (A) (A) (A) (A) (A) (A)
 The electronic state is 1-A.
 Alpha  occ. eigenvalues --  -88.88893 -88.88854 -19.17389 -19.17044 -19.12985
 Alpha  occ. eigenvalues --  -19.12982 -19.12230 -19.12127 -14.38882 -14.38376
 Alpha  occ. eigenvalues --  -10.31533 -10.31419 -10.31111 -10.30751 -10.25380
 Alpha  occ. eigenvalues --  -10.24872 -10.24120 -10.23221 -10.22922 -10.22841
 Alpha  occ. eigenvalues --  -10.22773 -10.22567 -10.22517 -10.22366 -10.22281
 Alpha  occ. eigenvalues --  -10.22246 -10.22157 -10.21823 -10.21634 -10.21358
 Alpha  occ. eigenvalues --  -10.20900 -10.20898 -10.20786 -10.20590 -10.19089
 Alpha  occ. eigenvalues --  -10.18322  -7.97481  -7.97407  -5.93801  -5.93716
 Alpha  occ. eigenvalues --   -5.93410  -5.93329  -5.93018  -5.92976  -1.08911
 Alpha  occ. eigenvalues --   -1.08856  -1.08617  -1.08540  -1.07144  -1.06696
 Alpha  occ. eigenvalues --   -0.96458  -0.95911  -0.92245  -0.90713  -0.89073
 Alpha  occ. eigenvalues --   -0.86565  -0.84086  -0.80560  -0.78405  -0.77849
 Alpha  occ. eigenvalues --   -0.76423  -0.75390  -0.75111  -0.73421  -0.72322
 Alpha  occ. eigenvalues --   -0.71819  -0.70179  -0.68848  -0.67369  -0.65745
 Alpha  occ. eigenvalues --   -0.65638  -0.64775  -0.61345  -0.59937  -0.58687
 Alpha  occ. eigenvalues --   -0.57361  -0.56756  -0.56345  -0.55406  -0.55010
 Alpha  occ. eigenvalues --   -0.53380  -0.51746  -0.51020  -0.50108  -0.49853
 Alpha  occ. eigenvalues --   -0.49524  -0.49061  -0.48521  -0.48413  -0.48084
 Alpha  occ. eigenvalues --   -0.47970  -0.47641  -0.46821  -0.46482  -0.46116
 Alpha  occ. eigenvalues --   -0.45434  -0.45396  -0.44613  -0.44047  -0.43156
 Alpha  occ. eigenvalues --   -0.43019  -0.42932  -0.42333  -0.42186  -0.41807
 Alpha  occ. eigenvalues --   -0.41666  -0.41178  -0.41110  -0.40578  -0.39987
 Alpha  occ. eigenvalues --   -0.39593  -0.39198  -0.38720  -0.37888  -0.37344
 Alpha  occ. eigenvalues --   -0.36411  -0.36250  -0.34445  -0.34173  -0.33651
 Alpha  occ. eigenvalues --   -0.33590  -0.32138  -0.31465  -0.30791  -0.30228
 Alpha  occ. eigenvalues --   -0.29674  -0.29387  -0.29015  -0.28377  -0.27383
 Alpha  occ. eigenvalues --   -0.26331  -0.25084  -0.25060  -0.19897
 Alpha virt. eigenvalues --   -0.13182  -0.08089  -0.06669  -0.04860  -0.03567
 Alpha virt. eigenvalues --   -0.00639  -0.00519   0.00163   0.00327   0.00518
 Alpha virt. eigenvalues --    0.00797   0.01188   0.01487   0.01569   0.01986
 Alpha virt. eigenvalues --    0.02174   0.02723   0.02816   0.02935   0.03379
 Alpha virt. eigenvalues --    0.03593   0.03850   0.03970   0.04330   0.04582
 Alpha virt. eigenvalues --    0.04801   0.04945   0.05375   0.05621   0.05978
 Alpha virt. eigenvalues --    0.06194   0.06275   0.06682   0.07014   0.07301
 Alpha virt. eigenvalues --    0.07395   0.07739   0.07843   0.07872   0.08341
 Alpha virt. eigenvalues --    0.08543   0.08577   0.08891   0.09315   0.09629
 Alpha virt. eigenvalues --    0.09787   0.09874   0.10121   0.10437   0.10768
 Alpha virt. eigenvalues --    0.11100   0.11365   0.11488   0.11909   0.12141
 Alpha virt. eigenvalues --    0.12437   0.12777   0.13158   0.13490   0.13541
 Alpha virt. eigenvalues --    0.13634   0.13770   0.13951   0.14217   0.14333
 Alpha virt. eigenvalues --    0.14616   0.14965   0.15259   0.15363   0.15465
 Alpha virt. eigenvalues --    0.15684   0.15810   0.15929   0.16307   0.16534
 Alpha virt. eigenvalues --    0.16718   0.17015   0.17315   0.17555   0.17860
 Alpha virt. eigenvalues --    0.17952   0.18161   0.18384   0.18593   0.18646
 Alpha virt. eigenvalues --    0.18893   0.19071   0.19499   0.19534   0.19857
 Alpha virt. eigenvalues --    0.20020   0.20152   0.20241   0.20314   0.20498
 Alpha virt. eigenvalues --    0.20667   0.20859   0.21253   0.21547   0.21641
 Alpha virt. eigenvalues --    0.21891   0.22036   0.22089   0.22663   0.22684
 Alpha virt. eigenvalues --    0.22776   0.23127   0.23169   0.23582   0.23605
 Alpha virt. eigenvalues --    0.23764   0.23979   0.24294   0.24406   0.24479
 Alpha virt. eigenvalues --    0.24697   0.24786   0.24925   0.25348   0.25443
 Alpha virt. eigenvalues --    0.25638   0.25881   0.25970   0.26233   0.26448
 Alpha virt. eigenvalues --    0.26533   0.26721   0.27032   0.27134   0.27268
 Alpha virt. eigenvalues --    0.27471   0.27615   0.27808   0.28433   0.28501
 Alpha virt. eigenvalues --    0.28637   0.28781   0.28872   0.28928   0.29265
 Alpha virt. eigenvalues --    0.29414   0.29686   0.30086   0.30289   0.30372
 Alpha virt. eigenvalues --    0.31144   0.31306   0.31550   0.31842   0.32111
 Alpha virt. eigenvalues --    0.32256   0.32454   0.32736   0.32984   0.33412
 Alpha virt. eigenvalues --    0.33710   0.34017   0.34239   0.34275   0.34668
 Alpha virt. eigenvalues --    0.34857   0.35090   0.35264   0.35829   0.36087
 Alpha virt. eigenvalues --    0.36882   0.37092   0.37271   0.37609   0.37659
 Alpha virt. eigenvalues --    0.38160   0.38535   0.38833   0.39389   0.39643
 Alpha virt. eigenvalues --    0.40308   0.40544   0.40951   0.41306   0.41848
 Alpha virt. eigenvalues --    0.42421   0.42764   0.42979   0.43531   0.43655
 Alpha virt. eigenvalues --    0.43922   0.43999   0.44812   0.44934   0.45755
 Alpha virt. eigenvalues --    0.45794   0.46348   0.46682   0.46964   0.47071
 Alpha virt. eigenvalues --    0.47541   0.47958   0.48954   0.49122   0.49487
 Alpha virt. eigenvalues --    0.49735   0.50139   0.50628   0.51028   0.51421
 Alpha virt. eigenvalues --    0.51917   0.52405   0.53067   0.53760   0.53872
 Alpha virt. eigenvalues --    0.54222   0.54839   0.55102   0.55407   0.55754
 Alpha virt. eigenvalues --    0.56350   0.56512   0.56680   0.56824   0.57311
 Alpha virt. eigenvalues --    0.57807   0.58199   0.58658   0.59045   0.59548
 Alpha virt. eigenvalues --    0.59693   0.60163   0.60735   0.61042   0.61191
 Alpha virt. eigenvalues --    0.61406   0.61778   0.62301   0.62708   0.63284
 Alpha virt. eigenvalues --    0.63401   0.63817   0.64429   0.64720   0.64922
 Alpha virt. eigenvalues --    0.65230   0.65386   0.65636   0.65727   0.66197
 Alpha virt. eigenvalues --    0.66583   0.67098   0.67653   0.67679   0.68400
 Alpha virt. eigenvalues --    0.68605   0.69172   0.69641   0.69842   0.70236
 Alpha virt. eigenvalues --    0.70402   0.71382   0.71703   0.72096   0.72348
 Alpha virt. eigenvalues --    0.72487   0.73136   0.73655   0.73774   0.74220
 Alpha virt. eigenvalues --    0.74703   0.74740   0.75129   0.75481   0.75750
 Alpha virt. eigenvalues --    0.76122   0.76366   0.76832   0.77420   0.77726
 Alpha virt. eigenvalues --    0.78018   0.78279   0.78549   0.79211   0.79715
 Alpha virt. eigenvalues --    0.80302   0.80835   0.81270   0.82503   0.83117
 Alpha virt. eigenvalues --    0.83543   0.84136   0.84587   0.85388   0.85929
 Alpha virt. eigenvalues --    0.86801   0.87453   0.87744   0.88559   0.88898
 Alpha virt. eigenvalues --    0.89106   0.89734   0.90815   0.91234   0.91466
 Alpha virt. eigenvalues --    0.91959   0.92661   0.92846   0.93115   0.93436
 Alpha virt. eigenvalues --    0.93545   0.94082   0.94557   0.95015   0.95445
 Alpha virt. eigenvalues --    0.95642   0.96111   0.96609   0.96888   0.97199
 Alpha virt. eigenvalues --    0.97801   0.98236   0.99307   1.00081   1.00362
 Alpha virt. eigenvalues --    1.00856   1.01346   1.01610   1.01734   1.02296
 Alpha virt. eigenvalues --    1.02590   1.03539   1.03702   1.04413   1.04746
 Alpha virt. eigenvalues --    1.04898   1.05107   1.05655   1.06234   1.06573
 Alpha virt. eigenvalues --    1.07136   1.07218   1.07777   1.07935   1.08487
 Alpha virt. eigenvalues --    1.09022   1.09515   1.09771   1.10056   1.10595
 Alpha virt. eigenvalues --    1.11776   1.11999   1.13239   1.14744   1.14775
 Alpha virt. eigenvalues --    1.15068   1.15896   1.16324   1.17231   1.17426
 Alpha virt. eigenvalues --    1.17787   1.18676   1.19605   1.20457   1.20992
 Alpha virt. eigenvalues --    1.21580   1.22316   1.22652   1.24469   1.24903
 Alpha virt. eigenvalues --    1.24990   1.25564   1.25995   1.26366   1.27385
 Alpha virt. eigenvalues --    1.28718   1.29154   1.29647   1.30444   1.31334
 Alpha virt. eigenvalues --    1.31774   1.32960   1.33054   1.34116   1.34894
 Alpha virt. eigenvalues --    1.35024   1.36144   1.37531   1.38279   1.39153
 Alpha virt. eigenvalues --    1.40269   1.41484   1.42135   1.42371   1.42861
 Alpha virt. eigenvalues --    1.43292   1.43302   1.43711   1.44231   1.44642
 Alpha virt. eigenvalues --    1.44921   1.45459   1.45862   1.46000   1.46319
 Alpha virt. eigenvalues --    1.46912   1.47498   1.47849   1.48802   1.48980
 Alpha virt. eigenvalues --    1.49304   1.50949   1.51418   1.51793   1.52876
 Alpha virt. eigenvalues --    1.53589   1.54173   1.54277   1.55063   1.55129
 Alpha virt. eigenvalues --    1.55430   1.55853   1.56046   1.56644   1.57083
 Alpha virt. eigenvalues --    1.57390   1.58735   1.60198   1.60640   1.61474
 Alpha virt. eigenvalues --    1.62435   1.62883   1.63412   1.63580   1.64167
 Alpha virt. eigenvalues --    1.65141   1.66079   1.66608   1.67368   1.67600
 Alpha virt. eigenvalues --    1.68071   1.68951   1.69381   1.69548   1.69915
 Alpha virt. eigenvalues --    1.70097   1.70886   1.71232   1.71761   1.71804
 Alpha virt. eigenvalues --    1.72770   1.73735   1.74104   1.75249   1.75655
 Alpha virt. eigenvalues --    1.76102   1.77171   1.77757   1.78516   1.78948
 Alpha virt. eigenvalues --    1.78980   1.79501   1.80100   1.81499   1.82104
 Alpha virt. eigenvalues --    1.84000   1.84943   1.84969   1.85453   1.86478
 Alpha virt. eigenvalues --    1.86922   1.87055   1.87433   1.88362   1.88560
 Alpha virt. eigenvalues --    1.89294   1.89904   1.90546   1.91208   1.92227
 Alpha virt. eigenvalues --    1.92431   1.93285   1.93790   1.94412   1.95245
 Alpha virt. eigenvalues --    1.96042   1.96779   1.97379   1.98437   1.99010
 Alpha virt. eigenvalues --    1.99560   2.00363   2.01294   2.02075   2.02151
 Alpha virt. eigenvalues --    2.03046   2.03123   2.04086   2.04750   2.05116
 Alpha virt. eigenvalues --    2.05858   2.06440   2.06840   2.07913   2.08494
 Alpha virt. eigenvalues --    2.09094   2.09902   2.10546   2.11179   2.12402
 Alpha virt. eigenvalues --    2.12972   2.13819   2.14185   2.15076   2.15352
 Alpha virt. eigenvalues --    2.16374   2.16512   2.18407   2.19032   2.19405
 Alpha virt. eigenvalues --    2.20160   2.20935   2.21611   2.22406   2.23190
 Alpha virt. eigenvalues --    2.24743   2.25716   2.26513   2.26889   2.29570
 Alpha virt. eigenvalues --    2.31676   2.32637   2.33543   2.35151   2.37157
 Alpha virt. eigenvalues --    2.38331   2.39461   2.40045   2.41917   2.42928
 Alpha virt. eigenvalues --    2.43697   2.44003   2.44518   2.45124   2.46400
 Alpha virt. eigenvalues --    2.46919   2.47665   2.48058   2.49411   2.49733
 Alpha virt. eigenvalues --    2.50451   2.51615   2.52470   2.52599   2.53298
 Alpha virt. eigenvalues --    2.53444   2.53836   2.54343   2.55109   2.56428
 Alpha virt. eigenvalues --    2.57032   2.57960   2.58692   2.59042   2.60803
 Alpha virt. eigenvalues --    2.62783   2.63293   2.63995   2.65022   2.66519
 Alpha virt. eigenvalues --    2.67029   2.67356   2.67749   2.68398   2.68654
 Alpha virt. eigenvalues --    2.69691   2.69984   2.70178   2.70905   2.71487
 Alpha virt. eigenvalues --    2.72032   2.73048   2.73988   2.74570   2.75580
 Alpha virt. eigenvalues --    2.75830   2.76424   2.78330   2.78693   2.80863
 Alpha virt. eigenvalues --    2.81277   2.82346   2.82651   2.83778   2.84147
 Alpha virt. eigenvalues --    2.84389   2.84493   2.85256   2.86043   2.86094
 Alpha virt. eigenvalues --    2.87951   2.88200   2.88550   2.88884   2.89850
 Alpha virt. eigenvalues --    2.90900   2.91606   2.92220   2.92883   2.94141
 Alpha virt. eigenvalues --    2.94458   2.94926   2.95821   2.97141   2.99778
 Alpha virt. eigenvalues --    3.01377   3.03133   3.03803   3.04583   3.04850
 Alpha virt. eigenvalues --    3.06117   3.08146   3.08915   3.09103   3.11535
 Alpha virt. eigenvalues --    3.12538   3.13512   3.14175   3.15203   3.16251
 Alpha virt. eigenvalues --    3.16415   3.18073   3.18573   3.20515   3.21785
 Alpha virt. eigenvalues --    3.22941   3.23426   3.23900   3.25321   3.26220
 Alpha virt. eigenvalues --    3.28344   3.29030   3.30450   3.31985   3.33198
 Alpha virt. eigenvalues --    3.33735   3.34141   3.34529   3.36353   3.37427
 Alpha virt. eigenvalues --    3.38731   3.39887   3.40973   3.42051   3.44165
 Alpha virt. eigenvalues --    3.44336   3.45296   3.45870   3.48597   3.48816
 Alpha virt. eigenvalues --    3.51405   3.53253   3.55587   3.57511   3.59371
 Alpha virt. eigenvalues --    3.60283   3.62084   3.65004   3.66114   3.66609
 Alpha virt. eigenvalues --    3.69457   3.69979   3.72200   3.72884   3.75765
 Alpha virt. eigenvalues --    3.76846   3.77080   3.80856   3.83067   3.84875
 Alpha virt. eigenvalues --    3.85350   3.86242   3.89931   3.91092   3.92797
 Alpha virt. eigenvalues --    3.93070   3.94433   3.96703   4.01352   4.02866
 Alpha virt. eigenvalues --    4.04303   4.08283   4.10396   4.12761   4.14292
 Alpha virt. eigenvalues --    4.20128   4.23699   4.25075   4.27625   4.35126
 Alpha virt. eigenvalues --    4.40088   4.40746   4.53374   4.71916   4.84397
 Alpha virt. eigenvalues --    4.87052   4.87534   4.90382   5.00881   5.02377
 Alpha virt. eigenvalues --    5.03136   5.04680   5.05296   5.08545   5.10955
 Alpha virt. eigenvalues --    5.12895   5.24361   5.26402   5.28882   5.33516
 Alpha virt. eigenvalues --    5.42128   5.43336   5.75145   5.76426   5.79496
 Alpha virt. eigenvalues --    5.80112   5.81526   5.84472   8.02123   8.04786
 Alpha virt. eigenvalues --   17.28444  17.30232  17.49286  17.52087  17.58046
 Alpha virt. eigenvalues --   17.63585  23.48652  23.56355  23.71162  23.78070
 Alpha virt. eigenvalues --   23.81769  23.82329  23.83648  23.86210  23.86408
 Alpha virt. eigenvalues --   23.87932  23.88766  23.90851  23.91777  23.92921
 Alpha virt. eigenvalues --   23.94726  23.95275  23.96138  23.98266  24.00670
 Alpha virt. eigenvalues --   24.01038  24.02069  24.05155  24.12376  24.13267
 Alpha virt. eigenvalues --   24.14133  24.14157  35.55879  35.58749  49.95870
 Alpha virt. eigenvalues --   49.97686  50.01510  50.03550  50.05241  50.07032
 Alpha virt. eigenvalues --  189.19486 189.22799
          Condensed to atoms (all electrons):
 Mulliken charges:
               1
     1  C    0.340047
     2  C    0.032010
     3  C    0.177390
     4  C    0.209963
     5  C    0.339710
     6  C    0.076535
     7  C    0.195953
     8  C    0.324651
     9  C    0.231952
    10  C   -0.342671
    11  C    0.300827
    12  C    0.119203
    13  C   -0.529159
    14  C   -0.697706
    15  H    0.164556
    16  H    0.166184
    17  H    0.163352
    18  N   -0.129999
    19  N   -0.103579
    20  O   -0.349414
    21  O   -0.329889
    22  O   -0.347953
    23  O   -0.278817
    24  C   -0.194623
    25  H    0.185512
    26  H    0.184474
    27  H    0.179678
    28  C   -0.213209
    29  H    0.181472
    30  H    0.183418
    31  H    0.180231
    32  C    0.022786
    33  C   -0.144090
    34  S   -0.684568
    35  C   -0.395415
    36  H    0.180622
    37  C    0.443436
    38  O   -0.152401
    39  C    0.795481
    40  C   -0.255224
    41  C   -0.008843
    42  S   -0.224496
    43  H    0.176600
    44  H    0.161707
    45  H    0.166074
    46  C   -0.617273
    47  O   -0.147481
    48  C   -0.340672
    49  H    0.165208
    50  C   -0.255998
    51  H    0.194270
    52  H    0.162079
    53  H    0.175674
    54  H    0.162428
 Sum of Mulliken charges =  -0.00000
 Mulliken charges with hydrogens summed into heavy atoms:
               1
     1  C    0.340047
     2  C    0.032010
     3  C    0.177390
     4  C    0.209963
     5  C    0.339710
     6  C    0.239886
     7  C    0.195953
     8  C    0.324651
     9  C    0.231952
    10  C   -0.342671
    11  C    0.300827
    12  C    0.119203
    13  C   -0.362976
    14  C   -0.533150
    18  N   -0.129999
    19  N   -0.103579
    20  O   -0.349414
    21  O   -0.329889
    22  O   -0.347953
    23  O   -0.278817
    24  C    0.355041
    28  C    0.331912
    32  C    0.022786
    33  C    0.036532
    34  S   -0.684568
    35  C   -0.395415
    37  C    0.443436
    38  O   -0.152401
    39  C    0.795481
    40  C    0.249157
    41  C   -0.008843
    42  S   -0.224496
    46  C   -0.452066
    47  O   -0.147481
    48  C   -0.146402
    50  C    0.244183
 Electronic spatial extent (au):  <R**2>=          22442.2139
 Charge=             -0.0000 electrons
 Dipole moment (field-independent basis, Debye):
    X=              6.5680    Y=             -0.9244    Z=             -0.2260  Tot=              6.6366
 Quadrupole moment (field-independent basis, Debye-Ang):
   XX=           -212.8913   YY=           -207.0812   ZZ=           -222.9390
   XY=             -7.6339   XZ=              0.5146   YZ=             -5.8733
 Traceless Quadrupole moment (field-independent basis, Debye-Ang):
   XX=              1.4125   YY=              7.2227   ZZ=             -8.6351
   XY=             -7.6339   XZ=              0.5146   YZ=             -5.8733
 Octapole moment (field-independent basis, Debye-Ang**2):
  XXX=            520.3533  YYY=            -23.1793  ZZZ=              1.6157  XYY=            182.5456
  XXY=           -123.2628  XXZ=             19.9692  XZZ=            -13.9791  YZZ=             -0.8837
  YYZ=             -0.5182  XYZ=            -19.9041
 Hexadecapole moment (field-independent basis, Debye-Ang**3):
 XXXX=         -20407.2417 YYYY=          -7909.8721 ZZZZ=           -376.1049 XXXY=           -786.4201
 XXXZ=             25.4505 YYYX=            232.9087 YYYZ=            -71.2723 ZZZX=              2.4693
 ZZZY=              1.9036 XXYY=          -4979.5066 XXZZ=          -3769.6920 YYZZ=          -1443.0830
 XXYZ=           -129.3353 YYXZ=              5.5014 ZZXY=             16.9722
 N-N= 4.090401463351D+03 E-N=-1.372093593703D+04  KE= 2.351932615558D+03
 D1PCM: PCM CHGder 1st derivatives, ID1Alg=3 FixD1E=F DoIter=F DoCFld=F I1PDM=0.
 Calling FoFJK, ICntrl=      2127 FMM=F ISym2X=0 I1Cent= 0 IOpClX= 0 NMat=1 NMatS=1 NMatT=0.
 ***** Axes restored to original set *****
 -------------------------------------------------------------------
 Center     Atomic                   Forces (Hartrees/Bohr)
 Number     Number              X              Y              Z
 -------------------------------------------------------------------
      1        6          -0.001693334   -0.000117411    0.000281295
      2        6           0.004732374   -0.000088453   -0.000240577
      3        6          -0.002394841    0.000306761   -0.000145476
      4        6           0.002162638    0.001058036    0.000230301
      5        6           0.002105284    0.000629722    0.000161688
      6        6          -0.005470022   -0.000327146   -0.001934236
      7        6          -0.000358593   -0.000018780    0.000352627
      8        6          -0.000445975    0.004306119    0.003288572
      9        6           0.007956472    0.000194312   -0.000372035
     10        6          -0.008550967   -0.004126471   -0.000674157
     11        6           0.003518430   -0.002283706   -0.000546089
     12        6           0.000993744    0.000840794    0.000369150
     13        6          -0.001106561   -0.001843350   -0.000355971
     14        6           0.000152865    0.001569016    0.000246256
     15        1           0.000617631    0.001812178    0.000203058
     16        1           0.000127053   -0.002165628   -0.000337607
     17        1          -0.002297510    0.000530919    0.000873107
     18        7          -0.001456297   -0.001982881   -0.000743238
     19        7           0.001228860    0.001819544    0.000108751
     20        8          -0.002706971    0.002517054    0.000332366
     21        8           0.002778571    0.000018049   -0.000076704
     22        8           0.001324688   -0.000508010   -0.000049740
     23        8          -0.018293254    0.008602580    0.011541495
     24        6           0.001566406    0.002555579   -0.000634499
     25        1          -0.001381965    0.000113059   -0.000090850
     26        1          -0.001952328   -0.000351796    0.000950019
     27        1           0.001983593    0.000365967    0.000200884
     28        6           0.000114897   -0.002480167   -0.000695396
     29        1          -0.001505099    0.000617366    0.000701824
     30        1          -0.001229976    0.000570069   -0.000176651
     31        1           0.001701176   -0.001086058   -0.000150515
     32        6          -0.008820367    0.000152648   -0.000857974
     33        6           0.016861820    0.001162205   -0.008609683
     34       16           0.004234160   -0.000459346    0.000919203
     35        6          -0.001731554   -0.002820256   -0.000464026
     36        1           0.008490241   -0.008339728   -0.004595434
     37        6           0.002067070   -0.000496621    0.000495068
     38        8          -0.001710957   -0.004473236    0.001045549
     39        6          -0.001719945    0.000197402   -0.000001587
     40        6          -0.002293859    0.006991751   -0.000271055
     41        6          -0.002312419   -0.002126616    0.000629512
     42       16           0.000873104   -0.000053338   -0.000252777
     43        1          -0.001026161   -0.000721695    0.000239579
     44        1           0.001548675   -0.000943469    0.001235863
     45        1           0.001540527   -0.000802883   -0.001724443
     46        6          -0.000078420    0.000640496   -0.000098971
     47        8           0.002449980    0.006935423   -0.000940374
     48        6           0.000407530   -0.001383406    0.000127090
     49        1          -0.000125534    0.000755468   -0.000056994
     50        6           0.003001012   -0.007853521    0.000299949
     51        1          -0.001768330    0.000127701    0.000179044
     52        1          -0.001514593    0.000864043   -0.001193063
     53        1           0.000712175    0.000563492   -0.000094115
     54        1          -0.001305143    0.001036216    0.001371986
 -------------------------------------------------------------------
 Cartesian Forces:  Max     0.018293254 RMS     0.003330686

 GradGradGradGradGradGradGradGradGradGradGradGradGradGradGradGradGradGrad
 Berny optimization.
 FormGI is forming the generalized inverse of G from B-inverse, IUseBI=4.
 Internal  Forces:  Max     0.064372010 RMS     0.007729426
 Search for a local minimum.
 Step number   1 out of a maximum of  307
 All quantities printed in internal units (Hartrees-Bohrs-Radians)
 Mixed Optimization -- RFO/linear search
 Second derivative matrix not updated -- first step.
 ITU=  0
     Eigenvalues ---    0.00803   0.00803   0.01176   0.01203   0.01245
     Eigenvalues ---    0.01292   0.01308   0.01311   0.01362   0.01383
     Eigenvalues ---    0.01419   0.01429   0.01458   0.01496   0.01516
     Eigenvalues ---    0.01568   0.01574   0.01577   0.01617   0.01652
     Eigenvalues ---    0.01695   0.01711   0.01713   0.01719   0.01754
     Eigenvalues ---    0.01783   0.01803   0.01847   0.01971   0.02040
     Eigenvalues ---    0.02046   0.02068   0.02080   0.02084   0.02135
     Eigenvalues ---    0.02149   0.02163   0.02178   0.02197   0.02226
     Eigenvalues ---    0.02230   0.02250   0.07556   0.07572   0.07690
     Eigenvalues ---    0.07700   0.10058   0.10068   0.10627   0.10635
     Eigenvalues ---    0.15983   0.15999   0.15999   0.16000   0.16000
     Eigenvalues ---    0.16000   0.16000   0.16000   0.16000   0.16000
     Eigenvalues ---    0.16000   0.16000   0.16000   0.16000   0.16000
     Eigenvalues ---    0.16000   0.16000   0.16000   0.22530   0.22583
     Eigenvalues ---    0.23518   0.23582   0.24516   0.24747   0.24865
     Eigenvalues ---    0.24931   0.24952   0.24985   0.24987   0.24988
     Eigenvalues ---    0.24991   0.24994   0.24997   0.24997   0.24998
     Eigenvalues ---    0.24998   0.25000   0.25000   0.25000   0.25000
     Eigenvalues ---    0.25000   0.25000   0.25000   0.25000   0.25000
     Eigenvalues ---    0.25000   0.28838   0.28851   0.30033   0.32124
     Eigenvalues ---    0.32582   0.32774   0.33111   0.33787   0.34017
     Eigenvalues ---    0.34022   0.34051   0.34051   0.34354   0.34466
     Eigenvalues ---    0.34577   0.34629   0.34693   0.34806   0.34885
     Eigenvalues ---    0.35198   0.35218   0.35468   0.35553   0.35582
     Eigenvalues ---    0.35757   0.35883   0.36078   0.36083   0.36218
     Eigenvalues ---    0.36396   0.36662   0.39352   0.40185   0.40194
     Eigenvalues ---    0.40651   0.40820   0.41524   0.41725   0.41962
     Eigenvalues ---    0.42300   0.42640   0.43455   0.43998   0.44092
     Eigenvalues ---    0.44594   0.44684   0.45014   0.45406   0.46251
     Eigenvalues ---    0.47305   0.47650   0.49310   0.49573   0.53030
     Eigenvalues ---    0.53083   0.93281   0.93432   0.93989   0.94585
     Eigenvalues --- 1000.000001000.000001000.000001000.000001000.00000
     Eigenvalues --- 1000.000001000.000001000.000001000.000001000.00000
     Eigenvalues --- 1000.000001000.000001000.000001000.000001000.00000
     Eigenvalues --- 1000.000001000.000001000.000001000.000001000.00000
     Eigenvalues --- 1000.000001000.000001000.000001000.000001000.00000
     Eigenvalues --- 1000.000001000.000001000.000001000.000001000.00000
     Eigenvalues --- 1000.000001000.000001000.000001000.000001000.00000
     Eigenvalues --- 1000.000001000.000001000.000001000.000001000.00000
     Eigenvalues --- 1000.000001000.000001000.000001000.000001000.00000
     Eigenvalues --- 1000.000001000.000001000.000001000.000001000.00000
     Eigenvalues --- 1000.000001000.000001000.000001000.000001000.00000
     Eigenvalues --- 1000.000001000.000001000.000001000.000001000.00000
     Eigenvalues --- 1000.000001000.000001000.000001000.000001000.00000
     Eigenvalues --- 1000.000001000.000001000.000001000.000001000.00000
     Eigenvalues --- 1000.000001000.000001000.000001000.000001000.00000
     Eigenvalues --- 1000.000001000.000001000.000001000.000001000.00000
     Eigenvalues --- 1000.000001000.000001000.000001000.000001000.00000
     Eigenvalues --- 1000.000001000.000001000.000001000.000001000.00000
     Eigenvalues --- 1000.000001000.000001000.000001000.000001000.00000
     Eigenvalues --- 1000.000001000.000001000.000001000.000001000.00000
     Eigenvalues --- 1000.000001000.000001000.000001000.000001000.00000
     Eigenvalues --- 1000.000001000.000001000.000001000.000001000.00000
     Eigenvalues --- 1000.000001000.000001000.000001000.000001000.00000
     Eigenvalues --- 1000.000001000.000001000.000001000.000001000.00000
     Eigenvalues --- 1000.000001000.000001000.000001000.000001000.00000
     Eigenvalues --- 1000.000001000.000001000.000001000.000001000.00000
     Eigenvalues --- 1000.000001000.000001000.000001000.000001000.00000
     Eigenvalues --- 1000.000001000.000001000.000001000.000001000.00000
     Eigenvalues --- 1000.000001000.00000
 RFO step:  Lambda=-5.93121312D-02 EMin= 8.02933640D-03
 Linear search not attempted -- first point.
 Maximum step size (   0.300) exceeded in Quadratic search.
    -- Step size scaled by   0.755
 Iteration  1 RMS(Cart)=  0.33685043 RMS(Int)=  0.00861174
 Iteration  2 RMS(Cart)=  0.06965457 RMS(Int)=  0.00069699
 Iteration  3 RMS(Cart)=  0.00131398 RMS(Int)=  0.00063534
 Iteration  4 RMS(Cart)=  0.00000082 RMS(Int)=  0.00063534
 Iteration  1 RMS(Cart)=  0.00008763 RMS(Int)=  0.00001571
 Iteration  2 RMS(Cart)=  0.00004969 RMS(Int)=  0.00001753
 Iteration  3 RMS(Cart)=  0.00002817 RMS(Int)=  0.00001989
 Iteration  4 RMS(Cart)=  0.00001597 RMS(Int)=  0.00002152
 Iteration  5 RMS(Cart)=  0.00000906 RMS(Int)=  0.00002251
 Iteration  6 RMS(Cart)=  0.00000514 RMS(Int)=  0.00002309
 Iteration  7 RMS(Cart)=  0.00000291 RMS(Int)=  0.00002343
 Iteration  8 RMS(Cart)=  0.00000165 RMS(Int)=  0.00002362
 Iteration  9 RMS(Cart)=  0.00000094 RMS(Int)=  0.00002373
 Variable       Old X    -DE/DX   Delta X   Delta X   Delta X     New X
                                 (Linear)    (Quad)   (Total)
    R1        2.80935  -0.00134   0.00000  -0.00301  -0.00301   2.80634
    R2        2.64584  -0.00570   0.00000  -0.00853  -0.00850   2.63734
    R3        2.31147  -0.00371   0.00000  -0.00281  -0.00281   2.30866
    R4        2.67311  -0.00818   0.00000  -0.01506  -0.01527   2.65785
    R5        2.59267  -0.01274   0.00000  -0.01955  -0.01955   2.57312
    R6        2.66894  -0.00077   0.00000  -0.00108  -0.00113   2.66781
    R7        2.69164   0.00107   0.00000   0.00334   0.00323   2.69487
    R8        2.81049  -0.00127   0.00000  -0.00195  -0.00196   2.80853
    R9        2.62173  -0.00449   0.00000  -0.00731  -0.00731   2.61442
   R10        2.65570  -0.00517   0.00000  -0.00755  -0.00752   2.64818
   R11        2.30889  -0.00263   0.00000  -0.00198  -0.00198   2.30691
   R12        2.70248   0.00093   0.00000   0.00072   0.00088   2.70336
   R13        2.04786  -0.00210   0.00000  -0.00383  -0.00383   2.04402
   R14        2.70495   0.01568   0.00000   0.03062   0.03068   2.73563
   R15        2.68322   0.00374   0.00000   0.00810   0.00804   2.69126
   R16        2.68655   0.03464   0.00000   0.05673   0.05680   2.74335
   R17        2.81233   0.01026   0.00000   0.02076   0.02088   2.83321
   R18        2.76359   0.01649   0.00000   0.02925   0.02925   2.79284
   R19        2.66221  -0.00451   0.00000  -0.00800  -0.00794   2.65426
   R20        2.31391  -0.01188   0.00000  -0.00903  -0.00903   2.30487
   R21        2.79415  -0.00992   0.00000  -0.01954  -0.01964   2.77451
   R22        2.63842  -0.01334   0.00000  -0.02131  -0.02135   2.61706
   R23        2.31456  -0.00132   0.00000  -0.00100  -0.00100   2.31356
   R24        2.62448  -0.00070   0.00000  -0.00091  -0.00090   2.62359
   R25        2.64561  -0.00902   0.00000  -0.01416  -0.01414   2.63147
   R26        2.04921  -0.00162   0.00000  -0.00295  -0.00295   2.04626
   R27        2.04741  -0.00117   0.00000  -0.00212  -0.00212   2.04529
   R28        2.77259   0.00270   0.00000   0.00485   0.00485   2.77744
   R29        2.77252   0.00253   0.00000   0.00455   0.00455   2.77707
   R30        2.06176  -0.00079   0.00000  -0.00148  -0.00148   2.06028
   R31        2.06551  -0.00192   0.00000  -0.00360  -0.00360   2.06192
   R32        2.05322  -0.00152   0.00000  -0.00278  -0.00278   2.05044
   R33        2.06368  -0.00141   0.00000  -0.00263  -0.00263   2.06104
   R34        2.06281  -0.00092   0.00000  -0.00172  -0.00172   2.06110
   R35        2.05355  -0.00157   0.00000  -0.00288  -0.00288   2.05067
   R36        2.60992   0.01053   0.00000   0.01498   0.01505   2.62497
   R37        3.33265   0.00673   0.00000   0.01512   0.01518   3.34783
   R38        2.66349  -0.00149   0.00000  -0.00230  -0.00231   2.66118
   R39        2.03743  -0.01111   0.00000  -0.01990  -0.01990   2.01752
   R40        3.30537  -0.00520   0.00000  -0.01130  -0.01135   3.29402
   R41        2.64138  -0.00448   0.00000  -0.00707  -0.00714   2.63424
   R42        2.56926  -0.00138   0.00000  -0.00177  -0.00177   2.56749
   R43        2.71303  -0.00118   0.00000  -0.00193  -0.00193   2.71110
   R44        2.69275   0.00435   0.00000   0.00690   0.00690   2.69965
   R45        2.63259   0.00069   0.00000   0.00110   0.00110   2.63369
   R46        3.33022   0.00026   0.00000   0.00075   0.00075   3.33097
   R47        2.05991  -0.00127   0.00000  -0.00236  -0.00236   2.05755
   R48        2.07302  -0.00211   0.00000  -0.00398  -0.00398   2.06903
   R49        2.07293  -0.00234   0.00000  -0.00442  -0.00442   2.06851
   R50        2.68909  -0.00086   0.00000  -0.00141  -0.00141   2.68769
   R51        2.56876  -0.00347   0.00000  -0.00444  -0.00444   2.56432
   R52        3.26264  -0.00059   0.00000  -0.00124  -0.00124   3.26140
   R53        2.58694  -0.00163   0.00000  -0.00229  -0.00229   2.58465
   R54        2.04265  -0.00073   0.00000  -0.00132  -0.00132   2.04133
   R55        2.68971   0.00541   0.00000   0.00853   0.00853   2.69824
   R56        2.04463  -0.00174   0.00000  -0.00316  -0.00316   2.04147
   R57        2.07245  -0.00200   0.00000  -0.00377  -0.00377   2.06868
   R58        2.05861  -0.00091   0.00000  -0.00168  -0.00168   2.05693
   R59        2.07244  -0.00203   0.00000  -0.00383  -0.00383   2.06861
    A1        2.03797   0.00190   0.00000   0.00311   0.00309   2.04106
    A2        2.14521  -0.00083   0.00000  -0.00126  -0.00125   2.14396
    A3        2.10001  -0.00107   0.00000  -0.00185  -0.00184   2.09817
    A4        2.10395   0.00302   0.00000   0.00949   0.00950   2.11345
    A5        2.08282  -0.00439   0.00000  -0.00631  -0.00620   2.07662
    A6        2.09624   0.00135   0.00000  -0.00338  -0.00353   2.09271
    A7        2.10093  -0.00470   0.00000  -0.01254  -0.01244   2.08849
    A8        2.07104  -0.00009   0.00000  -0.00293  -0.00314   2.06790
    A9        2.11118   0.00478   0.00000   0.01544   0.01554   2.12672
   A10        2.10296   0.00175   0.00000   0.00500   0.00495   2.10791
   A11        2.09911   0.00172   0.00000   0.00329   0.00323   2.10234
   A12        2.08110  -0.00347   0.00000  -0.00829  -0.00818   2.07292
   A13        2.03739   0.00145   0.00000   0.00391   0.00387   2.04126
   A14        2.12972   0.00029   0.00000   0.00054   0.00056   2.13028
   A15        2.11607  -0.00175   0.00000  -0.00445  -0.00443   2.11164
   A16        2.15098   0.01510   0.00000   0.03562   0.03577   2.18675
   A17        2.04399  -0.00891   0.00000  -0.02285  -0.02285   2.02113
   A18        2.08722  -0.00627   0.00000  -0.01353  -0.01376   2.07347
   A19        2.11101   0.00608   0.00000   0.01585   0.01585   2.12685
   A20        2.04385  -0.01127   0.00000  -0.02982  -0.02977   2.01407
   A21        2.12832   0.00519   0.00000   0.01396   0.01392   2.14225
   A22        2.08678  -0.01141   0.00000  -0.02199  -0.02208   2.06470
   A23        2.04738  -0.02168   0.00000  -0.05143  -0.05125   1.99613
   A24        2.14662   0.03296   0.00000   0.07179   0.07151   2.21813
[...]
 Alpha  occ. eigenvalues --   -0.53511  -0.51738  -0.50477  -0.50045  -0.49941
 Alpha  occ. eigenvalues --   -0.49442  -0.49120  -0.48589  -0.48538  -0.48131
 Alpha  occ. eigenvalues --   -0.48077  -0.47192  -0.46903  -0.46544  -0.46090
 Alpha  occ. eigenvalues --   -0.45453  -0.45336  -0.44901  -0.44077  -0.43624
 Alpha  occ. eigenvalues --   -0.42949  -0.42787  -0.42467  -0.42186  -0.42029
 Alpha  occ. eigenvalues --   -0.41824  -0.41302  -0.41089  -0.40672  -0.40075
 Alpha  occ. eigenvalues --   -0.39670  -0.39291  -0.39115  -0.38059  -0.37433
 Alpha  occ. eigenvalues --   -0.36592  -0.36326  -0.34484  -0.34234  -0.33884
 Alpha  occ. eigenvalues --   -0.33773  -0.32128  -0.31497  -0.30811  -0.30104
 Alpha  occ. eigenvalues --   -0.29719  -0.29299  -0.29053  -0.28517  -0.27446
 Alpha  occ. eigenvalues --   -0.26206  -0.25251  -0.25002  -0.19794
 Alpha virt. eigenvalues --   -0.13226  -0.08145  -0.06495  -0.04715  -0.03775
 Alpha virt. eigenvalues --   -0.00618  -0.00548   0.00148   0.00280   0.00467
 Alpha virt. eigenvalues --    0.00819   0.01033   0.01447   0.01554   0.01985
 Alpha virt. eigenvalues --    0.02213   0.02627   0.02787   0.02883   0.03210
 Alpha virt. eigenvalues --    0.03569   0.03834   0.03901   0.04339   0.04624
 Alpha virt. eigenvalues --    0.04800   0.04938   0.05328   0.05647   0.05911
 Alpha virt. eigenvalues --    0.06211   0.06269   0.06640   0.06948   0.07143
 Alpha virt. eigenvalues --    0.07263   0.07681   0.07767   0.07806   0.08224
 Alpha virt. eigenvalues --    0.08533   0.08692   0.08876   0.09128   0.09399
 Alpha virt. eigenvalues --    0.09558   0.09863   0.10074   0.10194   0.10558
 Alpha virt. eigenvalues --    0.10814   0.11086   0.11374   0.11726   0.12042
 Alpha virt. eigenvalues --    0.12398   0.12578   0.12871   0.13392   0.13589
 Alpha virt. eigenvalues --    0.13644   0.13747   0.13917   0.14013   0.14277
 Alpha virt. eigenvalues --    0.14659   0.14887   0.15122   0.15242   0.15347
 Alpha virt. eigenvalues --    0.15567   0.15811   0.16102   0.16205   0.16361
 Alpha virt. eigenvalues --    0.16546   0.16871   0.17215   0.17382   0.17614
 Alpha virt. eigenvalues --    0.17771   0.18129   0.18356   0.18579   0.18710
 Alpha virt. eigenvalues --    0.18856   0.18992   0.19305   0.19398   0.19787
 Alpha virt. eigenvalues --    0.19938   0.20050   0.20198   0.20333   0.20621
 Alpha virt. eigenvalues --    0.20725   0.20839   0.21035   0.21243   0.21356
 Alpha virt. eigenvalues --    0.21861   0.22030   0.22133   0.22257   0.22299
 Alpha virt. eigenvalues --    0.22636   0.23105   0.23378   0.23550   0.23736
 Alpha virt. eigenvalues --    0.23949   0.24076   0.24205   0.24329   0.24439
 Alpha virt. eigenvalues --    0.24490   0.24780   0.24812   0.25197   0.25514
 Alpha virt. eigenvalues --    0.25553   0.25787   0.26027   0.26100   0.26427
 Alpha virt. eigenvalues --    0.26632   0.26894   0.27105   0.27166   0.27491
 Alpha virt. eigenvalues --    0.27523   0.27629   0.27778   0.28008   0.28337
 Alpha virt. eigenvalues --    0.28509   0.28922   0.28952   0.29129   0.29223
 Alpha virt. eigenvalues --    0.29370   0.29657   0.30173   0.30414   0.30640
 Alpha virt. eigenvalues --    0.30976   0.31132   0.31403   0.31665   0.32026
 Alpha virt. eigenvalues --    0.32109   0.32376   0.32566   0.33139   0.33294
 Alpha virt. eigenvalues --    0.33567   0.33677   0.33908   0.34147   0.34514
 Alpha virt. eigenvalues --    0.34766   0.34856   0.35251   0.35529   0.35952
 Alpha virt. eigenvalues --    0.36150   0.37033   0.37190   0.37479   0.37758
 Alpha virt. eigenvalues --    0.38001   0.38211   0.38423   0.38858   0.39356
 Alpha virt. eigenvalues --    0.39654   0.40149   0.40587   0.40741   0.41461
 Alpha virt. eigenvalues --    0.41817   0.42463   0.42652   0.43019   0.43383
 Alpha virt. eigenvalues --    0.43791   0.43978   0.44114   0.44504   0.45046
 Alpha virt. eigenvalues --    0.45577   0.45906   0.46314   0.46857   0.47219
 Alpha virt. eigenvalues --    0.47558   0.47879   0.48452   0.48723   0.49046
 Alpha virt. eigenvalues --    0.49343   0.49736   0.50164   0.50648   0.51329
 Alpha virt. eigenvalues --    0.51802   0.51958   0.52659   0.53096   0.53346
 Alpha virt. eigenvalues --    0.54118   0.54555   0.55017   0.55059   0.55623
 Alpha virt. eigenvalues --    0.55938   0.56268   0.56320   0.56716   0.57136
 Alpha virt. eigenvalues --    0.57438   0.57925   0.58039   0.58404   0.58688
 Alpha virt. eigenvalues --    0.59728   0.60220   0.60612   0.61008   0.61226
 Alpha virt. eigenvalues --    0.61615   0.61714   0.62098   0.62597   0.63171
 Alpha virt. eigenvalues --    0.63413   0.63738   0.63896   0.64871   0.65105
 Alpha virt. eigenvalues --    0.65342   0.65709   0.65790   0.66519   0.66550
 Alpha virt. eigenvalues --    0.67315   0.67651   0.67898   0.68286   0.68986
 Alpha virt. eigenvalues --    0.69153   0.69453   0.69815   0.70020   0.70345
 Alpha virt. eigenvalues --    0.70587   0.70753   0.71792   0.72067   0.72186
 Alpha virt. eigenvalues --    0.72483   0.72960   0.73383   0.73791   0.74133
 Alpha virt. eigenvalues --    0.74223   0.74512   0.74705   0.74924   0.75348
 Alpha virt. eigenvalues --    0.75848   0.76236   0.76379   0.76674   0.76943
 Alpha virt. eigenvalues --    0.77257   0.78006   0.78154   0.78515   0.78857
 Alpha virt. eigenvalues --    0.79852   0.80125   0.80952   0.81203   0.81915
 Alpha virt. eigenvalues --    0.82706   0.83597   0.84113   0.84193   0.85145
 Alpha virt. eigenvalues --    0.85816   0.86325   0.87100   0.88120   0.88349
 Alpha virt. eigenvalues --    0.88510   0.89462   0.89714   0.90034   0.91048
 Alpha virt. eigenvalues --    0.91558   0.91889   0.92370   0.92599   0.92703
 Alpha virt. eigenvalues --    0.93789   0.94000   0.94213   0.94374   0.95104
 Alpha virt. eigenvalues --    0.95177   0.95771   0.96266   0.96293   0.97380
 Alpha virt. eigenvalues --    0.97587   0.98276   0.99024   0.99205   0.99634
 Alpha virt. eigenvalues --    1.00566   1.00999   1.01287   1.01615   1.02486
 Alpha virt. eigenvalues --    1.02729   1.03324   1.03787   1.04035   1.04418
 Alpha virt. eigenvalues --    1.04930   1.05104   1.05412   1.05848   1.06222
 Alpha virt. eigenvalues --    1.06967   1.07068   1.07317   1.08104   1.08341
 Alpha virt. eigenvalues --    1.08991   1.09285   1.09636   1.10310   1.10941
 Alpha virt. eigenvalues --    1.11485   1.12430   1.12857   1.14122   1.14536
 Alpha virt. eigenvalues --    1.15536   1.15751   1.17060   1.17567   1.17996
 Alpha virt. eigenvalues --    1.18140   1.18836   1.18982   1.20170   1.21201
 Alpha virt. eigenvalues --    1.21511   1.21989   1.23609   1.24236   1.24274
 Alpha virt. eigenvalues --    1.25038   1.25822   1.26446   1.26648   1.26961
 Alpha virt. eigenvalues --    1.28080   1.28792   1.29786   1.30346   1.30979
 Alpha virt. eigenvalues --    1.31765   1.32340   1.32745   1.33936   1.34532
 Alpha virt. eigenvalues --    1.35118   1.35660   1.36602   1.36902   1.37949
 Alpha virt. eigenvalues --    1.39734   1.39960   1.41343   1.41925   1.42793
 Alpha virt. eigenvalues --    1.42876   1.43320   1.43846   1.44308   1.44565
 Alpha virt. eigenvalues --    1.44771   1.45332   1.45417   1.45821   1.46242
 Alpha virt. eigenvalues --    1.46703   1.47250   1.48322   1.48929   1.49594
 Alpha virt. eigenvalues --    1.50065   1.50948   1.51396   1.52205   1.52695
 Alpha virt. eigenvalues --    1.53290   1.53671   1.54460   1.54659   1.54843
 Alpha virt. eigenvalues --    1.55302   1.55600   1.56307   1.56602   1.57063
 Alpha virt. eigenvalues --    1.57889   1.59159   1.59314   1.60014   1.60696
 Alpha virt. eigenvalues --    1.61676   1.62379   1.63051   1.63873   1.64188
 Alpha virt. eigenvalues --    1.65221   1.65638   1.66529   1.66832   1.67412
 Alpha virt. eigenvalues --    1.68212   1.69158   1.69226   1.69674   1.70038
 Alpha virt. eigenvalues --    1.70152   1.71330   1.71577   1.71920   1.72130
 Alpha virt. eigenvalues --    1.73394   1.73993   1.74275   1.74713   1.75663
 Alpha virt. eigenvalues --    1.76000   1.76494   1.77414   1.78255   1.78778
 Alpha virt. eigenvalues --    1.78937   1.79174   1.79793   1.80754   1.82234
 Alpha virt. eigenvalues --    1.82714   1.83226   1.84603   1.85308   1.85561
 Alpha virt. eigenvalues --    1.86613   1.86840   1.87223   1.88017   1.88880
 Alpha virt. eigenvalues --    1.88939   1.89844   1.90382   1.90481   1.91363
 Alpha virt. eigenvalues --    1.91687   1.92969   1.93584   1.94692   1.95117
 Alpha virt. eigenvalues --    1.96741   1.97092   1.97746   1.98100   1.98583
 Alpha virt. eigenvalues --    1.99723   2.00400   2.01265   2.01495   2.01998
 Alpha virt. eigenvalues --    2.02505   2.02964   2.03608   2.03940   2.04972
 Alpha virt. eigenvalues --    2.05482   2.06584   2.06826   2.07364   2.07695
 Alpha virt. eigenvalues --    2.08457   2.09414   2.09738   2.10826   2.11844
 Alpha virt. eigenvalues --    2.12458   2.13676   2.13778   2.14577   2.15264
 Alpha virt. eigenvalues --    2.16214   2.16651   2.17403   2.18214   2.18903
 Alpha virt. eigenvalues --    2.19449   2.20346   2.21233   2.21951   2.22495
 Alpha virt. eigenvalues --    2.22713   2.24301   2.25886   2.26171   2.28686
 Alpha virt. eigenvalues --    2.31540   2.32004   2.34076   2.35449   2.37418
 Alpha virt. eigenvalues --    2.38549   2.39051   2.40219   2.41603   2.43082
 Alpha virt. eigenvalues --    2.43218   2.44302   2.44545   2.45583   2.46134
 Alpha virt. eigenvalues --    2.47155   2.47644   2.47961   2.49334   2.50042
 Alpha virt. eigenvalues --    2.50405   2.51774   2.52410   2.52504   2.53033
 Alpha virt. eigenvalues --    2.53599   2.54260   2.55165   2.55570   2.56474
 Alpha virt. eigenvalues --    2.57494   2.57976   2.58953   2.59391   2.61325
 Alpha virt. eigenvalues --    2.62502   2.63208   2.63805   2.64907   2.66231
 Alpha virt. eigenvalues --    2.67044   2.67437   2.67465   2.68518   2.68557
 Alpha virt. eigenvalues --    2.69770   2.69994   2.70898   2.71521   2.71638
 Alpha virt. eigenvalues --    2.72583   2.73114   2.74183   2.74553   2.75304
 Alpha virt. eigenvalues --    2.76711   2.77646   2.78222   2.78640   2.80729
 Alpha virt. eigenvalues --    2.81536   2.82341   2.82932   2.83244   2.83382
 Alpha virt. eigenvalues --    2.83667   2.84387   2.84715   2.85659   2.86465
 Alpha virt. eigenvalues --    2.87371   2.87911   2.88510   2.89564   2.90188
 Alpha virt. eigenvalues --    2.91068   2.91870   2.92624   2.93073   2.94736
 Alpha virt. eigenvalues --    2.94835   2.95179   2.96196   2.97745   2.98493
 Alpha virt. eigenvalues --    3.00604   3.02489   3.02794   3.03279   3.04084
 Alpha virt. eigenvalues --    3.05364   3.06497   3.07141   3.08614   3.09239
 Alpha virt. eigenvalues --    3.11792   3.12629   3.13981   3.14796   3.15072
 Alpha virt. eigenvalues --    3.16892   3.17162   3.18601   3.20752   3.21381
 Alpha virt. eigenvalues --    3.22886   3.23426   3.23783   3.25109   3.26290
 Alpha virt. eigenvalues --    3.28869   3.29091   3.30508   3.31921   3.33496
 Alpha virt. eigenvalues --    3.34013   3.34378   3.35259   3.36495   3.37084
 Alpha virt. eigenvalues --    3.38613   3.40262   3.40727   3.42545   3.42741
 Alpha virt. eigenvalues --    3.43999   3.45024   3.45683   3.48315   3.48729
 Alpha virt. eigenvalues --    3.51077   3.53402   3.55603   3.57803   3.59672
 Alpha virt. eigenvalues --    3.60444   3.61372   3.64368   3.65679   3.66548
 Alpha virt. eigenvalues --    3.68300   3.69749   3.73265   3.75017   3.75708
 Alpha virt. eigenvalues --    3.77688   3.77826   3.80588   3.83252   3.84614
 Alpha virt. eigenvalues --    3.85041   3.85252   3.89579   3.91044   3.92640
 Alpha virt. eigenvalues --    3.93418   3.95068   3.96986   4.01225   4.02702
 Alpha virt. eigenvalues --    4.03506   4.07846   4.10049   4.12087   4.13935
 Alpha virt. eigenvalues --    4.19802   4.23300   4.25055   4.27000   4.34832
 Alpha virt. eigenvalues --    4.38906   4.40445   4.52542   4.70318   4.84442
 Alpha virt. eigenvalues --    4.84859   4.87129   4.89613   5.01002   5.02138
 Alpha virt. eigenvalues --    5.03323   5.04905   5.06026   5.09995   5.11842
 Alpha virt. eigenvalues --    5.12252   5.23979   5.25186   5.25944   5.28287
 Alpha virt. eigenvalues --    5.41248   5.42500   5.75064   5.76213   5.78322
 Alpha virt. eigenvalues --    5.80010   5.81500   5.82022   8.01979   8.04236
 Alpha virt. eigenvalues --   17.28475  17.30466  17.49155  17.51977  17.57251
 Alpha virt. eigenvalues --   17.62788  23.48535  23.56416  23.71247  23.79130
 Alpha virt. eigenvalues --   23.82418  23.82805  23.84435  23.86864  23.86975
 Alpha virt. eigenvalues --   23.88238  23.88943  23.91218  23.92168  23.93583
 Alpha virt. eigenvalues --   23.94904  23.95825  23.96111  23.99060  24.00276
 Alpha virt. eigenvalues --   24.01604  24.02043  24.05364  24.11965  24.13680
 Alpha virt. eigenvalues --   24.14737  24.14862  35.55458  35.57857  49.95887
 Alpha virt. eigenvalues --   49.97589  50.01566  50.03078  50.05021  50.06176
 Alpha virt. eigenvalues --  189.19284 189.22163
          Condensed to atoms (all electrons):
 Mulliken charges:
               1
     1  C    0.358129
     2  C   -0.046838
     3  C    0.229026
     4  C    0.210478
     5  C    0.297643
     6  C    0.168948
     7  C    0.223268
     8  C    0.595265
     9  C    0.160210
    10  C   -0.923469
    11  C    0.274573
    12  C    0.128380
    13  C   -0.492756
    14  C   -0.611709
    15  H    0.163801
    16  H    0.164633
    17  H    0.163677
    18  N    0.032733
    19  N   -0.108012
    20  O   -0.352495
    21  O   -0.334383
    22  O   -0.361574
    23  O   -0.298936
    24  C   -0.187833
    25  H    0.189939
    26  H    0.179618
    27  H    0.179059
    28  C   -0.215669
    29  H    0.184595
    30  H    0.181975
    31  H    0.179495
    32  C   -0.179017
    33  C   -0.365314
    34  S   -0.653353
    35  C   -0.384040
    36  H    0.172129
    37  C    0.710866
    38  O   -0.147398
    39  C    0.906332
    40  C   -0.247875
    41  C    0.046383
    42  S   -0.199895
    43  H    0.180261
    44  H    0.164933
    45  H    0.167088
    46  C   -0.632982
    47  O   -0.153433
    48  C   -0.327507
    49  H    0.165087
    50  C   -0.253769
    51  H    0.194176
    52  H    0.164060
    53  H    0.177030
    54  H    0.164466
 Sum of Mulliken charges =  -0.00000
 Mulliken charges with hydrogens summed into heavy atoms:
               1
     1  C    0.358129
     2  C   -0.046838
     3  C    0.229026
     4  C    0.210478
     5  C    0.297643
     6  C    0.332625
     7  C    0.223268
     8  C    0.595265
     9  C    0.160210
    10  C   -0.923469
    11  C    0.274573
    12  C    0.128380
    13  C   -0.328123
    14  C   -0.447908
    18  N    0.032733
    19  N   -0.108012
    20  O   -0.352495
    21  O   -0.334383
    22  O   -0.361574
    23  O   -0.298936
    24  C    0.360782
    28  C    0.330396
    32  C   -0.179017
    33  C   -0.193184
    34  S   -0.653353
    35  C   -0.384040
    37  C    0.710866
    38  O   -0.147398
    39  C    0.906332
    40  C    0.264407
    41  C    0.046383
    42  S   -0.199895
    46  C   -0.467895
    47  O   -0.153433
    48  C   -0.133331
    50  C    0.251786
 Electronic spatial extent (au):  <R**2>=          22403.6892
 Charge=             -0.0000 electrons
 Dipole moment (field-independent basis, Debye):
    X=              7.0363    Y=             -0.8890    Z=             -1.1402  Tot=              7.1833
 Quadrupole moment (field-independent basis, Debye-Ang):
   XX=           -209.5425   YY=           -207.4537   ZZ=           -223.0660
   XY=             -7.5759   XZ=             -1.9410   YZ=            -11.8509
 Traceless Quadrupole moment (field-independent basis, Debye-Ang):
   XX=              3.8116   YY=              5.9004   ZZ=             -9.7119
   XY=             -7.5759   XZ=             -1.9410   YZ=            -11.8509
 Octapole moment (field-independent basis, Debye-Ang**2):
  XXX=            523.0697  YYY=            -21.1228  ZZZ=             -0.1146  XYY=            180.4244
  XXY=           -127.1349  XXZ=             34.4363  XZZ=             -6.3187  YZZ=             -5.2974
  YYZ=             -3.7676  XYZ=            -40.6050
 Hexadecapole moment (field-independent basis, Debye-Ang**3):
 XXXX=         -20293.2435 YYYY=          -7705.4134 ZZZZ=           -598.1687 XXXY=           -852.6506
 XXXZ=            -41.5704 YYYX=            289.2723 YYYZ=           -111.1196 ZZZX=              6.0911
 ZZZY=            -17.4886 XXYY=          -4889.6859 XXZZ=          -3762.2640 YYZZ=          -1419.2683
 XXYZ=           -221.1756 YYXZ=            -15.6409 ZZXY=              8.0292
 N-N= 4.089160590791D+03 E-N=-1.371847941666D+04  KE= 2.352001065668D+03
 Unable to Open any file for archive entry.
 1\1\GINC-CX3-6-18\FOpt\RB3LYP\6-311+G(d,p)\C26H18N2O6S2\NS5018\27-Oct-
 2021\0\\# opt=modredundant b3lyp/6-311+g(d,p) scrf=(pcm, solvent=water
 )\\NDI_-15.pdb\\0,1\C,-2.6528618124,-3.0042332981,-0.4648049065\C,-2.2
 989321981,-1.5836016588,-0.2232963101\C,-3.3153725105,-0.6090642393,-0
 .0932458248\C,-4.6717700424,-0.9657173996,-0.214872959\C,-5.0524574086
 ,-2.3778281758,-0.473367203\C,-0.9816091476,-1.2117807904,-0.180419874
 \C,-2.9374126331,0.7346140416,0.1732169948\C,-1.5640799766,1.095669140
 5,0.2991100001\C,-0.5538174055,0.134026721,0.033031722\C,-1.2810797691
 ,2.4343264332,0.8712549903\C,-3.6502943222,3.1100201633,0.5788605715\C
 ,-3.9721378331,1.6953522433,0.2990789161\C,-5.303274112,1.3276878746,0
 .157418302\C,-5.6602796003,0.000181719,-0.0944621759\H,-6.6994909647,-
 0.2829909474,-0.1946662048\H,-6.0649407216,2.0908338996,0.2493370405\H
 ,-0.2455752897,-1.9847165837,-0.358853382\N,-2.3124350744,3.3905210429
 ,0.8369428977\N,-4.0105741549,-3.3111557702,-0.5704720746\O,-1.8129849
 71,-3.8850890437,-0.5714194017\O,-6.2175761451,-2.7225245409,-0.593110
 897\O,-4.5034710291,3.9878404211,0.6155995001\O,-0.2209366828,2.741955
 1163,1.3959766126\C,-1.9633633206,4.753216,1.265930514\H,-1.9366948436
 ,4.8180291507,2.355589496\H,-0.9828994639,5.0085854853,0.872480351\H,-
 2.7178147413,5.4318023641,0.8809337585\C,-4.3444445976,-4.7232767599,-
 0.8130109687\H,-3.9114712842,-5.0473897325,-1.7593615142\H,-3.93995130
 27,-5.3380222566,-0.0095365359\H,-5.4245621967,-4.8135966627,-0.846875
 3497\C,0.8554368462,0.4012094018,-0.2065462391\C,1.509329171,1.5817285
 485,-0.5085829147\S,2.0199234261,-0.9208660645,-0.1108833692\C,2.89416
 37085,1.4302377859,-0.6904017123\H,1.0026898922,2.5246193913,-0.620455
 1697\C,3.3633837173,0.1242902469,-0.5007042356\O,3.7769556898,2.404240
 8223,-1.0203761879\C,4.7133877939,-0.3469031953,-0.5966679441\C,3.2763
 205027,3.7350365209,-1.2033248677\C,5.1752041589,-1.6503316448,-0.4170
 173159\S,6.0761372898,0.7073024768,-0.9729572916\H,4.1424922779,4.3457
 93117,-1.4475460532\H,2.5579342085,3.7693839506,-2.0264660989\H,2.8118
 229036,4.104412708,-0.2854207286\C,6.5809903267,-1.796445494,-0.577829
 9209\O,4.2939338062,-2.632262536,-0.1161408928\C,7.1880146543,-0.60902
 90573,-0.8779089248\H,7.1153979735,-2.7295272929,-0.4774629829\C,4.796
 0686153,-3.9645549946,0.0616989089\H,8.2383420952,-0.4310256238,-1.052
 2866659\H,5.5033192667,-4.0037301021,0.8937250246\H,3.9279986217,-4.57
 89646547,0.2891614238\H,5.2723186097,-4.3242882671,-0.8535919268\\Vers
 ion=ES64L-G16RevC.01\State=1-A\HF=-2359.3580215\RMSD=4.655e-09\RMSF=1.
 021e-03\Dipole=2.7289569,-0.3157325,-0.6633988\Quadrupole=2.4301342,6.
 3362269,-8.766361,-5.8566158,-2.8825367,-6.8618195\PG=C01 [X(C26H18N2O
 6S2)]\\@
 The archive entry for this job was punched.


 If fifty million people say a stupid thing,
 it is still a stupid thing.
                   -- Anatole France
 Job cpu time:       4 days  8 hours 57 minutes 11.8 seconds.
 Elapsed time:       0 days  6 hours 40 minutes 44.2 seconds.
 File lengths (MBytes):  RWF=   1027 Int=      0 D2E=      0 Chk=     65 Scr=      1
 Normal termination of Gaussian 16 at Wed Oct 27 23:47:23 2021.
