 Entering Gaussian System, Link 0=g16
 Input=NDI_-90.gjf
 Output=NDI_-90.log
 Initial command:
 /apps/gaussian/g16-c01-avx/g16/l1.exe "/tmp/pbs.4768611[85].pbs/Gau-242055.inp" -scrdir="/tmp/pbs.4768611[85].pbs/"
 Entering Link 1 = /apps/gaussian/g16-c01-avx/g16/l1.exe PID=    242056.
  
 Copyright (c) 1988-2019, Gaussian, Inc.  All Rights Reserved.
  
 This is part of the Gaussian(R) 16 program.  It is based on
 the Gaussian(R) 09 system (copyright 2009, Gaussian, Inc.),
 the Gaussian(R) 03 system (copyright 2003, Gaussian, Inc.),
 the Gaussian(R) 98 system (copyright 1998, Gaussian, Inc.),
 the Gaussian(R) 94 system (copyright 1995, Gaussian, Inc.),
 the Gaussian 92(TM) system (copyright 1992, Gaussian, Inc.),
 the Gaussian 90(TM) system (copyright 1990, Gaussian, Inc.),
 the Gaussian 88(TM) system (copyright 1988, Gaussian, Inc.),
 the Gaussian 86(TM) system (copyright 1986, Carnegie Mellon
 University), and the Gaussian 82(TM) system (copyright 1983,
 Carnegie Mellon University). Gaussian is a federally registered
 trademark of Gaussian, Inc.
  
 This software contains proprietary and confidential information,
 including trade secrets, belonging to Gaussian, Inc.
  
 This software is provided under written license and may be
 used, copied, transmitted, or stored only in accord with that
 written license.
  
 The following legend is applicable only to US Government
 contracts under FAR:
  
                    RESTRICTED RIGHTS LEGEND
  
 Use, reproduction and disclosure by the US Government is
 subject to restrictions as set forth in subparagraphs (a)
 and (c) of the Commercial Computer Software - Restricted
 Rights clause in FAR 52.227-19.
  
 Gaussian, Inc.
 340 Quinnipiac St., Bldg. 40, Wallingford CT 06492
  
  
 ---------------------------------------------------------------
 Warning -- This program may not be used in any manner that
 competes with the business of Gaussian, Inc. or will provide
 assistance to any competitor of Gaussian, Inc.  The licensee
 of this program is prohibited from giving any competitor of
 Gaussian, Inc. access to this program.  By using this program,
 the user acknowledges that Gaussian, Inc. is engaged in the
 business of creating and licensing software in the field of
 computational chemistry and represents and warrants to the
 licensee that it is not a competitor of Gaussian, Inc. and that
 it will not use this program in any manner prohibited above.
 ---------------------------------------------------------------
  

 Cite this work as:
 Gaussian 16, Revision C.01,
 M. J. Frisch, G. W. Trucks, H. B. Schlegel, G. E. Scuseria, 
 M. A. Robb, J. R. Cheeseman, G. Scalmani, V. Barone, 
 G. A. Petersson, H. Nakatsuji, X. Li, M. Caricato, A. V. Marenich, 
 J. Bloino, B. G. Janesko, R. Gomperts, B. Mennucci, H. P. Hratchian, 
 J. V. Ortiz, A. F. Izmaylov, J. L. Sonnenberg, D. Williams-Young, 
 F. Ding, F. Lipparini, F. Egidi, J. Goings, B. Peng, A. Petrone, 
 T. Henderson, D. Ranasinghe, V. G. Zakrzewski, J. Gao, N. Rega, 
 G. Zheng, W. Liang, M. Hada, M. Ehara, K. Toyota, R. Fukuda, 
 J. Hasegawa, M. Ishida, T. Nakajima, Y. Honda, O. Kitao, H. Nakai, 
 T. Vreven, K. Throssell, J. A. Montgomery, Jr., J. E. Peralta, 
 F. Ogliaro, M. J. Bearpark, J. J. Heyd, E. N. Brothers, K. N. Kudin, 
 V. N. Staroverov, T. A. Keith, R. Kobayashi, J. Normand, 
 K. Raghavachari, A. P. Rendell, J. C. Burant, S. S. Iyengar, 
 J. Tomasi, M. Cossi, J. M. Millam, M. Klene, C. Adamo, R. Cammi, 
 J. W. Ochterski, R. L. Martin, K. Morokuma, O. Farkas, 
 J. B. Foresman, and D. J. Fox, Gaussian, Inc., Wallingford CT, 2019.
 
 ******************************************
 Gaussian 16:  ES64L-G16RevC.01  3-Jul-2019
                27-Oct-2021 
 ******************************************
 %mem=100GB
 %nprocshared=16
 Will use up to   16 processors via shared memory.
 ---------------------------------------------------------------
 # opt=modredundant b3lyp/6-311+g(d,p) scrf=(pcm, solvent=water)
 ---------------------------------------------------------------
 1/18=120,19=15,26=3,38=1/1,3;
 2/9=110,12=2,17=6,18=5,40=1/2;
 3/5=4,6=6,7=111,11=2,25=1,30=1,70=2201,71=1,72=1,74=-5/1,2,3;
 4//1;
 5/5=2,38=5,53=1/2;
 6/7=2,8=2,9=2,10=2,28=1/1;
 7//1,2,3,16;
 1/18=20,19=15,26=3/3(2);
 2/9=110/2;
 99//99;
 2/9=110/2;
 3/5=4,6=6,7=111,11=2,25=1,30=1,70=2205,71=1,72=1,74=-5/1,2,3;
 4/5=5,16=3,69=1/1;
 5/5=2,38=5,53=1/2;
 7//1,2,3,16;
 1/18=20,19=15,26=3/3(-5);
 2/9=110/2;
 6/7=2,8=2,9=2,10=2,19=2,28=1/1;
 99/9=1/99;
 -----------
 NDI_-90.pdb
 -----------
 Symbolic Z-matrix:
 Charge =  0 Multiplicity = 1
 C                    -2.563    -2.994    -0.409 
 C                    -2.257    -1.551    -0.224 
 C                    -3.301    -0.607    -0.083 
 C                    -4.65     -1.024    -0.115 
 C                    -4.992    -2.459    -0.304 
 C                    -0.949    -1.137    -0.215 
 C                    -2.962     0.764     0.102 
 C                    -1.595     1.188     0.123 
 C                    -0.561     0.232    -0.072 
 C                    -1.328     2.616     0.446 
 C                    -3.777     3.115     0.508 
 C                    -4.035     1.679     0.268 
 C                    -5.356     1.252     0.23 
 C                    -5.672    -0.098     0.036 
 H                    -6.699    -0.442     0.008 
 H                    -6.133     1.997     0.361 
 H                    -0.19     -1.895    -0.369 
 N                    -2.432     3.476     0.608 
 N                    -3.916    -3.353    -0.438 
 O                    -1.695    -3.847    -0.532 
 O                    -6.149    -2.85     -0.34 
 O                    -4.676     3.938     0.629 
 O                    -0.212     3.097     0.596 
 C                    -2.111     4.875     0.912 
 H                    -1.54      4.931     1.84 
 H                    -1.5       5.299     0.111 
 H                    -3.05      5.414     1.003 
 C                    -4.206    -4.779    -0.625 
 H                    -3.759    -5.126    -1.559 
 H                    -3.775    -5.355     0.196 
 H                    -5.286    -4.897    -0.649 
 C                     0.876     0.482    -0.178 
 C                     1.669     0.745    -1.278 
 S                     1.879     0.298     1.261 
 C                     3.045     0.803    -0.979 
 H                     1.265     0.898    -2.266 
 C                     3.353     0.593     0.368 
 O                     4.054     1.039    -1.859 
 C                     4.647     0.633     0.989 
 C                     3.696     1.39     -3.193 
 C                     4.955     0.4       2.328 
 S                     6.126     1.001     0.106 
 H                     4.631     1.614    -3.705 
 H                     3.194     0.558    -3.7 
 H                     3.045     2.272    -3.209 
 C                     6.341     0.515     2.636 
 O                     3.955     0.099     3.197 
 C                     7.085     0.834     1.532 
 H                     6.763     0.368     3.62 
 C                     4.305    -0.168     4.551 
 H                     8.155     0.979     1.48 
 H                     4.772     0.706     5.021 
 H                     3.371    -0.398     5.063 
 H                     4.982    -1.027     4.624 
 
 The following ModRedundant input section has been read:
 D       8       9      32      33 F                                           
 

 GradGradGradGradGradGradGradGradGradGradGradGradGradGradGradGradGradGrad
 Berny optimization.
 Initialization pass.
                           ----------------------------
                           !    Initial Parameters    !
                           ! (Angstroms and Degrees)  !
 --------------------------                            --------------------------
 ! Name  Definition              Value          Derivative Info.                !
 --------------------------------------------------------------------------------
 ! R1    R(1,2)                  1.4866         estimate D2E/DX2                !
 ! R2    R(1,19)                 1.4001         estimate D2E/DX2                !
 ! R3    R(1,20)                 1.2232         estimate D2E/DX2                !
 ! R4    R(2,3)                  1.4146         estimate D2E/DX2                !
 ! R5    R(2,6)                  1.372          estimate D2E/DX2                !
 ! R6    R(3,4)                  1.4123         estimate D2E/DX2                !
 ! R7    R(3,7)                  1.4244         estimate D2E/DX2                !
 ! R8    R(4,5)                  1.4872         estimate D2E/DX2                !
 ! R9    R(4,14)                 1.3874         estimate D2E/DX2                !
 ! R10   R(5,19)                 1.4053         estimate D2E/DX2                !
 ! R11   R(5,21)                 1.2218         estimate D2E/DX2                !
 ! R12   R(6,9)                  1.4301         estimate D2E/DX2                !
 ! R13   R(6,17)                 1.0837         estimate D2E/DX2                !
 ! R14   R(7,8)                  1.4314         estimate D2E/DX2                !
 ! R15   R(7,12)                 1.4199         estimate D2E/DX2                !
 ! R16   R(8,9)                  1.4217         estimate D2E/DX2                !
 ! R17   R(8,10)                 1.4882         estimate D2E/DX2                !
 ! R18   R(9,32)                 1.4624         estimate D2E/DX2                !
 ! R19   R(10,18)                1.4088         estimate D2E/DX2                !
 ! R20   R(10,23)                1.2245         estimate D2E/DX2                !
 ! R21   R(11,12)                1.4786         estimate D2E/DX2                !
 ! R22   R(11,18)                1.3962         estimate D2E/DX2                !
 ! R23   R(11,22)                1.2248         estimate D2E/DX2                !
 ! R24   R(12,13)                1.3888         estimate D2E/DX2                !
 ! R25   R(13,14)                1.4            estimate D2E/DX2                !
 ! R26   R(13,16)                1.0844         estimate D2E/DX2                !
 ! R27   R(14,15)                1.0834         estimate D2E/DX2                !
 ! R28   R(18,24)                1.4672         estimate D2E/DX2                !
 ! R29   R(19,28)                1.4672         estimate D2E/DX2                !
 ! R30   R(24,25)                1.091          estimate D2E/DX2                !
 ! R31   R(24,26)                1.093          estimate D2E/DX2                !
 ! R32   R(24,27)                1.0865         estimate D2E/DX2                !
 ! R33   R(28,29)                1.0921         estimate D2E/DX2                !
 ! R34   R(28,30)                1.0916         estimate D2E/DX2                !
 ! R35   R(28,31)                1.0867         estimate D2E/DX2                !
 ! R36   R(32,33)                1.3813         estimate D2E/DX2                !
 ! R37   R(32,34)                1.7637         estimate D2E/DX2                !
 ! R38   R(33,35)                1.4093         estimate D2E/DX2                !
 ! R39   R(33,36)                1.0783         estimate D2E/DX2                !
 ! R40   R(34,37)                1.7485         estimate D2E/DX2                !
 ! R41   R(35,37)                1.3976         estimate D2E/DX2                !
 ! R42   R(35,38)                1.3595         estimate D2E/DX2                !
 ! R43   R(37,39)                1.4359         estimate D2E/DX2                !
 ! R44   R(38,40)                1.4251         estimate D2E/DX2                !
 ! R45   R(39,41)                1.3936         estimate D2E/DX2                !
 ! R46   R(39,42)                1.7614         estimate D2E/DX2                !
 ! R47   R(40,43)                1.0893         estimate D2E/DX2                !
 ! R48   R(40,44)                1.096          estimate D2E/DX2                !
 ! R49   R(40,45)                1.0963         estimate D2E/DX2                !
 ! R50   R(41,46)                1.4245         estimate D2E/DX2                !
 ! R51   R(41,47)                1.3586         estimate D2E/DX2                !
 ! R52   R(42,48)                1.7266         estimate D2E/DX2                !
 ! R53   R(46,48)                1.369          estimate D2E/DX2                !
 ! R54   R(46,49)                1.0807         estimate D2E/DX2                !
 ! R55   R(47,50)                1.4238         estimate D2E/DX2                !
 ! R56   R(48,51)                1.081          estimate D2E/DX2                !
 ! R57   R(50,52)                1.0968         estimate D2E/DX2                !
 ! R58   R(50,53)                1.0897         estimate D2E/DX2                !
 ! R59   R(50,54)                1.0961         estimate D2E/DX2                !
 ! A1    A(2,1,19)             116.767          estimate D2E/DX2                !
 ! A2    A(2,1,20)             122.9113         estimate D2E/DX2                !
 ! A3    A(19,1,20)            120.3217         estimate D2E/DX2                !
 ! A4    A(1,2,3)              120.5473         estimate D2E/DX2                !
 ! A5    A(1,2,6)              119.3369         estimate D2E/DX2                !
 ! A6    A(3,2,6)              120.1056         estimate D2E/DX2                !
 ! A7    A(2,3,4)              120.3743         estimate D2E/DX2                !
 ! A8    A(2,3,7)              118.662          estimate D2E/DX2                !
 ! A9    A(4,3,7)              120.9617         estimate D2E/DX2                !
 ! A10   A(3,4,5)              120.4909         estimate D2E/DX2                !
 ! A11   A(3,4,14)             120.2702         estimate D2E/DX2                !
 ! A12   A(5,4,14)             119.2382         estimate D2E/DX2                !
 ! A13   A(4,5,19)             116.7341         estimate D2E/DX2                !
 ! A14   A(4,5,21)             122.024          estimate D2E/DX2                !
 ! A15   A(19,5,21)            121.2418         estimate D2E/DX2                !
 ! A16   A(2,6,9)              123.2421         estimate D2E/DX2                !
 ! A17   A(2,6,17)             117.1119         estimate D2E/DX2                !
 ! A18   A(9,6,17)             119.589          estimate D2E/DX2                !
 ! A19   A(3,7,8)              120.9519         estimate D2E/DX2                !
 ! A20   A(3,7,12)             117.1037         estimate D2E/DX2                !
 ! A21   A(8,7,12)             121.944          estimate D2E/DX2                !
 ! A22   A(7,8,9)              119.5639         estimate D2E/DX2                !
 ! A23   A(7,8,10)             117.3064         estimate D2E/DX2                !
 ! A24   A(9,8,10)             122.9922         estimate D2E/DX2                !
 ! A25   A(6,9,8)              117.3944         estimate D2E/DX2                !
 ! A26   A(6,9,32)             115.0236         estimate D2E/DX2                !
 ! A27   A(8,9,32)             127.5648         estimate D2E/DX2                !
 ! A28   A(8,10,18)            118.042          estimate D2E/DX2                !
 ! A29   A(8,10,23)            124.5436         estimate D2E/DX2                !
 ! A30   A(18,10,23)           117.4097         estimate D2E/DX2                !
 ! A31   A(12,11,18)           115.5202         estimate D2E/DX2                !
 ! A32   A(12,11,22)           122.7205         estimate D2E/DX2                !
 ! A33   A(18,11,22)           121.7534         estimate D2E/DX2                !
 ! A34   A(7,12,11)            120.8614         estimate D2E/DX2                !
 ! A35   A(7,12,13)            121.162          estimate D2E/DX2                !
 ! A36   A(11,12,13)           117.9699         estimate D2E/DX2                !
 ! A37   A(12,13,14)           120.9948         estimate D2E/DX2                !
 ! A38   A(12,13,16)           117.8401         estimate D2E/DX2                !
 ! A39   A(14,13,16)           121.1642         estimate D2E/DX2                !
 ! A40   A(4,14,13)            119.5003         estimate D2E/DX2                !
 ! A41   A(4,14,15)            118.9169         estimate D2E/DX2                !
 ! A42   A(13,14,15)           121.5811         estimate D2E/DX2                !
 ! A43   A(10,18,11)           126.0753         estimate D2E/DX2                !
 ! A44   A(10,18,24)           115.7508         estimate D2E/DX2                !
 ! A45   A(11,18,24)           118.1737         estimate D2E/DX2                !
 ! A46   A(1,19,5)             125.0856         estimate D2E/DX2                !
 ! A47   A(1,19,28)            116.2868         estimate D2E/DX2                !
 ! A48   A(5,19,28)            118.6276         estimate D2E/DX2                !
 ! A49   A(18,24,25)           109.8574         estimate D2E/DX2                !
 ! A50   A(18,24,26)           109.8979         estimate D2E/DX2                !
 ! A51   A(18,24,27)           107.5355         estimate D2E/DX2                !
 ! A52   A(25,24,26)           108.1108         estimate D2E/DX2                !
 ! A53   A(25,24,27)           110.8301         estimate D2E/DX2                !
 ! A54   A(26,24,27)           110.6124         estimate D2E/DX2                !
 ! A55   A(19,28,29)           109.6906         estimate D2E/DX2                !
 ! A56   A(19,28,30)           109.8136         estimate D2E/DX2                !
 ! A57   A(19,28,31)           107.7461         estimate D2E/DX2                !
 ! A58   A(29,28,30)           108.2991         estimate D2E/DX2                !
 ! A59   A(29,28,31)           110.6959         estimate D2E/DX2                !
 ! A60   A(30,28,31)           110.5924         estimate D2E/DX2                !
 ! A61   A(9,32,33)            130.8725         estimate D2E/DX2                !
 ! A62   A(9,32,34)            118.8052         estimate D2E/DX2                !
 ! A63   A(33,32,34)           110.0672         estimate D2E/DX2                !
 ! A64   A(32,33,35)           113.5412         estimate D2E/DX2                !
 ! A65   A(32,33,36)           122.7907         estimate D2E/DX2                !
 ! A66   A(35,33,36)           123.6663         estimate D2E/DX2                !
 ! A67   A(32,34,37)            92.5856         estimate D2E/DX2                !
 ! A68   A(33,35,37)           114.4222         estimate D2E/DX2                !
 ! A69   A(33,35,38)           126.4747         estimate D2E/DX2                !
 ! A70   A(37,35,38)           119.103          estimate D2E/DX2                !
 ! A71   A(34,37,35)           109.3782         estimate D2E/DX2                !
 ! A72   A(34,37,39)           122.9255         estimate D2E/DX2                !
 ! A73   A(35,37,39)           127.6794         estimate D2E/DX2                !
 ! A74   A(35,38,40)           117.5315         estimate D2E/DX2                !
 ! A75   A(37,39,41)           127.595          estimate D2E/DX2                !
 ! A76   A(37,39,42)           123.0741         estimate D2E/DX2                !
 ! A77   A(41,39,42)           109.3308         estimate D2E/DX2                !
 ! A78   A(38,40,43)           105.9623         estimate D2E/DX2                !
 ! A79   A(38,40,44)           111.1678         estimate D2E/DX2                !
 ! A80   A(38,40,45)           111.1598         estimate D2E/DX2                !
 ! A81   A(43,40,44)           109.3792         estimate D2E/DX2                !
 ! A82   A(43,40,45)           109.718          estimate D2E/DX2                !
 ! A83   A(44,40,45)           109.3887         estimate D2E/DX2                !
 ! A84   A(39,41,46)           114.1609         estimate D2E/DX2                !
 ! A85   A(39,41,47)           119.2713         estimate D2E/DX2                !
 ! A86   A(46,41,47)           126.5674         estimate D2E/DX2                !
 ! A87   A(39,42,48)            91.8419         estimate D2E/DX2                !
 ! A88   A(41,46,48)           111.9155         estimate D2E/DX2                !
 ! A89   A(41,46,49)           124.4599         estimate D2E/DX2                !
 ! A90   A(48,46,49)           123.6245         estimate D2E/DX2                !
 ! A91   A(41,47,50)           117.9628         estimate D2E/DX2                !
 ! A92   A(42,48,46)           112.7509         estimate D2E/DX2                !
 ! A93   A(42,48,51)           119.8061         estimate D2E/DX2                !
 ! A94   A(46,48,51)           127.4429         estimate D2E/DX2                !
 ! A95   A(47,50,52)           111.2704         estimate D2E/DX2                !
 ! A96   A(47,50,53)           106.0047         estimate D2E/DX2                !
 ! A97   A(47,50,54)           111.2305         estimate D2E/DX2                !
 ! A98   A(52,50,53)           109.3791         estimate D2E/DX2                !
 ! A99   A(52,50,54)           109.4491         estimate D2E/DX2                !
 ! A100  A(53,50,54)           109.4317         estimate D2E/DX2                !
 ! D1    D(19,1,2,3)             0.1578         estimate D2E/DX2                !
 ! D2    D(19,1,2,6)          -178.6792         estimate D2E/DX2                !
 ! D3    D(20,1,2,3)          -179.8231         estimate D2E/DX2                !
 ! D4    D(20,1,2,6)             1.3399         estimate D2E/DX2                !
 ! D5    D(2,1,19,5)            -0.124          estimate D2E/DX2                !
 ! D6    D(2,1,19,28)          179.8267         estimate D2E/DX2                !
 ! D7    D(20,1,19,5)          179.8575         estimate D2E/DX2                !
 ! D8    D(20,1,19,28)          -0.1919         estimate D2E/DX2                !
 ! D9    D(1,2,3,4)              0.0571         estimate D2E/DX2                !
 ! D10   D(1,2,3,7)            179.5453         estimate D2E/DX2                !
 ! D11   D(6,2,3,4)            178.8851         estimate D2E/DX2                !
 ! D12   D(6,2,3,7)             -1.6266         estimate D2E/DX2                !
 ! D13   D(1,2,6,9)            178.625          estimate D2E/DX2                !
 ! D14   D(1,2,6,17)             1.3881         estimate D2E/DX2                !
 ! D15   D(3,2,6,9)             -0.2173         estimate D2E/DX2                !
 ! D16   D(3,2,6,17)          -177.4541         estimate D2E/DX2                !
 ! D17   D(2,3,4,5)             -0.3074         estimate D2E/DX2                !
 ! D18   D(2,3,4,14)           179.3968         estimate D2E/DX2                !
 ! D19   D(7,3,4,5)           -179.7837         estimate D2E/DX2                !
 ! D20   D(7,3,4,14)            -0.0795         estimate D2E/DX2                !
 ! D21   D(2,3,7,8)              1.0523         estimate D2E/DX2                !
 ! D22   D(2,3,7,12)          -178.712          estimate D2E/DX2                !
 ! D23   D(4,3,7,8)           -179.4626         estimate D2E/DX2                !
 ! D24   D(4,3,7,12)             0.7731         estimate D2E/DX2                !
 ! D25   D(3,4,5,19)             0.3343         estimate D2E/DX2                !
 ! D26   D(3,4,5,21)          -179.7799         estimate D2E/DX2                !
 ! D27   D(14,4,5,19)         -179.3729         estimate D2E/DX2                !
 ! D28   D(14,4,5,21)            0.5129         estimate D2E/DX2                !
 ! D29   D(3,4,14,13)           -0.4559         estimate D2E/DX2                !
 ! D30   D(3,4,14,15)         -179.9937         estimate D2E/DX2                !
 ! D31   D(5,4,14,13)          179.252          estimate D2E/DX2                !
 ! D32   D(5,4,14,15)           -0.2858         estimate D2E/DX2                !
 ! D33   D(4,5,19,1)            -0.1141         estimate D2E/DX2                !
 ! D34   D(4,5,19,28)          179.9364         estimate D2E/DX2                !
 ! D35   D(21,5,19,1)          179.9992         estimate D2E/DX2                !
 ! D36   D(21,5,19,28)           0.0496         estimate D2E/DX2                !
 ! D37   D(2,6,9,8)              2.5984         estimate D2E/DX2                !
 ! D38   D(2,6,9,32)          -176.0103         estimate D2E/DX2                !
 ! D39   D(17,6,9,8)           179.77           estimate D2E/DX2                !
 ! D40   D(17,6,9,32)            1.1613         estimate D2E/DX2                !
 ! D41   D(3,7,8,9)              1.3551         estimate D2E/DX2                !
 ! D42   D(3,7,8,10)          -174.5099         estimate D2E/DX2                !
 ! D43   D(12,7,8,9)          -178.8921         estimate D2E/DX2                !
 ! D44   D(12,7,8,10)            5.2428         estimate D2E/DX2                !
 ! D45   D(3,7,12,11)          178.0768         estimate D2E/DX2                !
 ! D46   D(3,7,12,13)           -0.9621         estimate D2E/DX2                !
 ! D47   D(8,7,12,11)           -1.685          estimate D2E/DX2                !
 ! D48   D(8,7,12,13)          179.2761         estimate D2E/DX2                !
 ! D49   D(7,8,9,6)             -3.0809         estimate D2E/DX2                !
 ! D50   D(7,8,9,32)           175.3285         estimate D2E/DX2                !
 ! D51   D(10,8,9,6)           172.5381         estimate D2E/DX2                !
 ! D52   D(10,8,9,32)           -9.0525         estimate D2E/DX2                !
 ! D53   D(7,8,10,18)           -4.7549         estimate D2E/DX2                !
 ! D54   D(7,8,10,23)          174.4235         estimate D2E/DX2                !
 ! D55   D(9,8,10,18)          179.5335         estimate D2E/DX2                !
 ! D56   D(9,8,10,23)           -1.2882         estimate D2E/DX2                !
 ! D57   D(6,9,32,33)           88.461          estimate D2E/DX2                !
 ! D58   D(6,9,32,34)          -85.1014         estimate D2E/DX2                !
 ! D59   D(8,9,32,33)          -89.9805         Frozen                          !
 ! D60   D(8,9,32,34)           96.4571         estimate D2E/DX2                !
 ! D61   D(8,10,18,11)           0.7189         estimate D2E/DX2                !
 ! D62   D(8,10,18,24)        -179.4089         estimate D2E/DX2                !
 ! D63   D(23,10,18,11)       -178.5188         estimate D2E/DX2                !
 ! D64   D(23,10,18,24)          1.3535         estimate D2E/DX2                !
 ! D65   D(18,11,12,7)          -2.3856         estimate D2E/DX2                !
 ! D66   D(18,11,12,13)        176.6833         estimate D2E/DX2                !
 ! D67   D(22,11,12,7)         178.4862         estimate D2E/DX2                !
 ! D68   D(22,11,12,13)         -2.445          estimate D2E/DX2                !
 ! D69   D(12,11,18,10)          2.8444         estimate D2E/DX2                !
 ! D70   D(12,11,18,24)       -177.0251         estimate D2E/DX2                !
 ! D71   D(22,11,18,10)       -178.0181         estimate D2E/DX2                !
 ! D72   D(22,11,18,24)          2.1124         estimate D2E/DX2                !
 ! D73   D(7,12,13,14)           0.461          estimate D2E/DX2                !
 ! D74   D(7,12,13,16)        -179.8781         estimate D2E/DX2                !
 ! D75   D(11,12,13,14)       -178.6049         estimate D2E/DX2                !
 ! D76   D(11,12,13,16)          1.056          estimate D2E/DX2                !
 ! D77   D(12,13,14,4)           0.2708         estimate D2E/DX2                !
 ! D78   D(12,13,14,15)        179.7958         estimate D2E/DX2                !
 ! D79   D(16,13,14,4)        -179.3788         estimate D2E/DX2                !
 ! D80   D(16,13,14,15)          0.1463         estimate D2E/DX2                !
 ! D81   D(10,18,24,25)        -59.609          estimate D2E/DX2                !
 ! D82   D(10,18,24,26)         59.2209         estimate D2E/DX2                !
 ! D83   D(10,18,24,27)        179.6858         estimate D2E/DX2                !
 ! D84   D(11,18,24,25)        120.2739         estimate D2E/DX2                !
 ! D85   D(11,18,24,26)       -120.8962         estimate D2E/DX2                !
 ! D86   D(11,18,24,27)         -0.4313         estimate D2E/DX2                !
 ! D87   D(1,19,28,29)         -58.1407         estimate D2E/DX2                !
 ! D88   D(1,19,28,30)          60.7668         estimate D2E/DX2                !
 ! D89   D(1,19,28,31)        -178.7139         estimate D2E/DX2                !
 ! D90   D(5,19,28,29)         121.8132         estimate D2E/DX2                !
 ! D91   D(5,19,28,30)        -119.2792         estimate D2E/DX2                !
 ! D92   D(5,19,28,31)           1.2401         estimate D2E/DX2                !
 ! D93   D(9,32,33,35)        -174.198          estimate D2E/DX2                !
 ! D94   D(9,32,33,36)           6.273          estimate D2E/DX2                !
 ! D95   D(34,32,33,35)         -0.202          estimate D2E/DX2                !
 ! D96   D(34,32,33,36)       -179.731          estimate D2E/DX2                !
 ! D97   D(9,32,34,37)         175.3479         estimate D2E/DX2                !
 ! D98   D(33,32,34,37)          0.5266         estimate D2E/DX2                !
 ! D99   D(32,33,35,37)         -0.3529         estimate D2E/DX2                !
 ! D100  D(32,33,35,38)        179.7492         estimate D2E/DX2                !
 ! D101  D(36,33,35,37)        179.1713         estimate D2E/DX2                !
 ! D102  D(36,33,35,38)         -0.7265         estimate D2E/DX2                !
 ! D103  D(32,34,37,35)         -0.7085         estimate D2E/DX2                !
 ! D104  D(32,34,37,39)        177.8985         estimate D2E/DX2                !
 ! D105  D(33,35,37,34)          0.7342         estimate D2E/DX2                !
 ! D106  D(33,35,37,39)       -177.7884         estimate D2E/DX2                !
 ! D107  D(38,35,37,34)       -179.3599         estimate D2E/DX2                !
 ! D108  D(38,35,37,39)          2.1175         estimate D2E/DX2                !
 ! D109  D(33,35,38,40)          6.468          estimate D2E/DX2                !
 ! D110  D(37,35,38,40)       -173.4255         estimate D2E/DX2                !
 ! D111  D(34,37,39,41)          2.9008         estimate D2E/DX2                !
 ! D112  D(34,37,39,42)       -177.1748         estimate D2E/DX2                !
 ! D113  D(35,37,39,41)       -178.7596         estimate D2E/DX2                !
 ! D114  D(35,37,39,42)          1.1648         estimate D2E/DX2                !
 ! D115  D(35,38,40,43)        175.4756         estimate D2E/DX2                !
 ! D116  D(35,38,40,44)        -65.783          estimate D2E/DX2                !
 ! D117  D(35,38,40,45)         56.3316         estimate D2E/DX2                !
 ! D118  D(37,39,41,46)        179.9761         estimate D2E/DX2                !
 ! D119  D(37,39,41,47)         -0.2136         estimate D2E/DX2                !
 ! D120  D(42,39,41,46)          0.0432         estimate D2E/DX2                !
 ! D121  D(42,39,41,47)        179.8535         estimate D2E/DX2                !
 ! D122  D(37,39,42,48)       -179.9602         estimate D2E/DX2                !
 ! D123  D(41,39,42,48)         -0.0237         estimate D2E/DX2                !
 ! D124  D(39,41,46,48)         -0.0455         estimate D2E/DX2                !
 ! D125  D(39,41,46,49)       -179.9465         estimate D2E/DX2                !
 ! D126  D(47,41,46,48)       -179.8396         estimate D2E/DX2                !
 ! D127  D(47,41,46,49)          0.2595         estimate D2E/DX2                !
 ! D128  D(39,41,47,50)        178.3952         estimate D2E/DX2                !
 ! D129  D(46,41,47,50)         -1.8202         estimate D2E/DX2                !
 ! D130  D(39,42,48,46)         -0.0014         estimate D2E/DX2                !
 ! D131  D(39,42,48,51)        179.8731         estimate D2E/DX2                !
 ! D132  D(41,46,48,42)          0.026          estimate D2E/DX2                !
 ! D133  D(41,46,48,51)       -179.8369         estimate D2E/DX2                !
 ! D134  D(49,46,48,42)        179.9279         estimate D2E/DX2                !
 ! D135  D(49,46,48,51)          0.065          estimate D2E/DX2                !
 ! D136  D(41,47,50,52)         62.0354         estimate D2E/DX2                !
 ! D137  D(41,47,50,53)       -179.1424         estimate D2E/DX2                !
 ! D138  D(41,47,50,54)        -60.2787         estimate D2E/DX2                !
 --------------------------------------------------------------------------------
 Trust Radius=3.00D-01 FncErr=1.00D-07 GrdErr=1.00D-06 EigMax=2.50D+02 EigMin=1.00D-04
 Number of steps in this run=    307 maximum allowed number of steps=    324.
 GradGradGradGradGradGradGradGradGradGradGradGradGradGradGradGradGradGrad

 Stoichiometry    C26H18N2O6S2
 Framework group  C1[X(C26H18N2O6S2)]
 Deg. of freedom   156
 Full point group                 C1      NOp   1
 Largest Abelian subgroup         C1      NOp   1
 Largest concise Abelian subgroup C1      NOp   1
                         Standard orientation:                         
 ---------------------------------------------------------------------
 Center     Atomic      Atomic             Coordinates (Angstroms)
 Number     Number       Type             X           Y           Z
 ---------------------------------------------------------------------
      1          6           0        3.077783   -2.896322    0.145631
      2          6           0        2.535121   -1.512285    0.137321
      3          6           0        3.398803   -0.402313   -0.014232
      4          6           0        4.790222   -0.594934   -0.161083
      5          6           0        5.367454   -1.965564   -0.151673
      6          6           0        1.187067   -1.317818    0.302476
      7          6           0        2.834777    0.905553   -0.026362
      8          6           0        1.425899    1.101217    0.133903
      9          6           0        0.580136   -0.023362    0.336695
     10          6           0        0.907786    2.488211   -0.016458
     11          6           0        3.227587    3.383301   -0.276816
     12          6           0        3.728456    1.993797   -0.208494
     13          6           0        5.094624    1.786285   -0.347559
     14          6           0        5.633909    0.494574   -0.322093
     15          1           0        6.697687    0.321542   -0.432933
     16          1           0        5.727903    2.656238   -0.481922
     17          1           0        0.576113   -2.199508    0.456483
     18          7           0        1.840772    3.527106   -0.203258
     19          7           0        4.463901   -3.031019    0.001181
     20          8           0        2.370803   -3.886642    0.270558
     21          8           0        6.566933   -2.164263   -0.272478
     22          8           0        3.969814    4.349017   -0.405900
     23          8           0       -0.278467    2.791454   -0.003693
     24          6           0        1.276310    4.875220   -0.332217
     25          1           0        0.599647    4.913448   -1.187218
     26          1           0        0.704772    5.126597    0.564918
     27          1           0        2.104748    5.565769   -0.463957
     28          6           0        4.988491   -4.401116    0.014789
     29          1           0        4.711358   -4.891960    0.950119
     30          1           0        4.558384   -4.970223   -0.811470
     31          1           0        6.069222   -4.342977   -0.082882
     32          6           0       -0.856061   -0.020628    0.612445
     33          6           0       -1.546854    0.018196    1.807985
     34         16           0       -1.979258   -0.246806   -0.728397
     35          6           0       -2.940811   -0.124599    1.657534
     36          1           0       -1.059108    0.153286    2.760153
     37          6           0       -3.367295   -0.270561    0.334590
     38          8           0       -3.864987   -0.129460    2.654555
     39          6           0       -4.715403   -0.391209   -0.144707
     40          6           0       -3.412527    0.164354    3.973599
     41          6           0       -5.137437   -0.560442   -1.462023
     42         16           0       -6.120681   -0.343185    0.916161
     43          1           0       -4.304963    0.190015    4.597653
     44          1           0       -2.733664   -0.613467    4.341591
     45          1           0       -2.906808    1.136370    4.011182
     46          6           0       -6.550978   -0.648086   -1.614689
     47          8           0       -4.210867   -0.621859   -2.453717
     48          6           0       -7.201792   -0.546542   -0.414588
     49          1           0       -7.056843   -0.780541   -2.560472
     50          6           0       -4.670656   -0.830137   -3.785002
     51          1           0       -8.268020   -0.582752   -0.240016
     52          1           0       -5.317304   -0.008357   -4.115741
     53          1           0       -3.778282   -0.861860   -4.409552
     54          1           0       -5.212028   -1.779095   -3.874075
 ---------------------------------------------------------------------
 Rotational constants (GHZ):           0.1585003           0.0543896           0.0472564
 Standard basis: 6-311+G(d,p) (5D, 7F)
 There are   952 symmetry adapted cartesian basis functions of A   symmetry.
 There are   916 symmetry adapted basis functions of A   symmetry.
   916 basis functions,  1468 primitive gaussians,   952 cartesian basis functions
   134 alpha electrons      134 beta electrons
       nuclear repulsion energy      4076.8633767250 Hartrees.
 NAtoms=   54 NActive=   54 NUniq=   54 SFac= 1.00D+00 NAtFMM=   60 NAOKFM=F Big=F
 Integral buffers will be    131072 words long.
 Raffenetti 2 integral format.
 Two-electron integral symmetry is turned on.
 ------------------------------------------------------------------------------
 Polarizable Continuum Model (PCM)
 =================================
 Model                : PCM.
 Atomic radii         : UFF (Universal Force Field).
 Polarization charges : Total charges.
 Charge compensation  : None.
 Solution method      : On-the-fly selection.
 Cavity type          : Scaled VdW (van der Waals Surface) (Alpha=1.100).
 Cavity algorithm     : GePol (No added spheres)
                        Default sphere list used, NSphG=   54.
                        Lebedev-Laikov grids with approx.  5.0 points / Ang**2.
                        Smoothing algorithm: York/Karplus (Gamma=1.0000).
                        Polarization charges: spherical gaussians, with
                                              point-specific exponents (IZeta= 3).
                        Self-potential: point-specific (ISelfS= 7).
                        Self-field    : sphere-specific E.n sum rule (ISelfD= 2).
 1st derivatives      : Analytical E(r).r(x)/FMM algorithm (CHGder, D1EAlg=3).
                        Cavity 1st derivative terms included.
 Solvent              : Water, Eps=  78.355300 Eps(inf)=   1.777849
 ------------------------------------------------------------------------------
 One-electron integrals computed using PRISM.
 NBasis=   916 RedAO= T EigKep=  1.48D-06  NBF=   916
 NBsUse=   901 1.00D-06 EigRej=  9.77D-07 NBFU=   901
 ExpMin= 4.05D-02 ExpMax= 9.34D+04 ExpMxC= 3.17D+03 IAcc=3 IRadAn=         5 AccDes= 0.00D+00
 Harris functional with IExCor=  402 and IRadAn=       5 diagonalized for initial guess.
 HarFok:  IExCor=  402 AccDes= 0.00D+00 IRadAn=         5 IDoV= 1 UseB2=F ITyADJ=14
 ICtDFT=  3500011 ScaDFX=  1.000000  1.000000  1.000000  1.000000
 FoFCou: FMM=F IPFlag=           0 FMFlag=      100000 FMFlg1=           0
         NFxFlg=           0 DoJE=T BraDBF=F KetDBF=T FulRan=T
         wScrn=  0.000000 ICntrl=       500 IOpCl=  0 I1Cent=   200000004 NGrid=           0
         NMat0=    1 NMatS0=      1 NMatT0=    0 NMatD0=    1 NMtDS0=    0 NMtDT0=    0
 Petite list used in FoFCou.
 Requested convergence on RMS density matrix=1.00D-08 within 128 cycles.
 Requested convergence on MAX density matrix=1.00D-06.
 Requested convergence on             energy=1.00D-06.
 No special actions if energy rises.
 Inv3:  Mode=1 IEnd=    54060075.
 Iteration    1 A*A^-1 deviation from unit magnitude is 6.22D-15 for   4231.
 Iteration    1 A*A^-1 deviation from orthogonality  is 2.60D-15 for   4245   4244.
 Iteration    1 A^-1*A deviation from unit magnitude is 6.00D-15 for   4231.
 Iteration    1 A^-1*A deviation from orthogonality  is 2.44D-15 for   2574   1205.
 Error on total polarization charges =  0.02294
 SCF Done:  E(RB3LYP) =  -2359.35318677     A.U. after   17 cycles
            NFock= 17  Conv=0.46D-08     -V/T= 2.0032

 **********************************************************************

            Population analysis using the SCF Density.

 **********************************************************************

 Orbital symmetries:
       Occupied  (A) (A) (A) (A) (A) (A) (A) (A) (A) (A) (A) (A)
                 (A) (A) (A) (A) (A) (A) (A) (A) (A) (A) (A) (A)
                 (A) (A) (A) (A) (A) (A) (A) (A) (A) (A) (A) (A)
                 (A) (A) (A) (A) (A) (A) (A) (A) (A) (A) (A) (A)
                 (A) (A) (A) (A) (A) (A) (A) (A) (A) (A) (A) (A)
                 (A) (A) (A) (A) (A) (A) (A) (A) (A) (A) (A) (A)
                 (A) (A) (A) (A) (A) (A) (A) (A) (A) (A) (A) (A)
                 (A) (A) (A) (A) (A) (A) (A) (A) (A) (A) (A) (A)
                 (A) (A) (A) (A) (A) (A) (A) (A) (A) (A) (A) (A)
                 (A) (A) (A) (A) (A) (A) (A) (A) (A) (A) (A) (A)
                 (A) (A) (A) (A) (A) (A) (A) (A) (A) (A) (A) (A)
                 (A) (A)
       Virtual   (A) (A) (A) (A) (A) (A) (A) (A) (A) (A) (A) (A)
                 (A) (A) (A) (A) (A) (A) (A) (A) (A) (A) (A) (A)
                 (A) (A) (A) (A) (A) (A) (A) (A) (A) (A) (A) (A)
                 (A) (A) (A) (A) (A) (A) (A) (A) (A) (A) (A) (A)
                 (A) (A) (A) (A) (A) (A) (A) (A) (A) (A) (A) (A)
                 (A) (A) (A) (A) (A) (A) (A) (A) (A) (A) (A) (A)
                 (A) (A) (A) (A) (A) (A) (A) (A) (A) (A) (A) (A)
                 (A) (A) (A) (A) (A) (A) (A) (A) (A) (A) (A) (A)
                 (A) (A) (A) (A) (A) (A) (A) (A) (A) (A) (A) (A)
                 (A) (A) (A) (A) (A) (A) (A) (A) (A) (A) (A) (A)
                 (A) (A) (A) (A) (A) (A) (A) (A) (A) (A) (A) (A)
                 (A) (A) (A) (A) (A) (A) (A) (A) (A) (A) (A) (A)
                 (A) (A) (A) (A) (A) (A) (A) (A) (A) (A) (A) (A)
                 (A) (A) (A) (A) (A) (A) (A) (A) (A) (A) (A) (A)
                 (A) (A) (A) (A) (A) (A) (A) (A) (A) (A) (A) (A)
                 (A) (A) (A) (A) (A) (A) (A) (A) (A) (A) (A) (A)
                 (A) (A) (A) (A) (A) (A) (A) (A) (A) (A) (A) (A)
                 (A) (A) (A) (A) (A) (A) (A) (A) (A) (A) (A) (A)
                 (A) (A) (A) (A) (A) (A) (A) (A) (A) (A) (A) (A)
                 (A) (A) (A) (A) (A) (A) (A) (A) (A) (A) (A) (A)
                 (A) (A) (A) (A) (A) (A) (A) (A) (A) (A) (A) (A)
                 (A) (A) (A) (A) (A) (A) (A) (A) (A) (A) (A) (A)
                 (A) (A) (A) (A) (A) (A) (A) (A) (A) (A) (A) (A)
                 (A) (A) (A) (A) (A) (A) (A) (A) (A) (A) (A) (A)
                 (A) (A) (A) (A) (A) (A) (A) (A) (A) (A) (A) (A)
                 (A) (A) (A) (A) (A) (A) (A) (A) (A) (A) (A) (A)
                 (A) (A) (A) (A) (A) (A) (A) (A) (A) (A) (A) (A)
                 (A) (A) (A) (A) (A) (A) (A) (A) (A) (A) (A) (A)
                 (A) (A) (A) (A) (A) (A) (A) (A) (A) (A) (A) (A)
                 (A) (A) (A) (A) (A) (A) (A) (A) (A) (A) (A) (A)
                 (A) (A) (A) (A) (A) (A) (A) (A) (A) (A) (A) (A)
                 (A) (A) (A) (A) (A) (A) (A) (A) (A) (A) (A) (A)
                 (A) (A) (A) (A) (A) (A) (A) (A) (A) (A) (A) (A)
                 (A) (A) (A) (A) (A) (A) (A) (A) (A) (A) (A) (A)
                 (A) (A) (A) (A) (A) (A) (A) (A) (A) (A) (A) (A)
                 (A) (A) (A) (A) (A) (A) (A) (A) (A) (A) (A) (A)
                 (A) (A) (A) (A) (A) (A) (A) (A) (A) (A) (A) (A)
                 (A) (A) (A) (A) (A) (A) (A) (A) (A) (A) (A) (A)
                 (A) (A) (A) (A) (A) (A) (A) (A) (A) (A) (A) (A)
                 (A) (A) (A) (A) (A) (A) (A) (A) (A) (A) (A) (A)
                 (A) (A) (A) (A) (A) (A) (A) (A) (A) (A) (A) (A)
                 (A) (A) (A) (A) (A) (A) (A) (A) (A) (A) (A) (A)
                 (A) (A) (A) (A) (A) (A) (A) (A) (A) (A) (A) (A)
                 (A) (A) (A) (A) (A) (A) (A) (A) (A) (A) (A) (A)
                 (A) (A) (A) (A) (A) (A) (A) (A) (A) (A) (A) (A)
                 (A) (A) (A) (A) (A) (A) (A) (A) (A) (A) (A) (A)
                 (A) (A) (A) (A) (A) (A) (A) (A) (A) (A) (A) (A)
                 (A) (A) (A) (A) (A) (A) (A) (A) (A) (A) (A) (A)
                 (A) (A) (A) (A) (A) (A) (A) (A) (A) (A) (A) (A)
                 (A) (A) (A) (A) (A) (A) (A) (A) (A) (A) (A) (A)
                 (A) (A) (A) (A) (A) (A) (A) (A) (A) (A) (A) (A)
                 (A) (A) (A) (A) (A) (A) (A) (A) (A) (A) (A) (A)
                 (A) (A) (A) (A) (A) (A) (A) (A) (A) (A) (A) (A)
                 (A) (A) (A) (A) (A) (A) (A) (A) (A) (A) (A) (A)
                 (A) (A) (A) (A) (A) (A) (A) (A) (A) (A) (A) (A)
                 (A) (A) (A) (A) (A) (A) (A) (A) (A) (A) (A) (A)
                 (A) (A) (A) (A) (A) (A) (A) (A) (A) (A) (A) (A)
                 (A) (A) (A) (A) (A) (A) (A) (A) (A) (A) (A) (A)
                 (A) (A) (A) (A) (A) (A) (A) (A) (A) (A) (A) (A)
                 (A) (A) (A) (A) (A) (A) (A) (A) (A) (A) (A) (A)
                 (A) (A) (A) (A) (A) (A) (A) (A) (A) (A) (A) (A)
                 (A) (A) (A) (A) (A) (A) (A) (A) (A) (A) (A) (A)
                 (A) (A) (A) (A) (A) (A) (A) (A) (A) (A) (A) (A)
                 (A) (A) (A) (A) (A) (A) (A) (A) (A) (A) (A)
 The electronic state is 1-A.
 Alpha  occ. eigenvalues --  -88.88442 -88.88262 -19.16677 -19.16663 -19.13223
 Alpha  occ. eigenvalues --  -19.13213 -19.12898 -19.12871 -14.39087 -14.38798
 Alpha  occ. eigenvalues --  -10.31806 -10.31680 -10.31650 -10.31377 -10.24371
 Alpha  occ. eigenvalues --  -10.24335 -10.24332 -10.23914 -10.23435 -10.23090
 Alpha  occ. eigenvalues --  -10.22730 -10.22674 -10.22674 -10.22670 -10.22660
 Alpha  occ. eigenvalues --  -10.22220 -10.21749 -10.21667 -10.21642 -10.21542
 Alpha  occ. eigenvalues --  -10.21484 -10.20993 -10.20784 -10.20455 -10.18948
 Alpha  occ. eigenvalues --  -10.18516  -7.96979  -7.96821  -5.93301  -5.93128
 Alpha  occ. eigenvalues --   -5.92913  -5.92744  -5.92525  -5.92393  -1.09129
 Alpha  occ. eigenvalues --   -1.08880  -1.08264  -1.08183  -1.07361  -1.07011
 Alpha  occ. eigenvalues --   -0.96684  -0.96282  -0.92680  -0.90132  -0.88560
 Alpha  occ. eigenvalues --   -0.86807  -0.84633  -0.80584  -0.78858  -0.77507
 Alpha  occ. eigenvalues --   -0.76041  -0.75452  -0.74927  -0.73062  -0.72586
 Alpha  occ. eigenvalues --   -0.71994  -0.69895  -0.68783  -0.67589  -0.66141
 Alpha  occ. eigenvalues --   -0.65688  -0.65029  -0.61091  -0.59744  -0.58807
 Alpha  occ. eigenvalues --   -0.57691  -0.56676  -0.55716  -0.55493  -0.54389
 Alpha  occ. eigenvalues --   -0.53839  -0.52047  -0.50426  -0.50349  -0.49941
 Alpha  occ. eigenvalues --   -0.49521  -0.49375  -0.48756  -0.48130  -0.47845
 Alpha  occ. eigenvalues --   -0.47782  -0.47626  -0.47081  -0.46914  -0.45968
 Alpha  occ. eigenvalues --   -0.45561  -0.45264  -0.45044  -0.44317  -0.44112
 Alpha  occ. eigenvalues --   -0.42931  -0.42837  -0.42430  -0.41994  -0.41689
 Alpha  occ. eigenvalues --   -0.41428  -0.41318  -0.41285  -0.40756  -0.40150
 Alpha  occ. eigenvalues --   -0.39700  -0.39006  -0.38570  -0.37904  -0.37514
 Alpha  occ. eigenvalues --   -0.36096  -0.35527  -0.34169  -0.33684  -0.33541
 Alpha  occ. eigenvalues --   -0.33254  -0.32516  -0.31799  -0.30935  -0.30039
 Alpha  occ. eigenvalues --   -0.29780  -0.29514  -0.29213  -0.28527  -0.28039
 Alpha  occ. eigenvalues --   -0.26610  -0.25050  -0.24627  -0.19227
 Alpha virt. eigenvalues --   -0.13729  -0.07273  -0.06133  -0.05463  -0.05220
 Alpha virt. eigenvalues --   -0.00744  -0.00608   0.00106   0.00321   0.00571
 Alpha virt. eigenvalues --    0.00713   0.00741   0.00888   0.01303   0.02117
 Alpha virt. eigenvalues --    0.02372   0.02647   0.02850   0.02929   0.03360
 Alpha virt. eigenvalues --    0.03556   0.03845   0.03988   0.04232   0.04408
 Alpha virt. eigenvalues --    0.04851   0.04912   0.05202   0.05588   0.05622
 Alpha virt. eigenvalues --    0.06091   0.06268   0.06485   0.06656   0.06734
 Alpha virt. eigenvalues --    0.07347   0.07449   0.07851   0.08213   0.08405
 Alpha virt. eigenvalues --    0.08576   0.08645   0.08836   0.09045   0.09301
 Alpha virt. eigenvalues --    0.09508   0.09688   0.09960   0.10215   0.10644
 Alpha virt. eigenvalues --    0.10693   0.11118   0.11215   0.11765   0.11965
 Alpha virt. eigenvalues --    0.12128   0.12505   0.12735   0.13080   0.13255
 Alpha virt. eigenvalues --    0.13688   0.13821   0.13960   0.14220   0.14341
 Alpha virt. eigenvalues --    0.14526   0.14709   0.14748   0.14820   0.15517
 Alpha virt. eigenvalues --    0.15577   0.15717   0.15807   0.15946   0.16161
 Alpha virt. eigenvalues --    0.16403   0.16801   0.16933   0.17283   0.17382
 Alpha virt. eigenvalues --    0.17875   0.17971   0.18300   0.18342   0.18498
 Alpha virt. eigenvalues --    0.18786   0.19022   0.19376   0.19610   0.19750
 Alpha virt. eigenvalues --    0.19863   0.19969   0.20154   0.20282   0.20392
 Alpha virt. eigenvalues --    0.20502   0.20671   0.20865   0.20993   0.21222
 Alpha virt. eigenvalues --    0.21433   0.21687   0.21928   0.21996   0.22222
 Alpha virt. eigenvalues --    0.22512   0.22672   0.22995   0.23094   0.23251
 Alpha virt. eigenvalues --    0.23352   0.23639   0.23788   0.24053   0.24191
 Alpha virt. eigenvalues --    0.24406   0.24554   0.24774   0.24988   0.25206
 Alpha virt. eigenvalues --    0.25376   0.25595   0.25758   0.26108   0.26230
 Alpha virt. eigenvalues --    0.26322   0.26604   0.26647   0.26785   0.27264
 Alpha virt. eigenvalues --    0.27357   0.27858   0.27892   0.28030   0.28198
 Alpha virt. eigenvalues --    0.28320   0.28529   0.28574   0.28828   0.29144
 Alpha virt. eigenvalues --    0.29233   0.29420   0.29734   0.29836   0.30301
 Alpha virt. eigenvalues --    0.30510   0.30592   0.30728   0.31122   0.31377
 Alpha virt. eigenvalues --    0.31711   0.31808   0.31935   0.32078   0.32368
 Alpha virt. eigenvalues --    0.32796   0.33126   0.33493   0.33659   0.33973
 Alpha virt. eigenvalues --    0.34177   0.34307   0.35095   0.35152   0.35409
 Alpha virt. eigenvalues --    0.35620   0.36119   0.36596   0.37135   0.37351
 Alpha virt. eigenvalues --    0.37675   0.37951   0.38397   0.38446   0.39270
 Alpha virt. eigenvalues --    0.39356   0.40071   0.40549   0.41086   0.41217
 Alpha virt. eigenvalues --    0.41767   0.42114   0.42299   0.43101   0.43508
 Alpha virt. eigenvalues --    0.44139   0.44193   0.44565   0.44788   0.45249
 Alpha virt. eigenvalues --    0.45767   0.45926   0.46120   0.46276   0.46693
 Alpha virt. eigenvalues --    0.47269   0.47742   0.47904   0.48825   0.48953
 Alpha virt. eigenvalues --    0.49418   0.49907   0.50131   0.50424   0.51288
 Alpha virt. eigenvalues --    0.51889   0.52406   0.53189   0.53475   0.53635
 Alpha virt. eigenvalues --    0.54585   0.54848   0.55302   0.55494   0.55902
 Alpha virt. eigenvalues --    0.55963   0.56495   0.56744   0.57186   0.57338
 Alpha virt. eigenvalues --    0.57841   0.58253   0.58569   0.59168   0.59289
 Alpha virt. eigenvalues --    0.60130   0.60549   0.60672   0.60998   0.61535
 Alpha virt. eigenvalues --    0.61903   0.62376   0.62650   0.63122   0.63531
 Alpha virt. eigenvalues --    0.63617   0.63921   0.64145   0.64812   0.65089
 Alpha virt. eigenvalues --    0.65490   0.65585   0.65795   0.65981   0.66971
 Alpha virt. eigenvalues --    0.67244   0.67919   0.68076   0.68262   0.68441
 Alpha virt. eigenvalues --    0.69122   0.69568   0.69916   0.70285   0.70752
 Alpha virt. eigenvalues --    0.70860   0.71115   0.71468   0.71976   0.72588
 Alpha virt. eigenvalues --    0.72989   0.73292   0.73390   0.74024   0.74105
 Alpha virt. eigenvalues --    0.74779   0.74854   0.75053   0.75200   0.75563
 Alpha virt. eigenvalues --    0.75614   0.75727   0.76311   0.76606   0.76956
 Alpha virt. eigenvalues --    0.77665   0.77838   0.77869   0.78251   0.78783
 Alpha virt. eigenvalues --    0.79546   0.80126   0.80388   0.81176   0.82221
 Alpha virt. eigenvalues --    0.82943   0.83638   0.84355   0.84677   0.85333
 Alpha virt. eigenvalues --    0.86220   0.86763   0.87199   0.87627   0.88120
 Alpha virt. eigenvalues --    0.88182   0.88612   0.89446   0.90257   0.90650
 Alpha virt. eigenvalues --    0.91151   0.91495   0.92365   0.92627   0.93001
 Alpha virt. eigenvalues --    0.93396   0.94053   0.94317   0.94482   0.95118
 Alpha virt. eigenvalues --    0.95304   0.95917   0.96073   0.96508   0.97273
 Alpha virt. eigenvalues --    0.97630   0.98235   0.99202   1.00062   1.00595
 Alpha virt. eigenvalues --    1.01203   1.01238   1.01679   1.01768   1.02310
 Alpha virt. eigenvalues --    1.03000   1.03490   1.03824   1.04148   1.04637
 Alpha virt. eigenvalues --    1.04767   1.05073   1.05349   1.05630   1.05779
 Alpha virt. eigenvalues --    1.06531   1.07227   1.07599   1.07809   1.08179
 Alpha virt. eigenvalues --    1.08678   1.09625   1.09935   1.10355   1.11087
 Alpha virt. eigenvalues --    1.11206   1.11886   1.12597   1.13582   1.13826
 Alpha virt. eigenvalues --    1.14962   1.15446   1.16287   1.17414   1.17548
 Alpha virt. eigenvalues --    1.17699   1.18253   1.18678   1.19956   1.20680
 Alpha virt. eigenvalues --    1.21094   1.21915   1.23958   1.24894   1.25100
 Alpha virt. eigenvalues --    1.25193   1.25801   1.26049   1.26292   1.26983
 Alpha virt. eigenvalues --    1.27531   1.27940   1.29145   1.29740   1.30989
 Alpha virt. eigenvalues --    1.31955   1.32416   1.33410   1.33490   1.35284
 Alpha virt. eigenvalues --    1.35350   1.35955   1.36869   1.37287   1.38662
 Alpha virt. eigenvalues --    1.40306   1.40710   1.42075   1.42302   1.42992
 Alpha virt. eigenvalues --    1.43169   1.43487   1.43598   1.44114   1.44323
 Alpha virt. eigenvalues --    1.44614   1.44779   1.44923   1.45694   1.46031
 Alpha virt. eigenvalues --    1.46478   1.46554   1.47353   1.48205   1.49773
 Alpha virt. eigenvalues --    1.50126   1.50715   1.51261   1.51764   1.52475
 Alpha virt. eigenvalues --    1.52919   1.53612   1.53970   1.54183   1.54950
 Alpha virt. eigenvalues --    1.55326   1.55519   1.56002   1.56649   1.57586
 Alpha virt. eigenvalues --    1.58689   1.59182   1.59834   1.60762   1.61536
 Alpha virt. eigenvalues --    1.61788   1.62407   1.62969   1.63699   1.64295
 Alpha virt. eigenvalues --    1.64851   1.65395   1.66014   1.66672   1.67070
 Alpha virt. eigenvalues --    1.67495   1.68593   1.69456   1.69471   1.69743
 Alpha virt. eigenvalues --    1.70351   1.70560   1.70827   1.71264   1.71640
 Alpha virt. eigenvalues --    1.73058   1.73897   1.74234   1.74490   1.75143
 Alpha virt. eigenvalues --    1.76273   1.76929   1.77402   1.77796   1.79057
 Alpha virt. eigenvalues --    1.79330   1.80421   1.80619   1.81320   1.82465
 Alpha virt. eigenvalues --    1.83036   1.84660   1.84919   1.85443   1.86050
 Alpha virt. eigenvalues --    1.86159   1.86720   1.87417   1.87923   1.89098
 Alpha virt. eigenvalues --    1.89537   1.89944   1.90257   1.90552   1.91161
 Alpha virt. eigenvalues --    1.91918   1.92385   1.93974   1.94649   1.95000
 Alpha virt. eigenvalues --    1.95156   1.96210   1.97310   1.97541   1.99055
 Alpha virt. eigenvalues --    1.99403   2.00745   2.00977   2.01808   2.02041
 Alpha virt. eigenvalues --    2.02705   2.03728   2.03946   2.04146   2.05067
 Alpha virt. eigenvalues --    2.05626   2.05921   2.06725   2.07382   2.07982
 Alpha virt. eigenvalues --    2.08470   2.09206   2.10650   2.11252   2.11574
 Alpha virt. eigenvalues --    2.12262   2.12951   2.14162   2.14705   2.15368
 Alpha virt. eigenvalues --    2.15825   2.15961   2.17129   2.17652   2.18027
 Alpha virt. eigenvalues --    2.19175   2.19911   2.20240   2.21708   2.22250
 Alpha virt. eigenvalues --    2.22934   2.25668   2.26269   2.27066   2.27591
 Alpha virt. eigenvalues --    2.31355   2.31909   2.32671   2.34309   2.36113
 Alpha virt. eigenvalues --    2.37211   2.39393   2.39659   2.41563   2.43522
 Alpha virt. eigenvalues --    2.43695   2.44131   2.44675   2.45566   2.46091
 Alpha virt. eigenvalues --    2.47034   2.47297   2.48341   2.49042   2.49827
 Alpha virt. eigenvalues --    2.50787   2.51280   2.52349   2.52494   2.52708
 Alpha virt. eigenvalues --    2.53341   2.53411   2.54425   2.55115   2.55817
 Alpha virt. eigenvalues --    2.57305   2.57935   2.58451   2.58899   2.59782
 Alpha virt. eigenvalues --    2.61138   2.63208   2.63740   2.64227   2.64810
 Alpha virt. eigenvalues --    2.66802   2.67456   2.67978   2.68316   2.68872
 Alpha virt. eigenvalues --    2.68972   2.69626   2.70170   2.70728   2.70998
 Alpha virt. eigenvalues --    2.72167   2.72675   2.72815   2.74689   2.75088
 Alpha virt. eigenvalues --    2.75801   2.77194   2.79098   2.79264   2.80679
 Alpha virt. eigenvalues --    2.81605   2.82799   2.83550   2.83697   2.84003
 Alpha virt. eigenvalues --    2.84508   2.84768   2.85371   2.85871   2.86501
 Alpha virt. eigenvalues --    2.86799   2.87710   2.88153   2.88390   2.89995
 Alpha virt. eigenvalues --    2.91223   2.91729   2.92352   2.93283   2.94041
 Alpha virt. eigenvalues --    2.94404   2.95530   2.96641   2.98180   2.98484
 Alpha virt. eigenvalues --    3.00456   3.01158   3.03765   3.04437   3.04500
 Alpha virt. eigenvalues --    3.05510   3.06239   3.08431   3.09013   3.10795
 Alpha virt. eigenvalues --    3.11084   3.12772   3.13574   3.14616   3.15090
 Alpha virt. eigenvalues --    3.16356   3.16763   3.18997   3.19558   3.21869
 Alpha virt. eigenvalues --    3.23505   3.23718   3.24064   3.24636   3.26556
 Alpha virt. eigenvalues --    3.28403   3.29746   3.30174   3.32139   3.32963
 Alpha virt. eigenvalues --    3.33422   3.33655   3.34219   3.34908   3.36292
 Alpha virt. eigenvalues --    3.37895   3.38980   3.41246   3.41537   3.43386
 Alpha virt. eigenvalues --    3.43650   3.44736   3.46319   3.48003   3.49323
 Alpha virt. eigenvalues --    3.49546   3.53492   3.56254   3.57054   3.58891
 Alpha virt. eigenvalues --    3.59694   3.61347   3.64574   3.65338   3.66234
 Alpha virt. eigenvalues --    3.68692   3.70313   3.72136   3.72658   3.76048
 Alpha virt. eigenvalues --    3.77189   3.77341   3.81424   3.82891   3.84926
 Alpha virt. eigenvalues --    3.85159   3.85971   3.89424   3.91884   3.92314
 Alpha virt. eigenvalues --    3.93069   3.93798   3.96714   4.00871   4.03238
 Alpha virt. eigenvalues --    4.04169   4.08292   4.10859   4.12141   4.14318
 Alpha virt. eigenvalues --    4.18473   4.23075   4.24684   4.26954   4.34552
 Alpha virt. eigenvalues --    4.37364   4.39332   4.50023   4.65855   4.83653
 Alpha virt. eigenvalues --    4.85358   4.86755   4.89858   5.01818   5.02676
 Alpha virt. eigenvalues --    5.03064   5.04132   5.04681   5.06687   5.10605
 Alpha virt. eigenvalues --    5.12081   5.23922   5.25754   5.27830   5.29699
 Alpha virt. eigenvalues --    5.42217   5.43758   5.74528   5.76883   5.79113
 Alpha virt. eigenvalues --    5.80450   5.81003   5.84428   8.02305   8.05794
 Alpha virt. eigenvalues --   17.29083  17.34137  17.49671  17.52784  17.56142
 Alpha virt. eigenvalues --   17.63365  23.48841  23.56535  23.72600  23.78856
 Alpha virt. eigenvalues --   23.81578  23.82425  23.83139  23.85752  23.86016
 Alpha virt. eigenvalues --   23.87177  23.89539  23.91145  23.91940  23.92606
 Alpha virt. eigenvalues --   23.94488  23.95086  23.95676  23.97521  23.99620
 Alpha virt. eigenvalues --   24.02338  24.02894  24.04302  24.12021  24.13320
 Alpha virt. eigenvalues --   24.13441  24.14724  35.55355  35.58208  49.96499
 Alpha virt. eigenvalues --   49.97516  50.01003  50.02589  50.04732  50.06172
 Alpha virt. eigenvalues --  189.19555 189.24207
          Condensed to atoms (all electrons):
 Mulliken charges:
               1
     1  C    0.428183
     2  C   -0.034073
     3  C    0.196933
     4  C    0.243547
     5  C    0.268916
     6  C   -0.629519
     7  C    0.220119
     8  C    0.062750
     9  C    0.644860
    10  C   -0.386555
    11  C    0.232706
    12  C    0.225036
    13  C   -0.533752
    14  C   -0.661524
    15  H    0.169876
    16  H    0.170549
    17  H    0.166921
    18  N   -0.116905
    19  N   -0.107843
    20  O   -0.335305
    21  O   -0.327858
    22  O   -0.335135
    23  O   -0.217930
    24  C   -0.220179
    25  H    0.183969
    26  H    0.182548
    27  H    0.179762
    28  C   -0.211510
    29  H    0.182817
    30  H    0.183978
    31  H    0.179525
    32  C    0.075143
    33  C   -0.349437
    34  S   -0.120596
    35  C   -0.041697
    36  H    0.147946
    37  C    0.165194
    38  O   -0.157266
    39  C    0.676566
    40  C   -0.245816
    41  C    0.081840
    42  S   -0.242081
    43  H    0.175043
    44  H    0.161610
    45  H    0.165157
    46  C   -0.540521
    47  O   -0.172357
    48  C   -0.373011
    49  H    0.160151
    50  C   -0.247635
    51  H    0.187151
    52  H    0.159228
    53  H    0.172342
    54  H    0.158139
 Sum of Mulliken charges =  -0.00000
 Mulliken charges with hydrogens summed into heavy atoms:
               1
     1  C    0.428183
     2  C   -0.034073
     3  C    0.196933
     4  C    0.243547
     5  C    0.268916
     6  C   -0.462598
     7  C    0.220119
     8  C    0.062750
     9  C    0.644860
    10  C   -0.386555
    11  C    0.232706
    12  C    0.225036
    13  C   -0.363203
    14  C   -0.491649
    18  N   -0.116905
    19  N   -0.107843
    20  O   -0.335305
    21  O   -0.327858
    22  O   -0.335135
    23  O   -0.217930
    24  C    0.326100
    28  C    0.334811
    32  C    0.075143
    33  C   -0.201491
    34  S   -0.120596
    35  C   -0.041697
    37  C    0.165194
    38  O   -0.157266
    39  C    0.676566
    40  C    0.255994
    41  C    0.081840
    42  S   -0.242081
    46  C   -0.380370
    47  O   -0.172357
    48  C   -0.185860
    50  C    0.242074
 Electronic spatial extent (au):  <R**2>=          22379.5927
 Charge=              0.0000 electrons
 Dipole moment (field-independent basis, Debye):
    X=             -0.6128    Y=             -0.2999    Z=              0.1738  Tot=              0.7041
 Quadrupole moment (field-independent basis, Debye-Ang):
   XX=           -219.0205   YY=           -238.4407   ZZ=           -190.7486
   XY=             -1.0499   XZ=             12.3429   YZ=              5.7325
 Traceless Quadrupole moment (field-independent basis, Debye-Ang):
   XX=             -2.9506   YY=            -22.3708   ZZ=             25.3213
   XY=             -1.0499   XZ=             12.3429   YZ=              5.7325
 Octapole moment (field-independent basis, Debye-Ang**2):
  XXX=           -327.1807  YYY=            -13.3002  ZZZ=              7.1761  XYY=            -25.4103
  XXY=            -42.0170  XXZ=            -75.5316  XZZ=           -109.3062  YZZ=             -7.8482
  YYZ=             -4.1547  XYZ=            -21.7056
 Hexadecapole moment (field-independent basis, Debye-Ang**3):
 XXXX=         -21266.1937 YYYY=          -6179.7908 ZZZZ=          -2057.3935 XXXY=            363.6826
 XXXZ=            621.3736 YYYX=           -559.5573 YYYZ=             49.1595 ZZZX=             85.7518
 ZZZY=             71.6423 XXYY=          -4968.3861 XXZZ=          -3562.5748 YYZZ=          -1405.0650
 XXYZ=            103.1832 YYXZ=             48.0850 ZZXY=             15.9129
 N-N= 4.076863376725D+03 E-N=-1.369379619086D+04  KE= 2.351775422193D+03
 D1PCM: PCM CHGder 1st derivatives, ID1Alg=3 FixD1E=F DoIter=F DoCFld=F I1PDM=0.
 Calling FoFJK, ICntrl=      2127 FMM=F ISym2X=0 I1Cent= 0 IOpClX= 0 NMat=1 NMatS=1 NMatT=0.
 ***** Axes restored to original set *****
 -------------------------------------------------------------------
 Center     Atomic                   Forces (Hartrees/Bohr)
 Number     Number              X              Y              Z
 -------------------------------------------------------------------
      1        6          -0.001813065   -0.001439222    0.000218876
      2        6          -0.004416103    0.001340133   -0.000043797
      3        6           0.005234560   -0.001326137   -0.000416792
      4        6          -0.003524134    0.002092829    0.000527039
      5        6           0.001340992   -0.001248064   -0.000154859
      6        6           0.005212653    0.005647687   -0.002918652
      7        6          -0.001523407   -0.001086252    0.000771444
      8        6           0.005371344   -0.011329195    0.001216949
      9        6          -0.026471191   -0.003651439   -0.003022729
     10        6           0.006010332    0.009321446    0.000122052
     11        6           0.002221617    0.002457143    0.000206228
     12        6          -0.002481054   -0.001572856   -0.000114759
     13        6           0.002500546    0.002588419    0.000166240
     14        6           0.003289868   -0.003682707   -0.000563233
     15        1           0.000626834    0.001718179    0.000183208
     16        1           0.000202071   -0.002168637   -0.000362470
     17        1           0.001913802    0.002643680    0.001435635
     18        7          -0.001318107   -0.002223418   -0.001099489
     19        7           0.000948803    0.002409633    0.000195255
     20        8          -0.003373110    0.003568055    0.000484632
     21        8           0.003430870    0.000782362    0.000032186
     22        8           0.003714488   -0.003456936   -0.000460225
     23        8          -0.004191921   -0.008801357   -0.002897236
     24        6           0.001763032    0.002914501   -0.000594065
     25        1          -0.001452311   -0.000004662   -0.000107681
     26        1          -0.001965211   -0.000505822    0.000913520
     27        1           0.002059561    0.000341791    0.000231051
     28        6           0.000021415   -0.002661813   -0.000726077
     29        1          -0.001512387    0.000684869    0.000715880
     30        1          -0.001244273    0.000642595   -0.000168072
     31        1           0.001740519   -0.001096545   -0.000150925
     32        6           0.023183498    0.008416114    0.005450465
     33        6          -0.017198480   -0.001706502    0.004201863
     34       16          -0.007588920   -0.000817554   -0.003731125
     35        6           0.008221097   -0.000604587    0.013083157
     36        1          -0.001640140   -0.000632900   -0.001370524
     37        6          -0.001622259    0.002449763   -0.011179374
     38        8          -0.000393875    0.000078042    0.000863385
     39        6           0.003542444   -0.001628666    0.005586764
     40        6          -0.001265232    0.001086168   -0.005082651
     41        6           0.000599313    0.001356934   -0.005442230
     42       16          -0.000348842   -0.000320603    0.000707244
     43        1          -0.000826916    0.000005466    0.000106161
     44        1           0.000830416    0.000745460    0.000761936
     45        1           0.001624553   -0.000911731    0.000148458
     46        6           0.000089724    0.000418012   -0.001997812
     47        8          -0.000927824    0.000186571   -0.002059463
     48        6           0.001923633   -0.000313376    0.003220874
     49        1           0.000182147    0.000159079   -0.000493622
     50        6           0.001680480   -0.000799149    0.005915848
     51        1          -0.001157699   -0.000042662   -0.000375619
     52        1          -0.001004268   -0.001170599   -0.001099594
     53        1           0.000878855    0.000196494   -0.000367005
     54        1          -0.001098736    0.000951967   -0.000466272
 -------------------------------------------------------------------
 Cartesian Forces:  Max     0.026471191 RMS     0.004333366

 GradGradGradGradGradGradGradGradGradGradGradGradGradGradGradGradGradGrad
 Berny optimization.
 FormGI is forming the generalized inverse of G from B-inverse, IUseBI=4.
 Internal  Forces:  Max     0.020082993 RMS     0.002719949
 Search for a local minimum.
 Step number   1 out of a maximum of  307
 All quantities printed in internal units (Hartrees-Bohrs-Radians)
 Mixed Optimization -- RFO/linear search
 Second derivative matrix not updated -- first step.
 ITU=  0
     Eigenvalues ---    0.00803   0.00803   0.01176   0.01203   0.01245
     Eigenvalues ---    0.01292   0.01308   0.01311   0.01360   0.01377
     Eigenvalues ---    0.01419   0.01429   0.01459   0.01496   0.01516
     Eigenvalues ---    0.01568   0.01574   0.01577   0.01614   0.01652
     Eigenvalues ---    0.01691   0.01711   0.01714   0.01719   0.01754
     Eigenvalues ---    0.01783   0.01803   0.01847   0.01960   0.02040
     Eigenvalues ---    0.02048   0.02069   0.02073   0.02079   0.02135
     Eigenvalues ---    0.02149   0.02163   0.02177   0.02197   0.02228
     Eigenvalues ---    0.02240   0.02246   0.07556   0.07572   0.07690
     Eigenvalues ---    0.07700   0.10060   0.10076   0.10635   0.10636
     Eigenvalues ---    0.15983   0.15999   0.15999   0.16000   0.16000
     Eigenvalues ---    0.16000   0.16000   0.16000   0.16000   0.16000
     Eigenvalues ---    0.16000   0.16000   0.16000   0.16000   0.16000
     Eigenvalues ---    0.16000   0.16000   0.16000   0.22530   0.22583
     Eigenvalues ---    0.23518   0.23582   0.24516   0.24747   0.24866
     Eigenvalues ---    0.24931   0.24952   0.24985   0.24987   0.24988
     Eigenvalues ---    0.24991   0.24994   0.24997   0.24997   0.24998
     Eigenvalues ---    0.24998   0.25000   0.25000   0.25000   0.25000
     Eigenvalues ---    0.25000   0.25000   0.25000   0.25000   0.25000
     Eigenvalues ---    0.25000   0.28840   0.28911   0.30090   0.32118
     Eigenvalues ---    0.32582   0.32774   0.33111   0.33787   0.34044
     Eigenvalues ---    0.34089   0.34112   0.34125   0.34354   0.34466
     Eigenvalues ---    0.34577   0.34629   0.34693   0.34850   0.34895
     Eigenvalues ---    0.35198   0.35218   0.35468   0.35553   0.35582
     Eigenvalues ---    0.35870   0.35908   0.36078   0.36083   0.36198
     Eigenvalues ---    0.36396   0.36662   0.39352   0.40160   0.40194
     Eigenvalues ---    0.40623   0.40651   0.41524   0.41701   0.41898
     Eigenvalues ---    0.42300   0.42662   0.43455   0.44010   0.44092
     Eigenvalues ---    0.44594   0.44617   0.45014   0.45406   0.46251
     Eigenvalues ---    0.47305   0.47625   0.49310   0.49558   0.53053
     Eigenvalues ---    0.53234   0.93281   0.93432   0.93989   0.94585
     Eigenvalues --- 1000.000001000.000001000.000001000.000001000.00000
     Eigenvalues --- 1000.000001000.000001000.000001000.000001000.00000
     Eigenvalues --- 1000.000001000.000001000.000001000.000001000.00000
     Eigenvalues --- 1000.000001000.000001000.000001000.000001000.00000
     Eigenvalues --- 1000.000001000.000001000.000001000.000001000.00000
     Eigenvalues --- 1000.000001000.000001000.000001000.000001000.00000
     Eigenvalues --- 1000.000001000.000001000.000001000.000001000.00000
     Eigenvalues --- 1000.000001000.000001000.000001000.000001000.00000
     Eigenvalues --- 1000.000001000.000001000.000001000.000001000.00000
     Eigenvalues --- 1000.000001000.000001000.000001000.000001000.00000
     Eigenvalues --- 1000.000001000.000001000.000001000.000001000.00000
     Eigenvalues --- 1000.000001000.000001000.000001000.000001000.00000
     Eigenvalues --- 1000.000001000.000001000.000001000.000001000.00000
     Eigenvalues --- 1000.000001000.000001000.000001000.000001000.00000
     Eigenvalues --- 1000.000001000.000001000.000001000.000001000.00000
     Eigenvalues --- 1000.000001000.000001000.000001000.000001000.00000
     Eigenvalues --- 1000.000001000.000001000.000001000.000001000.00000
     Eigenvalues --- 1000.000001000.000001000.000001000.000001000.00000
     Eigenvalues --- 1000.000001000.000001000.000001000.000001000.00000
     Eigenvalues --- 1000.000001000.000001000.000001000.000001000.00000
     Eigenvalues --- 1000.000001000.000001000.000001000.000001000.00000
     Eigenvalues --- 1000.000001000.000001000.000001000.000001000.00000
     Eigenvalues --- 1000.000001000.000001000.000001000.000001000.00000
     Eigenvalues --- 1000.000001000.000001000.000001000.000001000.00000
     Eigenvalues --- 1000.000001000.000001000.000001000.000001000.00000
     Eigenvalues --- 1000.000001000.000001000.000001000.000001000.00000
     Eigenvalues --- 1000.000001000.000001000.000001000.000001000.00000
     Eigenvalues --- 1000.000001000.000001000.000001000.000001000.00000
     Eigenvalues --- 1000.000001000.00000
 RFO step:  Lambda=-7.48340178D-03 EMin= 8.02933640D-03
 Linear search not attempted -- first point.
 Iteration  1 RMS(Cart)=  0.10175115 RMS(Int)=  0.00120093
 Iteration  2 RMS(Cart)=  0.00305689 RMS(Int)=  0.00017092
 Iteration  3 RMS(Cart)=  0.00000384 RMS(Int)=  0.00017092
 Iteration  4 RMS(Cart)=  0.00000000 RMS(Int)=  0.00017092
 Iteration  1 RMS(Cart)=  0.00003276 RMS(Int)=  0.00000521
 Iteration  2 RMS(Cart)=  0.00001874 RMS(Int)=  0.00000581
 Iteration  3 RMS(Cart)=  0.00001072 RMS(Int)=  0.00000660
 Iteration  4 RMS(Cart)=  0.00000613 RMS(Int)=  0.00000715
 Iteration  5 RMS(Cart)=  0.00000351 RMS(Int)=  0.00000749
 Iteration  6 RMS(Cart)=  0.00000201 RMS(Int)=  0.00000769
 Iteration  7 RMS(Cart)=  0.00000115 RMS(Int)=  0.00000780
 Iteration  8 RMS(Cart)=  0.00000066 RMS(Int)=  0.00000787
 Variable       Old X    -DE/DX   Delta X   Delta X   Delta X     New X
                                 (Linear)    (Quad)   (Total)
    R1        2.80935  -0.00099   0.00000  -0.00273  -0.00273   2.80662
    R2        2.64584  -0.00261   0.00000  -0.00582  -0.00582   2.64002
    R3        2.31147  -0.00493   0.00000  -0.00521  -0.00521   2.30626
    R4        2.67311  -0.00338   0.00000  -0.00568  -0.00579   2.66732
    R5        2.59267   0.00396   0.00000   0.00902   0.00899   2.60166
    R6        2.66894  -0.00190   0.00000  -0.00391  -0.00393   2.66502
    R7        2.69164  -0.00365   0.00000  -0.00863  -0.00867   2.68297
    R8        2.81049  -0.00062   0.00000  -0.00191  -0.00192   2.80858
    R9        2.62173  -0.00274   0.00000  -0.00528  -0.00530   2.61642
   R10        2.65570  -0.00269   0.00000  -0.00620  -0.00619   2.64951
   R11        2.30889  -0.00350   0.00000  -0.00367  -0.00367   2.30522
   R12        2.70248  -0.00899   0.00000  -0.02163  -0.02156   2.68091
   R13        2.04786  -0.00071   0.00000  -0.00197  -0.00197   2.04589
   R14        2.70495  -0.00791   0.00000  -0.02151  -0.02141   2.68354
   R15        2.68322  -0.00395   0.00000  -0.00983  -0.00982   2.67340
   R16        2.68655  -0.02008   0.00000  -0.04850  -0.04841   2.63813
   R17        2.81233  -0.00257   0.00000  -0.00813  -0.00806   2.80427
   R18        2.76359   0.00830   0.00000   0.02219   0.02219   2.78578
   R19        2.66221  -0.00261   0.00000  -0.00551  -0.00551   2.65670
   R20        2.31391  -0.00763   0.00000  -0.00810  -0.00810   2.30580
   R21        2.79415   0.00305   0.00000   0.00924   0.00919   2.80334
   R22        2.63842  -0.00089   0.00000  -0.00115  -0.00121   2.63720
   R23        2.31456  -0.00509   0.00000  -0.00542  -0.00542   2.30915
   R24        2.62448  -0.00299   0.00000  -0.00637  -0.00636   2.61812
   R25        2.64561   0.00118   0.00000   0.00274   0.00272   2.64833
   R26        2.04921  -0.00168   0.00000  -0.00463  -0.00463   2.04458
   R27        2.04741  -0.00114   0.00000  -0.00315  -0.00315   2.04426
   R28        2.77259   0.00280   0.00000   0.00761   0.00761   2.78021
   R29        2.77252   0.00260   0.00000   0.00705   0.00705   2.77957
   R30        2.06176  -0.00085   0.00000  -0.00240  -0.00240   2.05936
   R31        2.06551  -0.00196   0.00000  -0.00557  -0.00557   2.05994
   R32        2.05322  -0.00159   0.00000  -0.00443  -0.00443   2.04880
   R33        2.06368  -0.00145   0.00000  -0.00411  -0.00411   2.05957
   R34        2.06281  -0.00096   0.00000  -0.00271  -0.00271   2.06011
   R35        2.05355  -0.00161   0.00000  -0.00447  -0.00447   2.04908
   R36        2.61030  -0.01198   0.00000  -0.02461  -0.02460   2.58570
   R37        3.33288  -0.00680   0.00000  -0.02343  -0.02341   3.30947
   R38        2.66320   0.00800   0.00000   0.01793   0.01791   2.68111
   R39        2.03773   0.00178   0.00000   0.00482   0.00482   2.04254
   R40        3.30413   0.00406   0.00000   0.01345   0.01345   3.31758
   R41        2.64114  -0.00630   0.00000  -0.01292  -0.01294   2.62820
   R42        2.56904   0.00222   0.00000   0.00413   0.00413   2.57317
   R43        2.71337   0.00525   0.00000   0.01284   0.01284   2.72621
   R44        2.69306   0.00394   0.00000   0.00929   0.00929   2.70235
   R45        2.63349  -0.00285   0.00000  -0.00613  -0.00613   2.62736
   R46        3.32858   0.00012   0.00000   0.00054   0.00054   3.32912
   R47        2.05845  -0.00076   0.00000  -0.00213  -0.00213   2.05632
   R48        2.07119  -0.00130   0.00000  -0.00372  -0.00372   2.06747
   R49        2.07180  -0.00170   0.00000  -0.00488  -0.00488   2.06691
   R50        2.69184   0.00037   0.00000   0.00066   0.00066   2.69250
   R51        2.56736   0.00172   0.00000   0.00318   0.00318   2.57054
   R52        3.26275   0.00022   0.00000   0.00089   0.00089   3.26363
   R53        2.58700  -0.00264   0.00000  -0.00509  -0.00509   2.58191
   R54        2.04226  -0.00040   0.00000  -0.00109  -0.00109   2.04117
   R55        2.69052   0.00405   0.00000   0.00950   0.00950   2.70003
   R56        2.04285  -0.00113   0.00000  -0.00310  -0.00310   2.03976
   R57        2.07256  -0.00183   0.00000  -0.00527  -0.00527   2.06729
   R58        2.05919  -0.00097   0.00000  -0.00272  -0.00272   2.05648
   R59        2.07142  -0.00145   0.00000  -0.00417  -0.00417   2.06725
    A1        2.03797   0.00146   0.00000   0.00628   0.00627   2.04424
    A2        2.14521  -0.00093   0.00000  -0.00394  -0.00394   2.14127
    A3        2.10001  -0.00052   0.00000  -0.00234  -0.00234   2.09767
    A4        2.10395  -0.00134   0.00000  -0.00642  -0.00642   2.09752
    A5        2.08282   0.00348   0.00000   0.01002   0.01004   2.09286
    A6        2.09624  -0.00214   0.00000  -0.00341  -0.00347   2.09276
    A7        2.10093   0.00142   0.00000   0.00557   0.00559   2.10651
    A8        2.07104   0.00036   0.00000   0.00387   0.00380   2.07485
    A9        2.11118  -0.00178   0.00000  -0.00939  -0.00936   2.10182
   A10        2.10296  -0.00131   0.00000  -0.00461  -0.00462   2.09834
   A11        2.09911  -0.00120   0.00000  -0.00414  -0.00417   2.09494
   A12        2.08110   0.00251   0.00000   0.00877   0.00881   2.08991
   A13        2.03739   0.00097   0.00000   0.00385   0.00383   2.04123
   A14        2.12972  -0.00007   0.00000  -0.00031  -0.00030   2.12942
   A15        2.11607  -0.00090   0.00000  -0.00354  -0.00353   2.11254
   A16        2.15098  -0.00447   0.00000  -0.01661  -0.01675   2.13423
   A17        2.04399   0.00563   0.00000   0.02942   0.02911   2.07310
   A18        2.08722  -0.00112   0.00000  -0.01107  -0.01138   2.07584
   A19        2.11101  -0.00249   0.00000  -0.01034  -0.01031   2.10070
   A20        2.04385   0.00481   0.00000   0.02011   0.02003   2.06388
   A21        2.12832  -0.00232   0.00000  -0.00973  -0.00977   2.11856
   A22        2.08678   0.00337   0.00000   0.00982   0.00963   2.09642
   A23        2.04738   0.00594   0.00000   0.02408   0.02373   2.07112
   A24        2.14662  -0.00925   0.00000  -0.03064  -0.03121   2.11541
   A25        2.04892   0.00540   0.00000   0.01779   0.01795   2.06687
   A26        2.00754   0.00750   0.00000   0.03102   0.03082   2.03836
[...]
 Alpha  occ. eigenvalues --   -0.45448  -0.45284  -0.45049  -0.44395  -0.44041
 Alpha  occ. eigenvalues --   -0.42966  -0.42895  -0.42503  -0.41934  -0.41799
 Alpha  occ. eigenvalues --   -0.41440  -0.41309  -0.41277  -0.40773  -0.40161
 Alpha  occ. eigenvalues --   -0.39888  -0.39028  -0.38615  -0.37877  -0.37314
 Alpha  occ. eigenvalues --   -0.35934  -0.35636  -0.34083  -0.33658  -0.33514
 Alpha  occ. eigenvalues --   -0.33362  -0.32605  -0.31741  -0.30860  -0.30078
 Alpha  occ. eigenvalues --   -0.29782  -0.29634  -0.29227  -0.28553  -0.27813
 Alpha  occ. eigenvalues --   -0.26622  -0.24872  -0.24570  -0.19275
 Alpha virt. eigenvalues --   -0.13522  -0.07088  -0.05834  -0.05168  -0.05111
 Alpha virt. eigenvalues --   -0.00639  -0.00586   0.00102   0.00448   0.00599
 Alpha virt. eigenvalues --    0.00716   0.00841   0.00874   0.01298   0.02115
 Alpha virt. eigenvalues --    0.02354   0.02620   0.02858   0.02930   0.03316
 Alpha virt. eigenvalues --    0.03612   0.03865   0.03988   0.04259   0.04382
 Alpha virt. eigenvalues --    0.04879   0.04971   0.05211   0.05602   0.05716
 Alpha virt. eigenvalues --    0.06122   0.06282   0.06534   0.06699   0.06760
 Alpha virt. eigenvalues --    0.07401   0.07502   0.07891   0.08166   0.08373
 Alpha virt. eigenvalues --    0.08508   0.08733   0.08982   0.09080   0.09309
 Alpha virt. eigenvalues --    0.09596   0.09797   0.09872   0.10279   0.10691
 Alpha virt. eigenvalues --    0.10777   0.11132   0.11264   0.11698   0.11988
 Alpha virt. eigenvalues --    0.12168   0.12575   0.12754   0.13082   0.13373
 Alpha virt. eigenvalues --    0.13632   0.13889   0.13996   0.14171   0.14308
 Alpha virt. eigenvalues --    0.14578   0.14695   0.14745   0.14921   0.15429
 Alpha virt. eigenvalues --    0.15525   0.15738   0.15794   0.16072   0.16131
 Alpha virt. eigenvalues --    0.16356   0.16786   0.16955   0.17246   0.17529
 Alpha virt. eigenvalues --    0.17887   0.18041   0.18330   0.18369   0.18633
 Alpha virt. eigenvalues --    0.18844   0.19137   0.19505   0.19604   0.19701
 Alpha virt. eigenvalues --    0.19910   0.20047   0.20161   0.20251   0.20528
 Alpha virt. eigenvalues --    0.20605   0.20746   0.20958   0.21082   0.21253
 Alpha virt. eigenvalues --    0.21546   0.21763   0.22000   0.22067   0.22342
 Alpha virt. eigenvalues --    0.22509   0.22628   0.22969   0.23147   0.23337
 Alpha virt. eigenvalues --    0.23362   0.23776   0.23920   0.24020   0.24324
 Alpha virt. eigenvalues --    0.24461   0.24695   0.24899   0.25008   0.25256
 Alpha virt. eigenvalues --    0.25507   0.25574   0.25807   0.26092   0.26276
 Alpha virt. eigenvalues --    0.26456   0.26678   0.26817   0.26909   0.27295
 Alpha virt. eigenvalues --    0.27399   0.27651   0.27948   0.28012   0.28213
 Alpha virt. eigenvalues --    0.28459   0.28609   0.28763   0.29103   0.29256
 Alpha virt. eigenvalues --    0.29406   0.29528   0.29735   0.29919   0.30385
 Alpha virt. eigenvalues --    0.30648   0.30758   0.30846   0.31206   0.31506
 Alpha virt. eigenvalues --    0.31771   0.31816   0.32101   0.32296   0.32627
 Alpha virt. eigenvalues --    0.32781   0.33091   0.33638   0.33930   0.33990
 Alpha virt. eigenvalues --    0.34270   0.34539   0.34982   0.35221   0.35545
 Alpha virt. eigenvalues --    0.35860   0.36046   0.36582   0.37348   0.37538
 Alpha virt. eigenvalues --    0.37739   0.38089   0.38481   0.38737   0.39233
 Alpha virt. eigenvalues --    0.39448   0.40045   0.40805   0.41186   0.41746
 Alpha virt. eigenvalues --    0.41870   0.42279   0.42607   0.42805   0.43843
 Alpha virt. eigenvalues --    0.44163   0.44357   0.44582   0.44800   0.45281
 Alpha virt. eigenvalues --    0.45818   0.45838   0.46125   0.46218   0.46533
 Alpha virt. eigenvalues --    0.47443   0.47671   0.48471   0.49121   0.49484
 Alpha virt. eigenvalues --    0.49680   0.50120   0.50360   0.50974   0.51731
 Alpha virt. eigenvalues --    0.51929   0.52657   0.53208   0.53730   0.53993
 Alpha virt. eigenvalues --    0.54500   0.54849   0.55430   0.55623   0.55906
 Alpha virt. eigenvalues --    0.56112   0.56833   0.57193   0.57397   0.57689
 Alpha virt. eigenvalues --    0.58016   0.58216   0.58678   0.59159   0.59262
 Alpha virt. eigenvalues --    0.60418   0.60564   0.60845   0.61379   0.61565
 Alpha virt. eigenvalues --    0.62040   0.62621   0.62932   0.63227   0.63689
 Alpha virt. eigenvalues --    0.63787   0.64152   0.64395   0.65167   0.65275
 Alpha virt. eigenvalues --    0.65458   0.65831   0.65964   0.66143   0.67254
 Alpha virt. eigenvalues --    0.67686   0.68037   0.68115   0.68492   0.68884
 Alpha virt. eigenvalues --    0.69015   0.69477   0.70370   0.70534   0.70806
 Alpha virt. eigenvalues --    0.70926   0.71387   0.71915   0.72015   0.72696
 Alpha virt. eigenvalues --    0.73280   0.73609   0.73826   0.73862   0.74434
 Alpha virt. eigenvalues --    0.74860   0.75114   0.75304   0.75516   0.75690
 Alpha virt. eigenvalues --    0.75931   0.76114   0.76437   0.76934   0.77156
 Alpha virt. eigenvalues --    0.77574   0.77890   0.78184   0.78445   0.78689
 Alpha virt. eigenvalues --    0.79724   0.79912   0.80577   0.81065   0.82634
 Alpha virt. eigenvalues --    0.82936   0.83609   0.84430   0.84893   0.85759
 Alpha virt. eigenvalues --    0.86611   0.87105   0.87349   0.87734   0.88442
 Alpha virt. eigenvalues --    0.88729   0.89031   0.89874   0.90246   0.90806
 Alpha virt. eigenvalues --    0.91757   0.91896   0.92874   0.93043   0.93449
 Alpha virt. eigenvalues --    0.93773   0.94056   0.94311   0.94693   0.95163
 Alpha virt. eigenvalues --    0.95628   0.95767   0.96369   0.96853   0.97784
 Alpha virt. eigenvalues --    0.98254   0.99058   0.99556   1.00165   1.00653
 Alpha virt. eigenvalues --    1.00921   1.01185   1.01293   1.01463   1.02548
 Alpha virt. eigenvalues --    1.02839   1.03583   1.04093   1.04205   1.04395
 Alpha virt. eigenvalues --    1.04878   1.05068   1.05326   1.05988   1.06513
 Alpha virt. eigenvalues --    1.06989   1.07255   1.07646   1.07908   1.08385
 Alpha virt. eigenvalues --    1.08448   1.09791   1.10154   1.11045   1.11181
 Alpha virt. eigenvalues --    1.11479   1.11880   1.12816   1.13612   1.14435
 Alpha virt. eigenvalues --    1.15016   1.15340   1.16653   1.17537   1.17619
 Alpha virt. eigenvalues --    1.17870   1.18279   1.18540   1.19839   1.20755
 Alpha virt. eigenvalues --    1.21067   1.22378   1.24350   1.24700   1.25236
 Alpha virt. eigenvalues --    1.25833   1.26245   1.26376   1.26961   1.27111
 Alpha virt. eigenvalues --    1.27923   1.28132   1.29112   1.29823   1.31555
 Alpha virt. eigenvalues --    1.32456   1.33302   1.33881   1.33985   1.35598
 Alpha virt. eigenvalues --    1.35874   1.36407   1.36764   1.38047   1.39515
 Alpha virt. eigenvalues --    1.40645   1.41565   1.42100   1.42750   1.43010
 Alpha virt. eigenvalues --    1.43285   1.43633   1.43681   1.44259   1.44340
 Alpha virt. eigenvalues --    1.44834   1.44917   1.45673   1.45814   1.46370
 Alpha virt. eigenvalues --    1.46541   1.46765   1.46881   1.48548   1.50259
 Alpha virt. eigenvalues --    1.50473   1.50613   1.51376   1.52421   1.52727
 Alpha virt. eigenvalues --    1.53235   1.53810   1.54461   1.54542   1.54916
 Alpha virt. eigenvalues --    1.55055   1.55597   1.55880   1.56690   1.57598
 Alpha virt. eigenvalues --    1.58814   1.59678   1.60211   1.61007   1.61648
 Alpha virt. eigenvalues --    1.62071   1.62595   1.63224   1.63991   1.64634
 Alpha virt. eigenvalues --    1.65065   1.65175   1.66053   1.66931   1.67147
 Alpha virt. eigenvalues --    1.67613   1.68609   1.69661   1.69875   1.69896
 Alpha virt. eigenvalues --    1.70510   1.71033   1.71221   1.71389   1.71598
 Alpha virt. eigenvalues --    1.73339   1.74131   1.74433   1.74920   1.75189
 Alpha virt. eigenvalues --    1.76682   1.77175   1.77539   1.78525   1.79411
 Alpha virt. eigenvalues --    1.79767   1.80699   1.81157   1.82062   1.82735
 Alpha virt. eigenvalues --    1.83598   1.84790   1.85185   1.85720   1.86146
 Alpha virt. eigenvalues --    1.86733   1.87053   1.87636   1.88516   1.89441
 Alpha virt. eigenvalues --    1.90072   1.90091   1.90248   1.90996   1.91285
 Alpha virt. eigenvalues --    1.92253   1.92866   1.94014   1.94844   1.95275
 Alpha virt. eigenvalues --    1.95404   1.96435   1.97367   1.98131   1.99091
 Alpha virt. eigenvalues --    1.99653   2.00856   2.01326   2.02135   2.02457
 Alpha virt. eigenvalues --    2.02681   2.03873   2.04188   2.04322   2.05158
 Alpha virt. eigenvalues --    2.05917   2.06429   2.06866   2.07582   2.08382
 Alpha virt. eigenvalues --    2.08972   2.09931   2.10704   2.11732   2.11909
 Alpha virt. eigenvalues --    2.12689   2.13007   2.14507   2.15186   2.15626
 Alpha virt. eigenvalues --    2.15867   2.16165   2.17454   2.18650   2.18687
 Alpha virt. eigenvalues --    2.19241   2.20213   2.20538   2.21757   2.22351
 Alpha virt. eigenvalues --    2.22813   2.25801   2.26034   2.26962   2.27810
 Alpha virt. eigenvalues --    2.31747   2.32366   2.33305   2.34535   2.36700
 Alpha virt. eigenvalues --    2.37329   2.40016   2.40163   2.41784   2.43798
 Alpha virt. eigenvalues --    2.43954   2.44567   2.45287   2.46046   2.46442
 Alpha virt. eigenvalues --    2.47272   2.47855   2.48856   2.49356   2.50409
 Alpha virt. eigenvalues --    2.51094   2.51850   2.52271   2.52548   2.52956
 Alpha virt. eigenvalues --    2.53252   2.53515   2.54120   2.55247   2.56379
 Alpha virt. eigenvalues --    2.57442   2.58167   2.58592   2.58875   2.59697
 Alpha virt. eigenvalues --    2.61687   2.63378   2.64024   2.64986   2.65186
 Alpha virt. eigenvalues --    2.67244   2.68007   2.68146   2.68553   2.69205
 Alpha virt. eigenvalues --    2.69490   2.70073   2.70414   2.71496   2.71778
 Alpha virt. eigenvalues --    2.72211   2.72983   2.73364   2.74800   2.75310
 Alpha virt. eigenvalues --    2.75934   2.77054   2.79349   2.79708   2.80962
 Alpha virt. eigenvalues --    2.81752   2.82845   2.83581   2.83896   2.84001
 Alpha virt. eigenvalues --    2.84557   2.85167   2.85527   2.86691   2.86765
 Alpha virt. eigenvalues --    2.86862   2.87633   2.88143   2.88554   2.90001
 Alpha virt. eigenvalues --    2.91498   2.92074   2.92420   2.93524   2.94310
 Alpha virt. eigenvalues --    2.94592   2.96365   2.96810   2.98822   2.99272
 Alpha virt. eigenvalues --    3.00436   3.01438   3.03515   3.04078   3.05082
 Alpha virt. eigenvalues --    3.06009   3.06964   3.08535   3.08845   3.10703
 Alpha virt. eigenvalues --    3.11162   3.13259   3.13939   3.14271   3.15221
 Alpha virt. eigenvalues --    3.16119   3.17301   3.19941   3.20635   3.21689
 Alpha virt. eigenvalues --    3.23398   3.23800   3.24666   3.25003   3.27116
 Alpha virt. eigenvalues --    3.29640   3.30288   3.30870   3.32013   3.33282
 Alpha virt. eigenvalues --    3.33747   3.33982   3.34692   3.36133   3.37195
 Alpha virt. eigenvalues --    3.38202   3.39595   3.40964   3.42262   3.44395
 Alpha virt. eigenvalues --    3.44576   3.45740   3.46477   3.48694   3.49486
 Alpha virt. eigenvalues --    3.50835   3.54057   3.56255   3.57593   3.59513
 Alpha virt. eigenvalues --    3.60451   3.61582   3.65311   3.65550   3.66746
 Alpha virt. eigenvalues --    3.69214   3.72490   3.73161   3.73776   3.76880
 Alpha virt. eigenvalues --    3.77905   3.78047   3.82294   3.83008   3.84836
 Alpha virt. eigenvalues --    3.85153   3.85766   3.89888   3.92256   3.93098
 Alpha virt. eigenvalues --    3.93408   3.93974   3.96804   4.01175   4.03069
 Alpha virt. eigenvalues --    4.04449   4.08071   4.10572   4.12203   4.14399
 Alpha virt. eigenvalues --    4.19017   4.23197   4.24814   4.27090   4.34996
 Alpha virt. eigenvalues --    4.37580   4.39965   4.50163   4.66202   4.84470
 Alpha virt. eigenvalues --    4.86738   4.87829   4.90072   5.01979   5.02792
 Alpha virt. eigenvalues --    5.03290   5.04256   5.04790   5.06833   5.11405
 Alpha virt. eigenvalues --    5.13025   5.24069   5.25805   5.28138   5.31467
 Alpha virt. eigenvalues --    5.41345   5.43049   5.75034   5.76351   5.79673
 Alpha virt. eigenvalues --    5.80070   5.81287   5.86029   8.02233   8.06242
 Alpha virt. eigenvalues --   17.29177  17.34314  17.49804  17.52681  17.56839
 Alpha virt. eigenvalues --   17.62808  23.48773  23.56598  23.72568  23.79115
 Alpha virt. eigenvalues --   23.81870  23.82199  23.83326  23.86027  23.86778
 Alpha virt. eigenvalues --   23.87677  23.88784  23.91558  23.92370  23.93730
 Alpha virt. eigenvalues --   23.94940  23.96144  23.96848  24.00324  24.01820
 Alpha virt. eigenvalues --   24.03954  24.05017  24.05869  24.12283  24.14200
 Alpha virt. eigenvalues --   24.15657  24.17147  35.55859  35.58959  49.96559
 Alpha virt. eigenvalues --   49.97616  50.01232  50.03099  50.05256  50.06781
 Alpha virt. eigenvalues --  189.19487 189.24670
          Condensed to atoms (all electrons):
 Mulliken charges:
               1
     1  C    0.451353
     2  C    0.050959
     3  C    0.248015
     4  C    0.211806
     5  C    0.313687
     6  C   -0.598757
     7  C    0.208314
     8  C    0.026720
     9  C    0.585139
    10  C   -0.383374
    11  C    0.247544
    12  C    0.224067
    13  C   -0.547794
    14  C   -0.664457
    15  H    0.168714
    16  H    0.168866
    17  H    0.161945
    18  N   -0.128440
    19  N   -0.112624
    20  O   -0.335486
    21  O   -0.330632
    22  O   -0.332858
    23  O   -0.172207
    24  C   -0.232188
    25  H    0.187814
    26  H    0.183373
    27  H    0.181663
    28  C   -0.215696
    29  H    0.183891
    30  H    0.184832
    31  H    0.180645
    32  C    0.138660
    33  C   -0.488244
    34  S   -0.113965
    35  C   -0.131289
    36  H    0.147107
    37  C    0.224213
    38  O   -0.172633
    39  C    0.720482
    40  C   -0.235898
    41  C    0.050699
    42  S   -0.255992
    43  H    0.175543
    44  H    0.161628
    45  H    0.165153
    46  C   -0.540611
    47  O   -0.180135
    48  C   -0.371044
    49  H    0.159621
    50  C   -0.246185
    51  H    0.186831
    52  H    0.159935
    53  H    0.172590
    54  H    0.158703
 Sum of Mulliken charges =  -0.00000
 Mulliken charges with hydrogens summed into heavy atoms:
               1
     1  C    0.451353
     2  C    0.050959
     3  C    0.248015
     4  C    0.211806
     5  C    0.313687
     6  C   -0.436812
     7  C    0.208314
     8  C    0.026720
     9  C    0.585139
    10  C   -0.383374
    11  C    0.247544
    12  C    0.224067
    13  C   -0.378928
    14  C   -0.495742
    18  N   -0.128440
    19  N   -0.112624
    20  O   -0.335486
    21  O   -0.330632
    22  O   -0.332858
    23  O   -0.172207
    24  C    0.320661
    28  C    0.333672
    32  C    0.138660
    33  C   -0.341138
    34  S   -0.113965
    35  C   -0.131289
    37  C    0.224213
    38  O   -0.172633
    39  C    0.720482
    40  C    0.266426
    41  C    0.050699
    42  S   -0.255992
    46  C   -0.380990
    47  O   -0.180135
    48  C   -0.184213
    50  C    0.245043
 Electronic spatial extent (au):  <R**2>=          22279.7673
 Charge=              0.0000 electrons
 Dipole moment (field-independent basis, Debye):
    X=             -0.2398    Y=              0.0313    Z=              0.1497  Tot=              0.2844
 Quadrupole moment (field-independent basis, Debye-Ang):
   XX=           -220.1413   YY=           -236.3099   ZZ=           -191.5390
   XY=              0.0795   XZ=             13.5757   YZ=              8.2598
 Traceless Quadrupole moment (field-independent basis, Debye-Ang):
   XX=             -4.1446   YY=            -20.3131   ZZ=             24.4577
   XY=              0.0795   XZ=             13.5757   YZ=              8.2598
 Octapole moment (field-independent basis, Debye-Ang**2):
  XXX=           -312.0505  YYY=             -8.1039  ZZZ=              8.8224  XYY=            -25.6409
  XXY=            -47.1442  XXZ=            -72.0545  XZZ=           -106.2891  YZZ=             -8.7181
  YYZ=             -2.6933  XYZ=            -23.9651
 Hexadecapole moment (field-independent basis, Debye-Ang**3):
 XXXX=         -21292.2438 YYYY=          -6108.0882 ZZZZ=          -2060.3916 XXXY=            398.4227
 XXXZ=            656.8966 YYYX=           -560.7963 YYYZ=             99.1666 ZZZX=             94.6256
 ZZZY=             98.2846 XXYY=          -4852.7877 XXZZ=          -3569.9486 YYZZ=          -1389.9816
 XXYZ=            123.1162 YYXZ=             78.0633 ZZXY=             23.7320
 N-N= 4.086418462620D+03 E-N=-1.371323520135D+04  KE= 2.351984611913D+03
 Unable to Open any file for archive entry.
 1\1\GINC-CX3-2-14\FOpt\RB3LYP\6-311+G(d,p)\C26H18N2O6S2\NS5018\27-Oct-
 2021\0\\# opt=modredundant b3lyp/6-311+g(d,p) scrf=(pcm, solvent=water
 )\\NDI_-90.pdb\\0,1\C,-2.6179556994,-3.0302593375,-0.4764643175\C,-2.2
 768219685,-1.6004009268,-0.265992777\C,-3.2988243468,-0.6489232619,-0.
 0685521317\C,-4.6566387864,-1.0412378606,-0.0676539377\C,-5.0242584478
 ,-2.4669414528,-0.2720482774\C,-0.9585489676,-1.2013636424,-0.26693554
 38\C,-2.9483760135,0.7133289207,0.1296628869\C,-1.5824908855,1.1073645
 922,0.1336511571\C,-0.5839805813,0.1502859084,-0.0742390047\C,-1.25780
 00248,2.5447020005,0.3721292156\C,-3.6782734909,3.0907562171,0.5251492
 828\C,-3.9887954021,1.6550340214,0.3204434451\C,-5.3116357398,1.249630
 1573,0.3164584406\C,-5.649185861,-0.0985512043,0.1239695728\H,-6.68570
 42027,-0.4089063152,0.1231710442\H,-6.086687508,1.9899677794,0.4642129
 846\H,-0.1846716184,-1.9409460433,-0.425180198\N,-2.328004149,3.437946
 6203,0.5288030063\N,-3.9721382583,-3.3712770404,-0.4667961694\O,-1.768
 1960243,-3.888891938,-0.6518649802\O,-6.1858665855,-2.8404259587,-0.27
 24072405\O,-4.5529574125,3.9284588024,0.6839536485\O,-0.1197373421,2.9
 729150275,0.4389806\C,-1.9638982596,4.8481791924,0.7399367299\H,-1.406
 8573809,4.9520073017,1.6711865113\H,-1.34096102,5.1916092824,-0.084817
 5618\H,-2.8793076872,5.4275822215,0.786801782\C,-4.2892083434,-4.79320
 92489,-0.6740599006\H,-3.8939273879,-5.1205022178,-1.6351784324\H,-3.8
 364986127,-5.389823004,0.1176696576\H,-5.3677214379,-4.9043136318,-0.6
 551625983\C,0.8698277524,0.4396501924,-0.123867416\C,1.6177351556,0.76
 32120171,-1.2203638711\S,1.8600768189,0.242653255,1.2947292078\C,3.005
 1199146,0.886959429,-0.9208622648\H,1.1883981537,0.9188533091,-2.19941
 09955\C,3.3286690787,0.6418122009,0.4046308571\O,3.9885793148,1.206828
 6574,-1.8065352506\C,4.6279050931,0.6849524944,1.0329738236\C,3.609916
 5402,1.4941157615,-3.1570327512\C,4.9473987079,0.4212828481,2.35768343
 27\S,6.0951912139,1.1149857328,0.1574017082\H,4.5332518517,1.735893454
 3,-3.6793417204\H,3.1423130561,0.6241689871,-3.626093167\H,2.930476810
 8,2.3497672877,-3.19915317\C,6.33235559,0.5609012188,2.6653695851\O,3.
 9623846474,0.0652003065,3.2284112589\C,7.0677391523,0.9304804458,1.575
 4929061\H,6.76081258,0.3957153492,3.6431832442\C,4.3294212237,-0.19788
 48111,4.5868472876\H,8.1314152181,1.1044355566,1.5197831282\H,4.767771
 8025,0.6889653656,5.0525052942\H,3.4057259865,-0.4589265038,5.09921211
 72\H,5.0304437835,-1.0348175153,4.6476098614\\Version=ES64L-G16RevC.01
 \State=1-A\HF=-2359.3575201\RMSD=2.260e-09\RMSF=2.591e-05\Dipole=0.096
 5109,0.0327403,-0.0462096\Quadrupole=-5.620875,-13.9496427,19.5705177,
 1.9139309,8.553675,-6.5019192\PG=C01 [X(C26H18N2O6S2)]\\@
 The archive entry for this job was punched.


      THE ONE-EYED VIEW OF OUR UNIVERSE SAYS YOU MUST NOT LOOK
      FAR AFIELD FOR PROBLEMS.  SUCH PROBLEMS MAY NEVER ARRIVE. 
      INSTEAD, TEND TO THE WOLF WITHIN YOUR FENCES.
      THE PACKS RANGING OUTSIDE MAY NOT EVEN EXIST.

                              -- THE AZHAR BOOK SHAMRA I:4
                                 CHILDREN OF DUNE, BY FRANK HERBERT
 Job cpu time:       2 days 13 hours 43 minutes 20.8 seconds.
 Elapsed time:       0 days  3 hours 55 minutes 27.4 seconds.
 File lengths (MBytes):  RWF=    800 Int=      0 D2E=      0 Chk=     65 Scr=      1
 Normal termination of Gaussian 16 at Wed Oct 27 19:40:36 2021.
