 Entering Gaussian System, Link 0=g16
 Input=NDI_130.gjf
 Output=NDI_130.log
 Initial command:
 /apps/gaussian/g16-c01-avx/g16/l1.exe "/tmp/pbs.4768611[305].pbs/Gau-1364551.inp" -scrdir="/tmp/pbs.4768611[305].pbs/"
 Entering Link 1 = /apps/gaussian/g16-c01-avx/g16/l1.exe PID=   1364552.
  
 Copyright (c) 1988-2019, Gaussian, Inc.  All Rights Reserved.
  
 This is part of the Gaussian(R) 16 program.  It is based on
 the Gaussian(R) 09 system (copyright 2009, Gaussian, Inc.),
 the Gaussian(R) 03 system (copyright 2003, Gaussian, Inc.),
 the Gaussian(R) 98 system (copyright 1998, Gaussian, Inc.),
 the Gaussian(R) 94 system (copyright 1995, Gaussian, Inc.),
 the Gaussian 92(TM) system (copyright 1992, Gaussian, Inc.),
 the Gaussian 90(TM) system (copyright 1990, Gaussian, Inc.),
 the Gaussian 88(TM) system (copyright 1988, Gaussian, Inc.),
 the Gaussian 86(TM) system (copyright 1986, Carnegie Mellon
 University), and the Gaussian 82(TM) system (copyright 1983,
 Carnegie Mellon University). Gaussian is a federally registered
 trademark of Gaussian, Inc.
  
 This software contains proprietary and confidential information,
 including trade secrets, belonging to Gaussian, Inc.
  
 This software is provided under written license and may be
 used, copied, transmitted, or stored only in accord with that
 written license.
  
 The following legend is applicable only to US Government
 contracts under FAR:
  
                    RESTRICTED RIGHTS LEGEND
  
 Use, reproduction and disclosure by the US Government is
 subject to restrictions as set forth in subparagraphs (a)
 and (c) of the Commercial Computer Software - Restricted
 Rights clause in FAR 52.227-19.
  
 Gaussian, Inc.
 340 Quinnipiac St., Bldg. 40, Wallingford CT 06492
  
  
 ---------------------------------------------------------------
 Warning -- This program may not be used in any manner that
 competes with the business of Gaussian, Inc. or will provide
 assistance to any competitor of Gaussian, Inc.  The licensee
 of this program is prohibited from giving any competitor of
 Gaussian, Inc. access to this program.  By using this program,
 the user acknowledges that Gaussian, Inc. is engaged in the
 business of creating and licensing software in the field of
 computational chemistry and represents and warrants to the
 licensee that it is not a competitor of Gaussian, Inc. and that
 it will not use this program in any manner prohibited above.
 ---------------------------------------------------------------
  

 Cite this work as:
 Gaussian 16, Revision C.01,
 M. J. Frisch, G. W. Trucks, H. B. Schlegel, G. E. Scuseria, 
 M. A. Robb, J. R. Cheeseman, G. Scalmani, V. Barone, 
 G. A. Petersson, H. Nakatsuji, X. Li, M. Caricato, A. V. Marenich, 
 J. Bloino, B. G. Janesko, R. Gomperts, B. Mennucci, H. P. Hratchian, 
 J. V. Ortiz, A. F. Izmaylov, J. L. Sonnenberg, D. Williams-Young, 
 F. Ding, F. Lipparini, F. Egidi, J. Goings, B. Peng, A. Petrone, 
 T. Henderson, D. Ranasinghe, V. G. Zakrzewski, J. Gao, N. Rega, 
 G. Zheng, W. Liang, M. Hada, M. Ehara, K. Toyota, R. Fukuda, 
 J. Hasegawa, M. Ishida, T. Nakajima, Y. Honda, O. Kitao, H. Nakai, 
 T. Vreven, K. Throssell, J. A. Montgomery, Jr., J. E. Peralta, 
 F. Ogliaro, M. J. Bearpark, J. J. Heyd, E. N. Brothers, K. N. Kudin, 
 V. N. Staroverov, T. A. Keith, R. Kobayashi, J. Normand, 
 K. Raghavachari, A. P. Rendell, J. C. Burant, S. S. Iyengar, 
 J. Tomasi, M. Cossi, J. M. Millam, M. Klene, C. Adamo, R. Cammi, 
 J. W. Ochterski, R. L. Martin, K. Morokuma, O. Farkas, 
 J. B. Foresman, and D. J. Fox, Gaussian, Inc., Wallingford CT, 2019.
 
 ******************************************
 Gaussian 16:  ES64L-G16RevC.01  3-Jul-2019
                27-Oct-2021 
 ******************************************
 %mem=100GB
 %nprocshared=16
 Will use up to   16 processors via shared memory.
 ---------------------------------------------------------------
 # opt=modredundant b3lyp/6-311+g(d,p) scrf=(pcm, solvent=water)
 ---------------------------------------------------------------
 1/18=120,19=15,26=3,38=1/1,3;
 2/9=110,12=2,17=6,18=5,40=1/2;
 3/5=4,6=6,7=111,11=2,25=1,30=1,70=2201,71=1,72=1,74=-5/1,2,3;
 4//1;
 5/5=2,38=5,53=1/2;
 6/7=2,8=2,9=2,10=2,28=1/1;
 7//1,2,3,16;
 1/18=20,19=15,26=3/3(2);
 2/9=110/2;
 99//99;
 2/9=110/2;
 3/5=4,6=6,7=111,11=2,25=1,30=1,70=2205,71=1,72=1,74=-5/1,2,3;
 4/5=5,16=3,69=1/1;
 5/5=2,38=5,53=1/2;
 7//1,2,3,16;
 1/18=20,19=15,26=3/3(-5);
 2/9=110/2;
 6/7=2,8=2,9=2,10=2,19=2,28=1/1;
 99/9=1/99;
 -----------
 NDI_130.pdb
 -----------
 Symbolic Z-matrix:
 Charge =  0 Multiplicity = 1
 C                    -2.563    -2.994    -0.409 
 C                    -2.257    -1.551    -0.224 
 C                    -3.301    -0.607    -0.083 
 C                    -4.65     -1.024    -0.115 
 C                    -4.992    -2.459    -0.304 
 C                    -0.949    -1.137    -0.215 
 C                    -2.962     0.764     0.102 
 C                    -1.595     1.188     0.123 
 C                    -0.561     0.232    -0.072 
 C                    -1.328     2.616     0.446 
 C                    -3.777     3.115     0.508 
 C                    -4.035     1.679     0.268 
 C                    -5.356     1.252     0.23 
 C                    -5.672    -0.098     0.036 
 H                    -6.699    -0.442     0.008 
 H                    -6.133     1.997     0.361 
 H                    -0.19     -1.895    -0.369 
 N                    -2.432     3.476     0.608 
 N                    -3.916    -3.353    -0.438 
 O                    -1.695    -3.847    -0.532 
 O                    -6.149    -2.85     -0.34 
 O                    -4.676     3.938     0.629 
 O                    -0.212     3.097     0.596 
 C                    -2.111     4.875     0.912 
 H                    -1.54      4.931     1.84 
 H                    -1.5       5.299     0.111 
 H                    -3.05      5.414     1.003 
 C                    -4.206    -4.779    -0.625 
 H                    -3.759    -5.126    -1.559 
 H                    -3.775    -5.355     0.196 
 H                    -5.286    -4.897    -0.649 
 C                     0.876     0.482    -0.178 
 C                     1.946    -0.104     0.47 
 S                     1.433     1.835    -1.163 
 C                     3.182     0.508     0.184 
 H                     1.838    -0.954     1.124 
 C                     3.101     1.586    -0.704 
 O                     4.396     0.15      0.68 
 C                     4.18      2.38     -1.219 
 C                     4.462    -1.037     1.465 
 C                     4.096     3.469    -2.086 
 S                     5.869     2.086    -0.815 
 H                     5.517    -1.189     1.692 
 H                     3.902    -0.924     2.401 
 H                     4.075    -1.901     0.912 
 C                     5.353     4.05     -2.416 
 O                     2.876     3.87     -2.531 
 C                     6.391     3.404    -1.801 
 H                     5.481     4.9      -3.072 
 C                     2.819     5.007    -3.386 
 H                     7.445     3.636    -1.873 
 H                     3.366     4.829    -4.321 
 H                     1.764     5.163    -3.609 
 H                     3.223     5.898    -2.891 
 
 The following ModRedundant input section has been read:
 D       8       9      32      33 F                                           
 

 GradGradGradGradGradGradGradGradGradGradGradGradGradGradGradGradGradGrad
 Berny optimization.
 Initialization pass.
                           ----------------------------
                           !    Initial Parameters    !
                           ! (Angstroms and Degrees)  !
 --------------------------                            --------------------------
 ! Name  Definition              Value          Derivative Info.                !
 --------------------------------------------------------------------------------
 ! R1    R(1,2)                  1.4866         estimate D2E/DX2                !
 ! R2    R(1,19)                 1.4001         estimate D2E/DX2                !
 ! R3    R(1,20)                 1.2232         estimate D2E/DX2                !
 ! R4    R(2,3)                  1.4146         estimate D2E/DX2                !
 ! R5    R(2,6)                  1.372          estimate D2E/DX2                !
 ! R6    R(3,4)                  1.4123         estimate D2E/DX2                !
 ! R7    R(3,7)                  1.4244         estimate D2E/DX2                !
 ! R8    R(4,5)                  1.4872         estimate D2E/DX2                !
 ! R9    R(4,14)                 1.3874         estimate D2E/DX2                !
 ! R10   R(5,19)                 1.4053         estimate D2E/DX2                !
 ! R11   R(5,21)                 1.2218         estimate D2E/DX2                !
 ! R12   R(6,9)                  1.4301         estimate D2E/DX2                !
 ! R13   R(6,17)                 1.0837         estimate D2E/DX2                !
 ! R14   R(7,8)                  1.4314         estimate D2E/DX2                !
 ! R15   R(7,12)                 1.4199         estimate D2E/DX2                !
 ! R16   R(8,9)                  1.4217         estimate D2E/DX2                !
 ! R17   R(8,10)                 1.4882         estimate D2E/DX2                !
 ! R18   R(9,32)                 1.4624         estimate D2E/DX2                !
 ! R19   R(10,18)                1.4088         estimate D2E/DX2                !
 ! R20   R(10,23)                1.2245         estimate D2E/DX2                !
 ! R21   R(11,12)                1.4786         estimate D2E/DX2                !
 ! R22   R(11,18)                1.3962         estimate D2E/DX2                !
 ! R23   R(11,22)                1.2248         estimate D2E/DX2                !
 ! R24   R(12,13)                1.3888         estimate D2E/DX2                !
 ! R25   R(13,14)                1.4            estimate D2E/DX2                !
 ! R26   R(13,16)                1.0844         estimate D2E/DX2                !
 ! R27   R(14,15)                1.0834         estimate D2E/DX2                !
 ! R28   R(18,24)                1.4672         estimate D2E/DX2                !
 ! R29   R(19,28)                1.4672         estimate D2E/DX2                !
 ! R30   R(24,25)                1.091          estimate D2E/DX2                !
 ! R31   R(24,26)                1.093          estimate D2E/DX2                !
 ! R32   R(24,27)                1.0865         estimate D2E/DX2                !
 ! R33   R(28,29)                1.0921         estimate D2E/DX2                !
 ! R34   R(28,30)                1.0916         estimate D2E/DX2                !
 ! R35   R(28,31)                1.0867         estimate D2E/DX2                !
 ! R36   R(32,33)                1.3814         estimate D2E/DX2                !
 ! R37   R(32,34)                1.7638         estimate D2E/DX2                !
 ! R38   R(33,35)                1.4086         estimate D2E/DX2                !
 ! R39   R(33,36)                1.0779         estimate D2E/DX2                !
 ! R40   R(34,37)                1.7478         estimate D2E/DX2                !
 ! R41   R(35,37)                1.399          estimate D2E/DX2                !
 ! R42   R(35,38)                1.3594         estimate D2E/DX2                !
 ! R43   R(37,39)                1.4352         estimate D2E/DX2                !
 ! R44   R(38,40)                1.4246         estimate D2E/DX2                !
 ! R45   R(39,41)                1.3945         estimate D2E/DX2                !
 ! R46   R(39,42)                1.7614         estimate D2E/DX2                !
 ! R47   R(40,43)                1.0898         estimate D2E/DX2                !
 ! R48   R(40,44)                1.0966         estimate D2E/DX2                !
 ! R49   R(40,45)                1.0964         estimate D2E/DX2                !
 ! R50   R(41,46)                1.4236         estimate D2E/DX2                !
 ! R51   R(41,47)                1.3591         estimate D2E/DX2                !
 ! R52   R(42,48)                1.7268         estimate D2E/DX2                !
 ! R53   R(46,48)                1.3686         estimate D2E/DX2                !
 ! R54   R(46,49)                1.0813         estimate D2E/DX2                !
 ! R55   R(47,50)                1.4237         estimate D2E/DX2                !
 ! R56   R(48,51)                1.0816         estimate D2E/DX2                !
 ! R57   R(50,52)                1.0978         estimate D2E/DX2                !
 ! R58   R(50,53)                1.0895         estimate D2E/DX2                !
 ! R59   R(50,54)                1.0964         estimate D2E/DX2                !
 ! A1    A(2,1,19)             116.767          estimate D2E/DX2                !
 ! A2    A(2,1,20)             122.9113         estimate D2E/DX2                !
 ! A3    A(19,1,20)            120.3217         estimate D2E/DX2                !
 ! A4    A(1,2,3)              120.5473         estimate D2E/DX2                !
 ! A5    A(1,2,6)              119.3369         estimate D2E/DX2                !
 ! A6    A(3,2,6)              120.1056         estimate D2E/DX2                !
 ! A7    A(2,3,4)              120.3743         estimate D2E/DX2                !
 ! A8    A(2,3,7)              118.662          estimate D2E/DX2                !
 ! A9    A(4,3,7)              120.9617         estimate D2E/DX2                !
 ! A10   A(3,4,5)              120.4909         estimate D2E/DX2                !
 ! A11   A(3,4,14)             120.2702         estimate D2E/DX2                !
 ! A12   A(5,4,14)             119.2382         estimate D2E/DX2                !
 ! A13   A(4,5,19)             116.7341         estimate D2E/DX2                !
 ! A14   A(4,5,21)             122.024          estimate D2E/DX2                !
 ! A15   A(19,5,21)            121.2418         estimate D2E/DX2                !
 ! A16   A(2,6,9)              123.2421         estimate D2E/DX2                !
 ! A17   A(2,6,17)             117.1119         estimate D2E/DX2                !
 ! A18   A(9,6,17)             119.589          estimate D2E/DX2                !
 ! A19   A(3,7,8)              120.9519         estimate D2E/DX2                !
 ! A20   A(3,7,12)             117.1037         estimate D2E/DX2                !
 ! A21   A(8,7,12)             121.944          estimate D2E/DX2                !
 ! A22   A(7,8,9)              119.5639         estimate D2E/DX2                !
 ! A23   A(7,8,10)             117.3064         estimate D2E/DX2                !
 ! A24   A(9,8,10)             122.9922         estimate D2E/DX2                !
 ! A25   A(6,9,8)              117.3944         estimate D2E/DX2                !
 ! A26   A(6,9,32)             115.0236         estimate D2E/DX2                !
 ! A27   A(8,9,32)             127.5648         estimate D2E/DX2                !
 ! A28   A(8,10,18)            118.042          estimate D2E/DX2                !
 ! A29   A(8,10,23)            124.5436         estimate D2E/DX2                !
 ! A30   A(18,10,23)           117.4097         estimate D2E/DX2                !
 ! A31   A(12,11,18)           115.5202         estimate D2E/DX2                !
 ! A32   A(12,11,22)           122.7205         estimate D2E/DX2                !
 ! A33   A(18,11,22)           121.7534         estimate D2E/DX2                !
 ! A34   A(7,12,11)            120.8614         estimate D2E/DX2                !
 ! A35   A(7,12,13)            121.162          estimate D2E/DX2                !
 ! A36   A(11,12,13)           117.9699         estimate D2E/DX2                !
 ! A37   A(12,13,14)           120.9948         estimate D2E/DX2                !
 ! A38   A(12,13,16)           117.8401         estimate D2E/DX2                !
 ! A39   A(14,13,16)           121.1642         estimate D2E/DX2                !
 ! A40   A(4,14,13)            119.5003         estimate D2E/DX2                !
 ! A41   A(4,14,15)            118.9169         estimate D2E/DX2                !
 ! A42   A(13,14,15)           121.5811         estimate D2E/DX2                !
 ! A43   A(10,18,11)           126.0753         estimate D2E/DX2                !
 ! A44   A(10,18,24)           115.7508         estimate D2E/DX2                !
 ! A45   A(11,18,24)           118.1737         estimate D2E/DX2                !
 ! A46   A(1,19,5)             125.0856         estimate D2E/DX2                !
 ! A47   A(1,19,28)            116.2868         estimate D2E/DX2                !
 ! A48   A(5,19,28)            118.6276         estimate D2E/DX2                !
 ! A49   A(18,24,25)           109.8574         estimate D2E/DX2                !
 ! A50   A(18,24,26)           109.8979         estimate D2E/DX2                !
 ! A51   A(18,24,27)           107.5355         estimate D2E/DX2                !
 ! A52   A(25,24,26)           108.1108         estimate D2E/DX2                !
 ! A53   A(25,24,27)           110.8301         estimate D2E/DX2                !
 ! A54   A(26,24,27)           110.6124         estimate D2E/DX2                !
 ! A55   A(19,28,29)           109.6906         estimate D2E/DX2                !
 ! A56   A(19,28,30)           109.8136         estimate D2E/DX2                !
 ! A57   A(19,28,31)           107.7461         estimate D2E/DX2                !
 ! A58   A(29,28,30)           108.2991         estimate D2E/DX2                !
 ! A59   A(29,28,31)           110.6959         estimate D2E/DX2                !
 ! A60   A(30,28,31)           110.5924         estimate D2E/DX2                !
 ! A61   A(9,32,33)            130.8893         estimate D2E/DX2                !
 ! A62   A(9,32,34)            118.8101         estimate D2E/DX2                !
 ! A63   A(33,32,34)           110.0454         estimate D2E/DX2                !
 ! A64   A(32,33,35)           113.5866         estimate D2E/DX2                !
 ! A65   A(32,33,36)           122.7878         estimate D2E/DX2                !
 ! A66   A(35,33,36)           123.6236         estimate D2E/DX2                !
 ! A67   A(32,34,37)            92.604          estimate D2E/DX2                !
 ! A68   A(33,35,37)           114.3853         estimate D2E/DX2                !
 ! A69   A(33,35,38)           126.5218         estimate D2E/DX2                !
 ! A70   A(37,35,38)           119.0929         estimate D2E/DX2                !
 ! A71   A(34,37,35)           109.3732         estimate D2E/DX2                !
 ! A72   A(34,37,39)           122.9844         estimate D2E/DX2                !
 ! A73   A(35,37,39)           127.627          estimate D2E/DX2                !
 ! A74   A(35,38,40)           117.5064         estimate D2E/DX2                !
 ! A75   A(37,39,41)           127.5768         estimate D2E/DX2                !
 ! A76   A(37,39,42)           123.1111         estimate D2E/DX2                !
 ! A77   A(41,39,42)           109.3121         estimate D2E/DX2                !
 ! A78   A(38,40,43)           106.0118         estimate D2E/DX2                !
 ! A79   A(38,40,44)           111.1504         estimate D2E/DX2                !
 ! A80   A(38,40,45)           111.2426         estimate D2E/DX2                !
 ! A81   A(43,40,44)           109.3268         estimate D2E/DX2                !
 ! A82   A(43,40,45)           109.6853         estimate D2E/DX2                !
 ! A83   A(44,40,45)           109.3582         estimate D2E/DX2                !
 ! A84   A(39,41,46)           114.1831         estimate D2E/DX2                !
 ! A85   A(39,41,47)           119.2116         estimate D2E/DX2                !
 ! A86   A(46,41,47)           126.6051         estimate D2E/DX2                !
 ! A87   A(39,42,48)            91.8054         estimate D2E/DX2                !
 ! A88   A(41,46,48)           111.8944         estimate D2E/DX2                !
 ! A89   A(41,46,49)           124.471          estimate D2E/DX2                !
 ! A90   A(48,46,49)           123.6346         estimate D2E/DX2                !
 ! A91   A(41,47,50)           117.9163         estimate D2E/DX2                !
 ! A92   A(42,48,46)           112.8051         estimate D2E/DX2                !
 ! A93   A(42,48,51)           119.7552         estimate D2E/DX2                !
 ! A94   A(46,48,51)           127.4394         estimate D2E/DX2                !
 ! A95   A(47,50,52)           111.2258         estimate D2E/DX2                !
 ! A96   A(47,50,53)           106.023          estimate D2E/DX2                !
 ! A97   A(47,50,54)           111.2911         estimate D2E/DX2                !
 ! A98   A(52,50,53)           109.3523         estimate D2E/DX2                !
 ! A99   A(52,50,54)           109.4323         estimate D2E/DX2                !
 ! A100  A(53,50,54)           109.4415         estimate D2E/DX2                !
 ! D1    D(19,1,2,3)             0.1578         estimate D2E/DX2                !
 ! D2    D(19,1,2,6)          -178.6792         estimate D2E/DX2                !
 ! D3    D(20,1,2,3)          -179.8231         estimate D2E/DX2                !
 ! D4    D(20,1,2,6)             1.3399         estimate D2E/DX2                !
 ! D5    D(2,1,19,5)            -0.124          estimate D2E/DX2                !
 ! D6    D(2,1,19,28)          179.8267         estimate D2E/DX2                !
 ! D7    D(20,1,19,5)          179.8575         estimate D2E/DX2                !
 ! D8    D(20,1,19,28)          -0.1919         estimate D2E/DX2                !
 ! D9    D(1,2,3,4)              0.0571         estimate D2E/DX2                !
 ! D10   D(1,2,3,7)            179.5453         estimate D2E/DX2                !
 ! D11   D(6,2,3,4)            178.8851         estimate D2E/DX2                !
 ! D12   D(6,2,3,7)             -1.6266         estimate D2E/DX2                !
 ! D13   D(1,2,6,9)            178.625          estimate D2E/DX2                !
 ! D14   D(1,2,6,17)             1.3881         estimate D2E/DX2                !
 ! D15   D(3,2,6,9)             -0.2173         estimate D2E/DX2                !
 ! D16   D(3,2,6,17)          -177.4541         estimate D2E/DX2                !
 ! D17   D(2,3,4,5)             -0.3074         estimate D2E/DX2                !
 ! D18   D(2,3,4,14)           179.3968         estimate D2E/DX2                !
 ! D19   D(7,3,4,5)           -179.7837         estimate D2E/DX2                !
 ! D20   D(7,3,4,14)            -0.0795         estimate D2E/DX2                !
 ! D21   D(2,3,7,8)              1.0523         estimate D2E/DX2                !
 ! D22   D(2,3,7,12)          -178.712          estimate D2E/DX2                !
 ! D23   D(4,3,7,8)           -179.4626         estimate D2E/DX2                !
 ! D24   D(4,3,7,12)             0.7731         estimate D2E/DX2                !
 ! D25   D(3,4,5,19)             0.3343         estimate D2E/DX2                !
 ! D26   D(3,4,5,21)          -179.7799         estimate D2E/DX2                !
 ! D27   D(14,4,5,19)         -179.3729         estimate D2E/DX2                !
 ! D28   D(14,4,5,21)            0.5129         estimate D2E/DX2                !
 ! D29   D(3,4,14,13)           -0.4559         estimate D2E/DX2                !
 ! D30   D(3,4,14,15)         -179.9937         estimate D2E/DX2                !
 ! D31   D(5,4,14,13)          179.252          estimate D2E/DX2                !
 ! D32   D(5,4,14,15)           -0.2858         estimate D2E/DX2                !
 ! D33   D(4,5,19,1)            -0.1141         estimate D2E/DX2                !
 ! D34   D(4,5,19,28)          179.9364         estimate D2E/DX2                !
 ! D35   D(21,5,19,1)          179.9992         estimate D2E/DX2                !
 ! D36   D(21,5,19,28)           0.0496         estimate D2E/DX2                !
 ! D37   D(2,6,9,8)              2.5984         estimate D2E/DX2                !
 ! D38   D(2,6,9,32)          -176.0103         estimate D2E/DX2                !
 ! D39   D(17,6,9,8)           179.77           estimate D2E/DX2                !
 ! D40   D(17,6,9,32)            1.1613         estimate D2E/DX2                !
 ! D41   D(3,7,8,9)              1.3551         estimate D2E/DX2                !
 ! D42   D(3,7,8,10)          -174.5099         estimate D2E/DX2                !
 ! D43   D(12,7,8,9)          -178.8921         estimate D2E/DX2                !
 ! D44   D(12,7,8,10)            5.2428         estimate D2E/DX2                !
 ! D45   D(3,7,12,11)          178.0768         estimate D2E/DX2                !
 ! D46   D(3,7,12,13)           -0.9621         estimate D2E/DX2                !
 ! D47   D(8,7,12,11)           -1.685          estimate D2E/DX2                !
 ! D48   D(8,7,12,13)          179.2761         estimate D2E/DX2                !
 ! D49   D(7,8,9,6)             -3.0809         estimate D2E/DX2                !
 ! D50   D(7,8,9,32)           175.3285         estimate D2E/DX2                !
 ! D51   D(10,8,9,6)           172.5381         estimate D2E/DX2                !
 ! D52   D(10,8,9,32)           -9.0525         estimate D2E/DX2                !
 ! D53   D(7,8,10,18)           -4.7549         estimate D2E/DX2                !
 ! D54   D(7,8,10,23)          174.4235         estimate D2E/DX2                !
 ! D55   D(9,8,10,18)          179.5335         estimate D2E/DX2                !
 ! D56   D(9,8,10,23)           -1.2882         estimate D2E/DX2                !
 ! D57   D(6,9,32,33)          -51.5544         estimate D2E/DX2                !
 ! D58   D(6,9,32,34)          134.8862         estimate D2E/DX2                !
 ! D59   D(8,9,32,33)          130.004          Frozen                          !
 ! D60   D(8,9,32,34)          -43.5553         estimate D2E/DX2                !
 ! D61   D(8,10,18,11)           0.7189         estimate D2E/DX2                !
 ! D62   D(8,10,18,24)        -179.4089         estimate D2E/DX2                !
 ! D63   D(23,10,18,11)       -178.5188         estimate D2E/DX2                !
 ! D64   D(23,10,18,24)          1.3535         estimate D2E/DX2                !
 ! D65   D(18,11,12,7)          -2.3856         estimate D2E/DX2                !
 ! D66   D(18,11,12,13)        176.6833         estimate D2E/DX2                !
 ! D67   D(22,11,12,7)         178.4862         estimate D2E/DX2                !
 ! D68   D(22,11,12,13)         -2.445          estimate D2E/DX2                !
 ! D69   D(12,11,18,10)          2.8444         estimate D2E/DX2                !
 ! D70   D(12,11,18,24)       -177.0251         estimate D2E/DX2                !
 ! D71   D(22,11,18,10)       -178.0181         estimate D2E/DX2                !
 ! D72   D(22,11,18,24)          2.1124         estimate D2E/DX2                !
 ! D73   D(7,12,13,14)           0.461          estimate D2E/DX2                !
 ! D74   D(7,12,13,16)        -179.8781         estimate D2E/DX2                !
 ! D75   D(11,12,13,14)       -178.6049         estimate D2E/DX2                !
 ! D76   D(11,12,13,16)          1.056          estimate D2E/DX2                !
 ! D77   D(12,13,14,4)           0.2708         estimate D2E/DX2                !
 ! D78   D(12,13,14,15)        179.7958         estimate D2E/DX2                !
 ! D79   D(16,13,14,4)        -179.3788         estimate D2E/DX2                !
 ! D80   D(16,13,14,15)          0.1463         estimate D2E/DX2                !
 ! D81   D(10,18,24,25)        -59.609          estimate D2E/DX2                !
 ! D82   D(10,18,24,26)         59.2209         estimate D2E/DX2                !
 ! D83   D(10,18,24,27)        179.6858         estimate D2E/DX2                !
 ! D84   D(11,18,24,25)        120.2739         estimate D2E/DX2                !
 ! D85   D(11,18,24,26)       -120.8962         estimate D2E/DX2                !
 ! D86   D(11,18,24,27)         -0.4313         estimate D2E/DX2                !
 ! D87   D(1,19,28,29)         -58.1407         estimate D2E/DX2                !
 ! D88   D(1,19,28,30)          60.7668         estimate D2E/DX2                !
 ! D89   D(1,19,28,31)        -178.7139         estimate D2E/DX2                !
 ! D90   D(5,19,28,29)         121.8132         estimate D2E/DX2                !
 ! D91   D(5,19,28,30)        -119.2792         estimate D2E/DX2                !
 ! D92   D(5,19,28,31)           1.2401         estimate D2E/DX2                !
 ! D93   D(9,32,33,35)        -174.2213         estimate D2E/DX2                !
 ! D94   D(9,32,33,36)           6.2829         estimate D2E/DX2                !
 ! D95   D(34,32,33,35)         -0.2271         estimate D2E/DX2                !
 ! D96   D(34,32,33,36)       -179.7228         estimate D2E/DX2                !
 ! D97   D(9,32,34,37)         175.3601         estimate D2E/DX2                !
 ! D98   D(33,32,34,37)          0.5392         estimate D2E/DX2                !
 ! D99   D(32,33,35,37)         -0.3237         estimate D2E/DX2                !
 ! D100  D(32,33,35,38)        179.7123         estimate D2E/DX2                !
 ! D101  D(36,33,35,37)        179.1672         estimate D2E/DX2                !
 ! D102  D(36,33,35,38)         -0.7968         estimate D2E/DX2                !
 ! D103  D(32,34,37,35)         -0.7052         estimate D2E/DX2                !
 ! D104  D(32,34,37,39)        177.9658         estimate D2E/DX2                !
 ! D105  D(33,35,37,34)          0.7156         estimate D2E/DX2                !
 ! D106  D(33,35,37,39)       -177.8769         estimate D2E/DX2                !
 ! D107  D(38,35,37,34)       -179.3174         estimate D2E/DX2                !
 ! D108  D(38,35,37,39)          2.0901         estimate D2E/DX2                !
 ! D109  D(33,35,38,40)          6.5715         estimate D2E/DX2                !
 ! D110  D(37,35,38,40)       -173.391          estimate D2E/DX2                !
 ! D111  D(34,37,39,41)          2.7966         estimate D2E/DX2                !
 ! D112  D(34,37,39,42)       -177.1654         estimate D2E/DX2                !
 ! D113  D(35,37,39,41)       -178.7864         estimate D2E/DX2                !
 ! D114  D(35,37,39,42)          1.2516         estimate D2E/DX2                !
 ! D115  D(35,38,40,43)        175.4488         estimate D2E/DX2                !
 ! D116  D(35,38,40,44)        -65.8524         estimate D2E/DX2                !
 ! D117  D(35,38,40,45)         56.2691         estimate D2E/DX2                !
 ! D118  D(37,39,41,46)       -179.9594         estimate D2E/DX2                !
 ! D119  D(37,39,41,47)         -0.1359         estimate D2E/DX2                !
 ! D120  D(42,39,41,46)          0.007          estimate D2E/DX2                !
 ! D121  D(42,39,41,47)        179.8305         estimate D2E/DX2                !
 ! D122  D(37,39,42,48)        179.9607         estimate D2E/DX2                !
 ! D123  D(41,39,42,48)         -0.0074         estimate D2E/DX2                !
 ! D124  D(39,41,46,48)         -0.0025         estimate D2E/DX2                !
 ! D125  D(39,41,46,49)       -179.9491         estimate D2E/DX2                !
 ! D126  D(47,41,46,48)       -179.8106         estimate D2E/DX2                !
 ! D127  D(47,41,46,49)          0.2428         estimate D2E/DX2                !
 ! D128  D(39,41,47,50)        178.3254         estimate D2E/DX2                !
 ! D129  D(46,41,47,50)         -1.8752         estimate D2E/DX2                !
 ! D130  D(39,42,48,46)          0.0063         estimate D2E/DX2                !
 ! D131  D(39,42,48,51)        179.834          estimate D2E/DX2                !
 ! D132  D(41,46,48,42)         -0.0034         estimate D2E/DX2                !
 ! D133  D(41,46,48,51)       -179.815          estimate D2E/DX2                !
 ! D134  D(49,46,48,42)        179.9437         estimate D2E/DX2                !
 ! D135  D(49,46,48,51)          0.1322         estimate D2E/DX2                !
 ! D136  D(41,47,50,52)         62.0748         estimate D2E/DX2                !
 ! D137  D(41,47,50,53)       -179.1484         estimate D2E/DX2                !
 ! D138  D(41,47,50,54)        -60.229          estimate D2E/DX2                !
 --------------------------------------------------------------------------------
 Trust Radius=3.00D-01 FncErr=1.00D-07 GrdErr=1.00D-06 EigMax=2.50D+02 EigMin=1.00D-04
 Number of steps in this run=    307 maximum allowed number of steps=    324.
 GradGradGradGradGradGradGradGradGradGradGradGradGradGradGradGradGradGrad

 Stoichiometry    C26H18N2O6S2
 Framework group  C1[X(C26H18N2O6S2)]
 Deg. of freedom   156
 Full point group                 C1      NOp   1
 Largest Abelian subgroup         C1      NOp   1
 Largest concise Abelian subgroup C1      NOp   1
                         Standard orientation:                         
 ---------------------------------------------------------------------
 Center     Atomic      Atomic             Coordinates (Angstroms)
 Number     Number       Type             X           Y           Z
 ---------------------------------------------------------------------
      1          6           0        3.716912   -2.608093    0.487076
      2          6           0        2.883966   -1.413378    0.188802
      3          6           0        3.472175   -0.129682    0.104624
      4          6           0        4.861069    0.033793    0.302016
      5          6           0        5.723057   -1.139029    0.607588
      6          6           0        1.530790   -1.562817    0.018726
      7          6           0        2.638023    0.985843   -0.193005
      8          6           0        1.228660    0.821613   -0.381769
      9          6           0        0.647899   -0.468489   -0.242242
     10          6           0        0.453608    2.016986   -0.812095
     11          6           0        2.487196    3.461616   -0.644733
     12          6           0        3.267163    2.254470   -0.297299
     13          6           0        4.633892    2.397551   -0.096322
     14          6           0        5.437673    1.292041    0.206626
     15          1           0        6.505219    1.392256    0.362029
     16          1           0        5.057814    3.391500   -0.187268
     17          1           0        1.125682   -2.561163    0.135142
     18          7           0        1.132433    3.247854   -0.906017
     19          7           0        5.086610   -2.389974    0.678597
     20          8           0        3.254419   -3.737662    0.566685
     21          8           0        6.926586   -1.029247    0.787285
     22          8           0        2.989617    4.576276   -0.717383
     23          8           0       -0.735049    2.004962   -1.105804
     24          6           0        0.317634    4.395083   -1.321499
     25          1           0       -0.113048    4.206596   -2.306053
     26          1           0       -0.502667    4.544212   -0.614700
     27          1           0        0.966373    5.266379   -1.343936
     28          6           0        5.897980   -3.575577    0.976203
     29          1           0        5.519111   -4.064247    1.876333
     30          1           0        5.834447   -4.284649    0.148702
     31          1           0        6.923817   -3.247254    1.120296
     32          6           0       -0.770659   -0.818903   -0.302334
     33          6           0       -1.431555   -1.793398   -1.024675
     34         16           0       -1.935231    0.203719    0.539746
     35          6           0       -2.833626   -1.729713   -0.905613
     36          1           0       -0.915602   -2.533865   -1.614065
     37          6           0       -3.296864   -0.702044   -0.077062
     38          8           0       -3.734667   -2.552262   -1.505207
     39          6           0       -4.656317   -0.406209    0.275460
     40          6           0       -3.226500   -3.672571   -2.223694
     41          6           0       -5.118722    0.632526    1.082849
     42         16           0       -6.025602   -1.361074   -0.286380
     43          1           0       -4.097469   -4.239811   -2.551276
     44          1           0       -2.651143   -3.352367   -3.100563
     45          1           0       -2.595296   -4.301260   -1.584627
     46          6           0       -6.532731    0.659808    1.245158
     47          8           0       -4.223339    1.496330    1.629983
     48          6           0       -7.144492   -0.356331    0.562372
     49          1           0       -7.067098    1.392221    1.834432
     50          6           0       -4.728042    2.567957    2.419878
     51          1           0       -8.203722   -0.568916    0.509810
     52          1           0       -5.265477    2.193528    3.300834
     53          1           0       -3.858195    3.138817    2.743259
     54          1           0       -5.392405    3.215056    1.835065
 ---------------------------------------------------------------------
 Rotational constants (GHZ):           0.1692262           0.0565752           0.0459480
 Standard basis: 6-311+G(d,p) (5D, 7F)
 There are   952 symmetry adapted cartesian basis functions of A   symmetry.
 There are   916 symmetry adapted basis functions of A   symmetry.
   916 basis functions,  1468 primitive gaussians,   952 cartesian basis functions
   134 alpha electrons      134 beta electrons
       nuclear repulsion energy      4105.9444204800 Hartrees.
 NAtoms=   54 NActive=   54 NUniq=   54 SFac= 1.00D+00 NAtFMM=   60 NAOKFM=F Big=F
 Integral buffers will be    131072 words long.
 Raffenetti 2 integral format.
 Two-electron integral symmetry is turned on.
 ------------------------------------------------------------------------------
 Polarizable Continuum Model (PCM)
 =================================
 Model                : PCM.
 Atomic radii         : UFF (Universal Force Field).
 Polarization charges : Total charges.
 Charge compensation  : None.
 Solution method      : On-the-fly selection.
 Cavity type          : Scaled VdW (van der Waals Surface) (Alpha=1.100).
 Cavity algorithm     : GePol (No added spheres)
                        Default sphere list used, NSphG=   54.
                        Lebedev-Laikov grids with approx.  5.0 points / Ang**2.
                        Smoothing algorithm: York/Karplus (Gamma=1.0000).
                        Polarization charges: spherical gaussians, with
                                              point-specific exponents (IZeta= 3).
                        Self-potential: point-specific (ISelfS= 7).
                        Self-field    : sphere-specific E.n sum rule (ISelfD= 2).
 1st derivatives      : Analytical E(r).r(x)/FMM algorithm (CHGder, D1EAlg=3).
                        Cavity 1st derivative terms included.
 Solvent              : Water, Eps=  78.355300 Eps(inf)=   1.777849
 ------------------------------------------------------------------------------
 One-electron integrals computed using PRISM.
 NBasis=   916 RedAO= T EigKep=  1.00D-06  NBF=   916
 NBsUse=   902 1.00D-06 EigRej=  7.13D-07 NBFU=   902
 ExpMin= 4.05D-02 ExpMax= 9.34D+04 ExpMxC= 3.17D+03 IAcc=3 IRadAn=         5 AccDes= 0.00D+00
 Harris functional with IExCor=  402 and IRadAn=       5 diagonalized for initial guess.
 HarFok:  IExCor=  402 AccDes= 0.00D+00 IRadAn=         5 IDoV= 1 UseB2=F ITyADJ=14
 ICtDFT=  3500011 ScaDFX=  1.000000  1.000000  1.000000  1.000000
 FoFCou: FMM=F IPFlag=           0 FMFlag=      100000 FMFlg1=           0
         NFxFlg=           0 DoJE=T BraDBF=F KetDBF=T FulRan=T
         wScrn=  0.000000 ICntrl=       500 IOpCl=  0 I1Cent=   200000004 NGrid=           0
         NMat0=    1 NMatS0=      1 NMatT0=    0 NMatD0=    1 NMtDS0=    0 NMtDT0=    0
 Petite list used in FoFCou.
 Requested convergence on RMS density matrix=1.00D-08 within 128 cycles.
 Requested convergence on MAX density matrix=1.00D-06.
 Requested convergence on             energy=1.00D-06.
 No special actions if energy rises.
 Inv3:  Mode=1 IEnd=    52166700.
 Iteration    1 A*A^-1 deviation from unit magnitude is 5.55D-15 for   4137.
 Iteration    1 A*A^-1 deviation from orthogonality  is 2.46D-15 for   3734   2737.
 Iteration    1 A^-1*A deviation from unit magnitude is 5.33D-15 for   4159.
 Iteration    1 A^-1*A deviation from orthogonality  is 1.37D-14 for   2489   2464.
 Error on total polarization charges =  0.02296
 SCF Done:  E(RB3LYP) =  -2359.35134417     A.U. after   18 cycles
            NFock= 18  Conv=0.22D-08     -V/T= 2.0032

 **********************************************************************

            Population analysis using the SCF Density.

 **********************************************************************

 Orbital symmetries:
       Occupied  (A) (A) (A) (A) (A) (A) (A) (A) (A) (A) (A) (A)
                 (A) (A) (A) (A) (A) (A) (A) (A) (A) (A) (A) (A)
                 (A) (A) (A) (A) (A) (A) (A) (A) (A) (A) (A) (A)
                 (A) (A) (A) (A) (A) (A) (A) (A) (A) (A) (A) (A)
                 (A) (A) (A) (A) (A) (A) (A) (A) (A) (A) (A) (A)
                 (A) (A) (A) (A) (A) (A) (A) (A) (A) (A) (A) (A)
                 (A) (A) (A) (A) (A) (A) (A) (A) (A) (A) (A) (A)
                 (A) (A) (A) (A) (A) (A) (A) (A) (A) (A) (A) (A)
                 (A) (A) (A) (A) (A) (A) (A) (A) (A) (A) (A) (A)
                 (A) (A) (A) (A) (A) (A) (A) (A) (A) (A) (A) (A)
                 (A) (A) (A) (A) (A) (A) (A) (A) (A) (A) (A) (A)
                 (A) (A)
       Virtual   (A) (A) (A) (A) (A) (A) (A) (A) (A) (A) (A) (A)
                 (A) (A) (A) (A) (A) (A) (A) (A) (A) (A) (A) (A)
                 (A) (A) (A) (A) (A) (A) (A) (A) (A) (A) (A) (A)
                 (A) (A) (A) (A) (A) (A) (A) (A) (A) (A) (A) (A)
                 (A) (A) (A) (A) (A) (A) (A) (A) (A) (A) (A) (A)
                 (A) (A) (A) (A) (A) (A) (A) (A) (A) (A) (A) (A)
                 (A) (A) (A) (A) (A) (A) (A) (A) (A) (A) (A) (A)
                 (A) (A) (A) (A) (A) (A) (A) (A) (A) (A) (A) (A)
                 (A) (A) (A) (A) (A) (A) (A) (A) (A) (A) (A) (A)
                 (A) (A) (A) (A) (A) (A) (A) (A) (A) (A) (A) (A)
                 (A) (A) (A) (A) (A) (A) (A) (A) (A) (A) (A) (A)
                 (A) (A) (A) (A) (A) (A) (A) (A) (A) (A) (A) (A)
                 (A) (A) (A) (A) (A) (A) (A) (A) (A) (A) (A) (A)
                 (A) (A) (A) (A) (A) (A) (A) (A) (A) (A) (A) (A)
                 (A) (A) (A) (A) (A) (A) (A) (A) (A) (A) (A) (A)
                 (A) (A) (A) (A) (A) (A) (A) (A) (A) (A) (A) (A)
                 (A) (A) (A) (A) (A) (A) (A) (A) (A) (A) (A) (A)
                 (A) (A) (A) (A) (A) (A) (A) (A) (A) (A) (A) (A)
                 (A) (A) (A) (A) (A) (A) (A) (A) (A) (A) (A) (A)
                 (A) (A) (A) (A) (A) (A) (A) (A) (A) (A) (A) (A)
                 (A) (A) (A) (A) (A) (A) (A) (A) (A) (A) (A) (A)
                 (A) (A) (A) (A) (A) (A) (A) (A) (A) (A) (A) (A)
                 (A) (A) (A) (A) (A) (A) (A) (A) (A) (A) (A) (A)
                 (A) (A) (A) (A) (A) (A) (A) (A) (A) (A) (A) (A)
                 (A) (A) (A) (A) (A) (A) (A) (A) (A) (A) (A) (A)
                 (A) (A) (A) (A) (A) (A) (A) (A) (A) (A) (A) (A)
                 (A) (A) (A) (A) (A) (A) (A) (A) (A) (A) (A) (A)
                 (A) (A) (A) (A) (A) (A) (A) (A) (A) (A) (A) (A)
                 (A) (A) (A) (A) (A) (A) (A) (A) (A) (A) (A) (A)
                 (A) (A) (A) (A) (A) (A) (A) (A) (A) (A) (A) (A)
                 (A) (A) (A) (A) (A) (A) (A) (A) (A) (A) (A) (A)
                 (A) (A) (A) (A) (A) (A) (A) (A) (A) (A) (A) (A)
                 (A) (A) (A) (A) (A) (A) (A) (A) (A) (A) (A) (A)
                 (A) (A) (A) (A) (A) (A) (A) (A) (A) (A) (A) (A)
                 (A) (A) (A) (A) (A) (A) (A) (A) (A) (A) (A) (A)
                 (A) (A) (A) (A) (A) (A) (A) (A) (A) (A) (A) (A)
                 (A) (A) (A) (A) (A) (A) (A) (A) (A) (A) (A) (A)
                 (A) (A) (A) (A) (A) (A) (A) (A) (A) (A) (A) (A)
                 (A) (A) (A) (A) (A) (A) (A) (A) (A) (A) (A) (A)
                 (A) (A) (A) (A) (A) (A) (A) (A) (A) (A) (A) (A)
                 (A) (A) (A) (A) (A) (A) (A) (A) (A) (A) (A) (A)
                 (A) (A) (A) (A) (A) (A) (A) (A) (A) (A) (A) (A)
                 (A) (A) (A) (A) (A) (A) (A) (A) (A) (A) (A) (A)
                 (A) (A) (A) (A) (A) (A) (A) (A) (A) (A) (A) (A)
                 (A) (A) (A) (A) (A) (A) (A) (A) (A) (A) (A) (A)
                 (A) (A) (A) (A) (A) (A) (A) (A) (A) (A) (A) (A)
                 (A) (A) (A) (A) (A) (A) (A) (A) (A) (A) (A) (A)
                 (A) (A) (A) (A) (A) (A) (A) (A) (A) (A) (A) (A)
                 (A) (A) (A) (A) (A) (A) (A) (A) (A) (A) (A) (A)
                 (A) (A) (A) (A) (A) (A) (A) (A) (A) (A) (A) (A)
                 (A) (A) (A) (A) (A) (A) (A) (A) (A) (A) (A) (A)
                 (A) (A) (A) (A) (A) (A) (A) (A) (A) (A) (A) (A)
                 (A) (A) (A) (A) (A) (A) (A) (A) (A) (A) (A) (A)
                 (A) (A) (A) (A) (A) (A) (A) (A) (A) (A) (A) (A)
                 (A) (A) (A) (A) (A) (A) (A) (A) (A) (A) (A) (A)
                 (A) (A) (A) (A) (A) (A) (A) (A) (A) (A) (A) (A)
                 (A) (A) (A) (A) (A) (A) (A) (A) (A) (A) (A) (A)
                 (A) (A) (A) (A) (A) (A) (A) (A) (A) (A) (A) (A)
                 (A) (A) (A) (A) (A) (A) (A) (A) (A) (A) (A) (A)
                 (A) (A) (A) (A) (A) (A) (A) (A) (A) (A) (A) (A)
                 (A) (A) (A) (A) (A) (A) (A) (A) (A) (A) (A) (A)
                 (A) (A) (A) (A) (A) (A) (A) (A) (A) (A) (A) (A)
                 (A) (A) (A) (A) (A) (A) (A) (A) (A) (A) (A) (A)
                 (A) (A) (A) (A) (A) (A) (A) (A) (A) (A) (A) (A)
 The electronic state is 1-A.
 Alpha  occ. eigenvalues --  -88.88626 -88.88153 -19.17134 -19.16875 -19.13029
 Alpha  occ. eigenvalues --  -19.13019 -19.12426 -19.12101 -14.38921 -14.38403
 Alpha  occ. eigenvalues --  -10.31596 -10.31449 -10.31049 -10.30926 -10.25023
 Alpha  occ. eigenvalues --  -10.24712 -10.24074 -10.23016 -10.22946 -10.22841
 Alpha  occ. eigenvalues --  -10.22775 -10.22578 -10.22576 -10.22327 -10.22318
 Alpha  occ. eigenvalues --  -10.22310 -10.22091 -10.21958 -10.21559 -10.21115
 Alpha  occ. eigenvalues --  -10.21057 -10.21043 -10.20916 -10.20600 -10.19467
 Alpha  occ. eigenvalues --  -10.18888  -7.97183  -7.96730  -5.93491  -5.93105
 Alpha  occ. eigenvalues --   -5.93048  -5.92753  -5.92648  -5.92276  -1.08951
 Alpha  occ. eigenvalues --   -1.08622  -1.08474  -1.08432  -1.07182  -1.06615
 Alpha  occ. eigenvalues --   -0.96499  -0.95891  -0.92304  -0.90398  -0.88815
 Alpha  occ. eigenvalues --   -0.86605  -0.84223  -0.80501  -0.78464  -0.77699
 Alpha  occ. eigenvalues --   -0.76260  -0.75268  -0.75102  -0.73248  -0.72440
 Alpha  occ. eigenvalues --   -0.71694  -0.70135  -0.68812  -0.67285  -0.65872
 Alpha  occ. eigenvalues --   -0.65387  -0.64962  -0.61054  -0.59954  -0.58685
 Alpha  occ. eigenvalues --   -0.57487  -0.56689  -0.56024  -0.54984  -0.54762
 Alpha  occ. eigenvalues --   -0.53797  -0.51745  -0.50244  -0.50087  -0.49804
 Alpha  occ. eigenvalues --   -0.49536  -0.49175  -0.48598  -0.48295  -0.47955
 Alpha  occ. eigenvalues --   -0.47898  -0.47352  -0.46989  -0.46559  -0.45787
 Alpha  occ. eigenvalues --   -0.45668  -0.45314  -0.45008  -0.44290  -0.43860
 Alpha  occ. eigenvalues --   -0.42804  -0.42555  -0.42248  -0.42049  -0.41826
 Alpha  occ. eigenvalues --   -0.41558  -0.41280  -0.41164  -0.40635  -0.40025
 Alpha  occ. eigenvalues --   -0.39525  -0.39164  -0.38538  -0.37754  -0.37546
 Alpha  occ. eigenvalues --   -0.36290  -0.35900  -0.34282  -0.33972  -0.33555
 Alpha  occ. eigenvalues --   -0.33505  -0.32099  -0.31518  -0.30536  -0.30214
 Alpha  occ. eigenvalues --   -0.29648  -0.29432  -0.29041  -0.28656  -0.27639
 Alpha  occ. eigenvalues --   -0.26259  -0.25114  -0.24066  -0.19586
 Alpha virt. eigenvalues --   -0.13404  -0.07538  -0.06541  -0.04917  -0.04134
 Alpha virt. eigenvalues --   -0.00665  -0.00577   0.00154   0.00369   0.00491
 Alpha virt. eigenvalues --    0.00872   0.01141   0.01237   0.01418   0.02066
 Alpha virt. eigenvalues --    0.02341   0.02649   0.02767   0.02945   0.03171
 Alpha virt. eigenvalues --    0.03643   0.03778   0.03916   0.04347   0.04606
 Alpha virt. eigenvalues --    0.04660   0.04979   0.05185   0.05625   0.05758
 Alpha virt. eigenvalues --    0.06178   0.06306   0.06571   0.06814   0.07219
 Alpha virt. eigenvalues --    0.07526   0.07683   0.07703   0.08156   0.08314
 Alpha virt. eigenvalues --    0.08438   0.08659   0.08818   0.09103   0.09433
 Alpha virt. eigenvalues --    0.09715   0.09820   0.09940   0.10397   0.10592
 Alpha virt. eigenvalues --    0.10912   0.11112   0.11457   0.11857   0.11995
 Alpha virt. eigenvalues --    0.12265   0.12587   0.12829   0.13287   0.13586
 Alpha virt. eigenvalues --    0.13635   0.13978   0.14150   0.14251   0.14280
 Alpha virt. eigenvalues --    0.14478   0.14731   0.14958   0.15045   0.15260
 Alpha virt. eigenvalues --    0.15471   0.15812   0.15913   0.16054   0.16504
 Alpha virt. eigenvalues --    0.16624   0.16954   0.17155   0.17489   0.17577
 Alpha virt. eigenvalues --    0.17770   0.18068   0.18228   0.18414   0.18623
 Alpha virt. eigenvalues --    0.19041   0.19224   0.19347   0.19456   0.19681
 Alpha virt. eigenvalues --    0.19892   0.20114   0.20130   0.20453   0.20679
 Alpha virt. eigenvalues --    0.20698   0.20767   0.20960   0.21049   0.21311
 Alpha virt. eigenvalues --    0.21639   0.21740   0.21882   0.21985   0.22147
 Alpha virt. eigenvalues --    0.22574   0.22814   0.23109   0.23210   0.23268
 Alpha virt. eigenvalues --    0.23437   0.23571   0.23915   0.24054   0.24341
 Alpha virt. eigenvalues --    0.24465   0.24589   0.24851   0.25258   0.25587
 Alpha virt. eigenvalues --    0.25719   0.25812   0.25940   0.26071   0.26223
 Alpha virt. eigenvalues --    0.26347   0.26598   0.26653   0.27076   0.27170
 Alpha virt. eigenvalues --    0.27233   0.27541   0.27774   0.28166   0.28391
 Alpha virt. eigenvalues --    0.28488   0.28587   0.28839   0.29219   0.29477
 Alpha virt. eigenvalues --    0.29539   0.29642   0.29815   0.30189   0.30623
 Alpha virt. eigenvalues --    0.30641   0.30866   0.31103   0.31222   0.31405
 Alpha virt. eigenvalues --    0.31577   0.31864   0.31916   0.32367   0.32611
 Alpha virt. eigenvalues --    0.32788   0.33150   0.33380   0.33527   0.33978
 Alpha virt. eigenvalues --    0.34410   0.34753   0.35183   0.35464   0.35656
 Alpha virt. eigenvalues --    0.35864   0.36216   0.36555   0.36912   0.37298
 Alpha virt. eigenvalues --    0.37731   0.37848   0.38135   0.38954   0.39032
 Alpha virt. eigenvalues --    0.39573   0.39616   0.40313   0.40702   0.41165
 Alpha virt. eigenvalues --    0.41994   0.42328   0.42780   0.42908   0.43227
 Alpha virt. eigenvalues --    0.43715   0.44294   0.44459   0.44922   0.45331
 Alpha virt. eigenvalues --    0.45456   0.45715   0.45830   0.46437   0.46702
 Alpha virt. eigenvalues --    0.46944   0.47512   0.47673   0.48508   0.49007
 Alpha virt. eigenvalues --    0.49400   0.49539   0.49748   0.50104   0.50565
 Alpha virt. eigenvalues --    0.50890   0.51927   0.52655   0.53347   0.53547
 Alpha virt. eigenvalues --    0.53703   0.54040   0.54834   0.54954   0.55502
 Alpha virt. eigenvalues --    0.55783   0.56267   0.56524   0.56829   0.57303
 Alpha virt. eigenvalues --    0.57600   0.57775   0.58283   0.58783   0.59166
 Alpha virt. eigenvalues --    0.59936   0.60121   0.60528   0.60962   0.61125
 Alpha virt. eigenvalues --    0.61548   0.62143   0.62203   0.62355   0.62682
 Alpha virt. eigenvalues --    0.63474   0.63605   0.64073   0.64400   0.64585
 Alpha virt. eigenvalues --    0.65106   0.65482   0.65921   0.66143   0.66188
 Alpha virt. eigenvalues --    0.66731   0.67325   0.67446   0.67858   0.68125
 Alpha virt. eigenvalues --    0.68809   0.69063   0.69567   0.69805   0.70312
 Alpha virt. eigenvalues --    0.70517   0.70759   0.71414   0.71662   0.71980
 Alpha virt. eigenvalues --    0.72344   0.72687   0.73085   0.73308   0.73599
 Alpha virt. eigenvalues --    0.73784   0.74292   0.74770   0.74949   0.75096
 Alpha virt. eigenvalues --    0.75546   0.75852   0.76344   0.76363   0.76894
 Alpha virt. eigenvalues --    0.77297   0.77821   0.78218   0.78573   0.78942
 Alpha virt. eigenvalues --    0.79050   0.79468   0.80047   0.80821   0.81245
 Alpha virt. eigenvalues --    0.82040   0.83118   0.83370   0.84133   0.84404
 Alpha virt. eigenvalues --    0.85884   0.86628   0.86868   0.87800   0.88105
 Alpha virt. eigenvalues --    0.88508   0.89124   0.89568   0.89928   0.90144
 Alpha virt. eigenvalues --    0.91073   0.91445   0.92295   0.92369   0.92915
 Alpha virt. eigenvalues --    0.93210   0.93765   0.94022   0.94278   0.95033
 Alpha virt. eigenvalues --    0.95435   0.95767   0.95910   0.96963   0.97150
 Alpha virt. eigenvalues --    0.97960   0.98209   0.98354   0.98988   0.99435
 Alpha virt. eigenvalues --    0.99886   1.00343   1.01252   1.01445   1.01830
 Alpha virt. eigenvalues --    1.02581   1.02594   1.03063   1.03730   1.04428
 Alpha virt. eigenvalues --    1.04856   1.04922   1.05215   1.05756   1.05890
 Alpha virt. eigenvalues --    1.06421   1.06996   1.07206   1.07298   1.08027
 Alpha virt. eigenvalues --    1.08479   1.08840   1.09698   1.09902   1.10078
 Alpha virt. eigenvalues --    1.10869   1.11406   1.11954   1.12257   1.13476
 Alpha virt. eigenvalues --    1.13937   1.15232   1.15527   1.16571   1.17230
 Alpha virt. eigenvalues --    1.17577   1.18044   1.18419   1.19437   1.19708
 Alpha virt. eigenvalues --    1.20781   1.21181   1.21323   1.23360   1.24149
 Alpha virt. eigenvalues --    1.24900   1.25509   1.25812   1.26340   1.26976
 Alpha virt. eigenvalues --    1.27494   1.27944   1.28191   1.29735   1.30219
 Alpha virt. eigenvalues --    1.31434   1.32068   1.32421   1.33518   1.33766
 Alpha virt. eigenvalues --    1.35098   1.35339   1.36959   1.37872   1.37923
 Alpha virt. eigenvalues --    1.39299   1.40253   1.40822   1.41341   1.42372
 Alpha virt. eigenvalues --    1.43146   1.43335   1.43609   1.43922   1.44216
 Alpha virt. eigenvalues --    1.44477   1.44619   1.45216   1.45356   1.45862
 Alpha virt. eigenvalues --    1.46024   1.46416   1.47202   1.47909   1.48447
 Alpha virt. eigenvalues --    1.48985   1.49842   1.51037   1.51377   1.51913
 Alpha virt. eigenvalues --    1.52969   1.53094   1.53985   1.54485   1.54717
 Alpha virt. eigenvalues --    1.55016   1.55346   1.55643   1.55951   1.56637
 Alpha virt. eigenvalues --    1.57005   1.57446   1.58880   1.59133   1.60579
 Alpha virt. eigenvalues --    1.61842   1.62386   1.62770   1.63192   1.63460
 Alpha virt. eigenvalues --    1.64377   1.64941   1.65858   1.66625   1.66912
 Alpha virt. eigenvalues --    1.67140   1.67912   1.68332   1.69432   1.69627
 Alpha virt. eigenvalues --    1.69840   1.70151   1.70655   1.70969   1.71219
 Alpha virt. eigenvalues --    1.71691   1.73459   1.73760   1.74490   1.75250
 Alpha virt. eigenvalues --    1.75824   1.75910   1.77179   1.77553   1.77715
 Alpha virt. eigenvalues --    1.78964   1.79340   1.79955   1.80108   1.81061
 Alpha virt. eigenvalues --    1.82047   1.83337   1.84037   1.85610   1.85935
 Alpha virt. eigenvalues --    1.86219   1.86328   1.86763   1.87381   1.88035
 Alpha virt. eigenvalues --    1.88743   1.89070   1.89857   1.90044   1.90933
 Alpha virt. eigenvalues --    1.91174   1.91747   1.92042   1.93641   1.94572
 Alpha virt. eigenvalues --    1.95126   1.95440   1.96124   1.96675   1.98488
 Alpha virt. eigenvalues --    1.98627   1.99430   2.00367   2.01335   2.01687
 Alpha virt. eigenvalues --    2.02318   2.02649   2.03063   2.03797   2.04226
 Alpha virt. eigenvalues --    2.04850   2.05638   2.06641   2.06958   2.07153
 Alpha virt. eigenvalues --    2.07542   2.08808   2.09361   2.10337   2.11044
 Alpha virt. eigenvalues --    2.11718   2.12034   2.12763   2.13776   2.14562
 Alpha virt. eigenvalues --    2.14953   2.15495   2.16703   2.16970   2.17335
 Alpha virt. eigenvalues --    2.19284   2.19716   2.20492   2.20731   2.21635
 Alpha virt. eigenvalues --    2.22321   2.22982   2.26088   2.26237   2.27142
 Alpha virt. eigenvalues --    2.28790   2.31729   2.32542   2.33009   2.34596
 Alpha virt. eigenvalues --    2.35856   2.37652   2.39274   2.39631   2.41650
 Alpha virt. eigenvalues --    2.43119   2.43848   2.44084   2.44295   2.45521
 Alpha virt. eigenvalues --    2.46118   2.46821   2.47339   2.48159   2.48861
 Alpha virt. eigenvalues --    2.49183   2.50275   2.51532   2.52299   2.52638
 Alpha virt. eigenvalues --    2.53051   2.53604   2.53856   2.54895   2.54977
 Alpha virt. eigenvalues --    2.56216   2.56791   2.57960   2.58579   2.59070
 Alpha virt. eigenvalues --    2.60745   2.62564   2.63551   2.63846   2.64929
 Alpha virt. eigenvalues --    2.66477   2.67223   2.67846   2.68294   2.68447
 Alpha virt. eigenvalues --    2.68849   2.69044   2.69480   2.70259   2.70547
 Alpha virt. eigenvalues --    2.70954   2.71504   2.72897   2.73223   2.74609
 Alpha virt. eigenvalues --    2.75584   2.76140   2.76549   2.77776   2.78782
 Alpha virt. eigenvalues --    2.79374   2.82195   2.82549   2.83458   2.83696
 Alpha virt. eigenvalues --    2.83830   2.84206   2.84871   2.85402   2.86317
 Alpha virt. eigenvalues --    2.86834   2.87438   2.88152   2.88349   2.89339
 Alpha virt. eigenvalues --    2.89743   2.91041   2.91720   2.92647   2.93249
 Alpha virt. eigenvalues --    2.94139   2.94870   2.95209   2.95955   2.96949
 Alpha virt. eigenvalues --    2.99345   3.00010   3.01860   3.03413   3.04228
 Alpha virt. eigenvalues --    3.04367   3.05308   3.05969   3.08646   3.09045
 Alpha virt. eigenvalues --    3.10775   3.11285   3.12516   3.13941   3.14217
 Alpha virt. eigenvalues --    3.15049   3.16223   3.17391   3.19011   3.19848
 Alpha virt. eigenvalues --    3.21252   3.22862   3.23333   3.23724   3.24466
 Alpha virt. eigenvalues --    3.27094   3.28539   3.29499   3.31086   3.31861
 Alpha virt. eigenvalues --    3.33169   3.33631   3.33989   3.34504   3.35233
 Alpha virt. eigenvalues --    3.37030   3.38037   3.39474   3.41445   3.41939
 Alpha virt. eigenvalues --    3.42773   3.44219   3.45211   3.46019   3.48508
 Alpha virt. eigenvalues --    3.49088   3.49841   3.53534   3.55094   3.57349
 Alpha virt. eigenvalues --    3.59111   3.59916   3.61401   3.64562   3.65643
 Alpha virt. eigenvalues --    3.66353   3.69449   3.69888   3.72208   3.72916
 Alpha virt. eigenvalues --    3.75515   3.76980   3.77161   3.81625   3.82990
 Alpha virt. eigenvalues --    3.84917   3.85259   3.86282   3.89759   3.91513
 Alpha virt. eigenvalues --    3.92465   3.93115   3.94610   3.96539   4.01062
 Alpha virt. eigenvalues --    4.03005   4.04403   4.08132   4.10510   4.12629
 Alpha virt. eigenvalues --    4.14313   4.19475   4.23074   4.24985   4.26660
 Alpha virt. eigenvalues --    4.34946   4.38260   4.39945   4.50775   4.67295
 Alpha virt. eigenvalues --    4.84065   4.85555   4.87141   4.90271   5.01829
 Alpha virt. eigenvalues --    5.02538   5.03225   5.04705   5.05111   5.09284
 Alpha virt. eigenvalues --    5.10840   5.12506   5.24122   5.26075   5.28160
 Alpha virt. eigenvalues --    5.30364   5.42562   5.43832   5.74737   5.76580
 Alpha virt. eigenvalues --    5.79327   5.80089   5.81023   5.84220   8.02208
 Alpha virt. eigenvalues --    8.06130  17.28830  17.34981  17.49487  17.52201
 Alpha virt. eigenvalues --   17.58057  17.63146  23.48966  23.56395  23.71727
 Alpha virt. eigenvalues --   23.78702  23.81565  23.82020  23.83720  23.86194
 Alpha virt. eigenvalues --   23.86428  23.87778  23.88851  23.90877  23.91822
 Alpha virt. eigenvalues --   23.92915  23.94668  23.95280  23.96119  23.97871
 Alpha virt. eigenvalues --   24.00309  24.01258  24.02131  24.04790  24.11320
 Alpha virt. eigenvalues --   24.13202  24.13909  24.14407  35.55594  35.58539
 Alpha virt. eigenvalues --   49.95922  49.97493  50.01290  50.03239  50.05045
 Alpha virt. eigenvalues --   50.06723 189.19510 189.24127
          Condensed to atoms (all electrons):
 Mulliken charges:
               1
     1  C    0.404860
     2  C   -0.133992
     3  C    0.161714
     4  C    0.245664
     5  C    0.347276
     6  C   -0.286639
     7  C    0.154743
     8  C    0.236582
     9  C    0.288499
    10  C   -0.250378
    11  C    0.331378
    12  C    0.244198
    13  C   -0.511254
    14  C   -0.659944
    15  H    0.166270
    16  H    0.167554
    17  H    0.160678
    18  N   -0.075726
    19  N   -0.101698
    20  O   -0.342960
    21  O   -0.333440
    22  O   -0.347571
    23  O   -0.255287
    24  C   -0.208488
    25  H    0.184564
    26  H    0.185451
    27  H    0.179508
    28  C   -0.213702
    29  H    0.182220
    30  H    0.183436
    31  H    0.180118
    32  C    0.323210
    33  C   -0.678878
    34  S   -0.568895
    35  C   -0.533491
    36  H    0.164445
    37  C    0.533497
    38  O   -0.136117
    39  C    1.050165
    40  C   -0.266753
    41  C   -0.067061
    42  S   -0.204192
    43  H    0.176317
    44  H    0.162145
    45  H    0.164440
    46  C   -0.529786
    47  O   -0.151715
    48  C   -0.313546
    49  H    0.163666
    50  C   -0.259282
    51  H    0.191718
    52  H    0.160664
    53  H    0.174849
    54  H    0.160966
 Sum of Mulliken charges =  -0.00000
 Mulliken charges with hydrogens summed into heavy atoms:
               1
     1  C    0.404860
     2  C   -0.133992
     3  C    0.161714
     4  C    0.245664
     5  C    0.347276
     6  C   -0.125961
     7  C    0.154743
     8  C    0.236582
     9  C    0.288499
    10  C   -0.250378
    11  C    0.331378
    12  C    0.244198
    13  C   -0.343700
    14  C   -0.493675
    18  N   -0.075726
    19  N   -0.101698
    20  O   -0.342960
    21  O   -0.333440
    22  O   -0.347571
    23  O   -0.255287
    24  C    0.341036
    28  C    0.332071
    32  C    0.323210
    33  C   -0.514433
    34  S   -0.568895
    35  C   -0.533491
    37  C    0.533497
    38  O   -0.136117
    39  C    1.050165
    40  C    0.236149
    41  C   -0.067061
    42  S   -0.204192
    46  C   -0.366120
    47  O   -0.151715
    48  C   -0.121828
    50  C    0.237198
 Electronic spatial extent (au):  <R**2>=          22139.7548
 Charge=             -0.0000 electrons
 Dipole moment (field-independent basis, Debye):
    X=             -4.3608    Y=             -0.9486    Z=              0.5257  Tot=              4.4936
 Quadrupole moment (field-independent basis, Debye-Ang):
   XX=           -211.3878   YY=           -220.8840   ZZ=           -212.6408
   XY=            -12.7325   XZ=            -11.8766   YZ=             18.2376
 Traceless Quadrupole moment (field-independent basis, Debye-Ang):
   XX=              3.5831   YY=             -5.9131   ZZ=              2.3300
   XY=            -12.7325   XZ=            -11.8766   YZ=             18.2376
 Octapole moment (field-independent basis, Debye-Ang**2):
  XXX=           -425.9619  YYY=            -60.9414  ZZZ=              1.4328  XYY=           -116.1226
  XXY=             23.4669  XXZ=             61.3072  XZZ=            -32.1087  YZZ=             -2.0615
  YYZ=            -12.9879  XYZ=            -56.2193
 Hexadecapole moment (field-independent basis, Debye-Ang**3):
 XXXX=         -21233.3282 YYYY=          -7018.9943 ZZZZ=          -1373.1446 XXXY=           -361.3693
 XXXZ=           -657.4671 YYYX=           -398.3529 YYYZ=            230.6896 ZZZX=            -14.9797
 ZZZY=             84.9924 XXYY=          -4494.4371 XXZZ=          -3781.6722 YYZZ=          -1201.8103
 XXYZ=            300.3068 YYXZ=             94.8688 ZZXY=            -95.6065
 N-N= 4.105944420480D+03 E-N=-1.375233761945D+04  KE= 2.351838796675D+03
 D1PCM: PCM CHGder 1st derivatives, ID1Alg=3 FixD1E=F DoIter=F DoCFld=F I1PDM=0.
 Calling FoFJK, ICntrl=      2127 FMM=F ISym2X=0 I1Cent= 0 IOpClX= 0 NMat=1 NMatS=1 NMatT=0.
 ***** Axes restored to original set *****
 -------------------------------------------------------------------
 Center     Atomic                   Forces (Hartrees/Bohr)
 Number     Number              X              Y              Z
 -------------------------------------------------------------------
      1        6          -0.001677810   -0.000188682   -0.000188749
      2        6           0.000165639    0.000268260    0.000178856
      3        6           0.000939161   -0.000540878   -0.000206843
      4        6          -0.000376538    0.001384886    0.000314663
      5        6           0.001991715    0.000075139    0.000045782
      6        6           0.002574209    0.001347268    0.000769640
      7        6          -0.000653567   -0.000341113   -0.000406116
      8        6           0.001972415   -0.002963873   -0.001066347
      9        6          -0.006209365   -0.009475880    0.002435482
     10        6           0.001745318    0.003927197    0.001358725
     11        6           0.003843398   -0.000006314   -0.000332789
     12        6          -0.000625905   -0.000311038    0.000214712
     13        6           0.000438573    0.000040930    0.000041533
     14        6           0.001411861   -0.000703216   -0.000132433
     15        1           0.000615657    0.001757093    0.000210869
     16        1           0.000155768   -0.002169293   -0.000330545
     17        1           0.001529235    0.002290554    0.000869020
     18        7          -0.002985372   -0.001769293   -0.001046427
     19        7           0.000992723    0.002018780    0.000193358
     20        8          -0.003004567    0.002658508    0.000394222
     21        8           0.002822948    0.000222201   -0.000067428
     22        8           0.001902713   -0.001587875   -0.000200894
     23        8          -0.009557519   -0.002655346    0.006547425
     24        6           0.001600880    0.002494416   -0.000669524
     25        1          -0.001388670    0.000094663   -0.000099766
     26        1          -0.001949110   -0.000412932    0.000979454
     27        1           0.002006454    0.000366246    0.000241841
     28        6           0.000077589   -0.002531017   -0.000706275
     29        1          -0.001492727    0.000630726    0.000719911
     30        1          -0.001217046    0.000560747   -0.000178097
     31        1           0.001733500   -0.001088512   -0.000148120
     32        6           0.001005615    0.026237681   -0.005622991
     33        6          -0.004326063   -0.006612567   -0.002374259
     34       16           0.005319619   -0.010446437   -0.002754937
     35        6           0.000943478    0.002857899   -0.002400979
     36        1          -0.000861162   -0.000714533    0.002619694
     37        6          -0.000954225   -0.003690589    0.000482433
     38        8          -0.000990220    0.001183047   -0.001255438
     39        6           0.000022354    0.001600231   -0.001651314
     40        6           0.000608602   -0.004557299    0.003999608
     41        6          -0.001494276   -0.001645802    0.000954939
     42       16           0.000650238    0.000449936   -0.000437492
     43        1          -0.001126574   -0.000063854   -0.000235187
     44        1           0.000869880    0.000271226   -0.001350512
     45        1           0.001094515    0.001471914    0.000243086
     46        6          -0.000092590   -0.000396017    0.000422019
     47        8           0.003406192   -0.003207895    0.002722676
     48        6           0.000592691    0.001501207   -0.001126719
     49        1           0.000195947   -0.000749809    0.000619497
     50        6           0.000363332    0.005701463   -0.005208458
     51        1          -0.001398125   -0.000606835    0.000363359
     52        1          -0.001352056   -0.000148073    0.002256743
     53        1           0.000937086   -0.000146788    0.000239175
     54        1          -0.000795822   -0.001680458   -0.000240082
 -------------------------------------------------------------------
 Cartesian Forces:  Max     0.026237681 RMS     0.003133007

 GradGradGradGradGradGradGradGradGradGradGradGradGradGradGradGradGradGrad
 Berny optimization.
 FormGI is forming the generalized inverse of G from B-inverse, IUseBI=4.
 Internal  Forces:  Max     0.023942784 RMS     0.003391138
 Search for a local minimum.
 Step number   1 out of a maximum of  307
 All quantities printed in internal units (Hartrees-Bohrs-Radians)
 Mixed Optimization -- RFO/linear search
 Second derivative matrix not updated -- first step.
 ITU=  0
     Eigenvalues ---    0.00803   0.00803   0.01176   0.01203   0.01245
     Eigenvalues ---    0.01292   0.01308   0.01311   0.01366   0.01378
     Eigenvalues ---    0.01419   0.01429   0.01459   0.01496   0.01516
     Eigenvalues ---    0.01568   0.01573   0.01577   0.01623   0.01652
     Eigenvalues ---    0.01692   0.01711   0.01712   0.01719   0.01754
     Eigenvalues ---    0.01783   0.01803   0.01847   0.01963   0.02040
     Eigenvalues ---    0.02045   0.02069   0.02076   0.02081   0.02135
     Eigenvalues ---    0.02149   0.02163   0.02179   0.02197   0.02229
     Eigenvalues ---    0.02232   0.02251   0.07556   0.07572   0.07690
     Eigenvalues ---    0.07700   0.10059   0.10072   0.10631   0.10634
     Eigenvalues ---    0.15983   0.15999   0.15999   0.16000   0.16000
     Eigenvalues ---    0.16000   0.16000   0.16000   0.16000   0.16000
     Eigenvalues ---    0.16000   0.16000   0.16000   0.16000   0.16000
     Eigenvalues ---    0.16000   0.16000   0.16000   0.22530   0.22583
     Eigenvalues ---    0.23518   0.23581   0.24516   0.24747   0.24866
     Eigenvalues ---    0.24931   0.24952   0.24985   0.24987   0.24988
     Eigenvalues ---    0.24992   0.24994   0.24997   0.24997   0.24998
     Eigenvalues ---    0.24998   0.25000   0.25000   0.25000   0.25000
     Eigenvalues ---    0.25000   0.25000   0.25000   0.25000   0.25000
     Eigenvalues ---    0.25000   0.28828   0.28915   0.30147   0.32096
     Eigenvalues ---    0.32582   0.32774   0.33111   0.33787   0.33929
     Eigenvalues ---    0.34064   0.34082   0.34084   0.34354   0.34466
     Eigenvalues ---    0.34577   0.34629   0.34693   0.34836   0.34866
     Eigenvalues ---    0.35198   0.35218   0.35468   0.35553   0.35582
     Eigenvalues ---    0.35798   0.35837   0.36078   0.36083   0.36249
     Eigenvalues ---    0.36396   0.36662   0.39352   0.40194   0.40246
     Eigenvalues ---    0.40651   0.40744   0.41524   0.41772   0.41902
     Eigenvalues ---    0.42300   0.42747   0.43455   0.43854   0.44092
     Eigenvalues ---    0.44493   0.44594   0.45014   0.45406   0.46251
     Eigenvalues ---    0.47305   0.47587   0.49310   0.49612   0.53068
     Eigenvalues ---    0.53124   0.93281   0.93432   0.93989   0.94585
     Eigenvalues --- 1000.000001000.000001000.000001000.000001000.00000
     Eigenvalues --- 1000.000001000.000001000.000001000.000001000.00000
     Eigenvalues --- 1000.000001000.000001000.000001000.000001000.00000
     Eigenvalues --- 1000.000001000.000001000.000001000.000001000.00000
     Eigenvalues --- 1000.000001000.000001000.000001000.000001000.00000
     Eigenvalues --- 1000.000001000.000001000.000001000.000001000.00000
     Eigenvalues --- 1000.000001000.000001000.000001000.000001000.00000
     Eigenvalues --- 1000.000001000.000001000.000001000.000001000.00000
     Eigenvalues --- 1000.000001000.000001000.000001000.000001000.00000
     Eigenvalues --- 1000.000001000.000001000.000001000.000001000.00000
     Eigenvalues --- 1000.000001000.000001000.000001000.000001000.00000
     Eigenvalues --- 1000.000001000.000001000.000001000.000001000.00000
     Eigenvalues --- 1000.000001000.000001000.000001000.000001000.00000
     Eigenvalues --- 1000.000001000.000001000.000001000.000001000.00000
     Eigenvalues --- 1000.000001000.000001000.000001000.000001000.00000
     Eigenvalues --- 1000.000001000.000001000.000001000.000001000.00000
     Eigenvalues --- 1000.000001000.000001000.000001000.000001000.00000
     Eigenvalues --- 1000.000001000.000001000.000001000.000001000.00000
     Eigenvalues --- 1000.000001000.000001000.000001000.000001000.00000
     Eigenvalues --- 1000.000001000.000001000.000001000.000001000.00000
     Eigenvalues --- 1000.000001000.000001000.000001000.000001000.00000
     Eigenvalues --- 1000.000001000.000001000.000001000.000001000.00000
     Eigenvalues --- 1000.000001000.000001000.000001000.000001000.00000
     Eigenvalues --- 1000.000001000.000001000.000001000.000001000.00000
     Eigenvalues --- 1000.000001000.000001000.000001000.000001000.00000
     Eigenvalues --- 1000.000001000.000001000.000001000.000001000.00000
     Eigenvalues --- 1000.000001000.000001000.000001000.000001000.00000
     Eigenvalues --- 1000.000001000.000001000.000001000.000001000.00000
     Eigenvalues --- 1000.000001000.00000
 RFO step:  Lambda=-2.50371396D-02 EMin= 8.02933640D-03
 Linear search not attempted -- first point.
 Iteration  1 RMS(Cart)=  0.38874813 RMS(Int)=  0.01188152
 Iteration  2 RMS(Cart)=  0.08172264 RMS(Int)=  0.00146051
 Iteration  3 RMS(Cart)=  0.00169402 RMS(Int)=  0.00141066
 Iteration  4 RMS(Cart)=  0.00001090 RMS(Int)=  0.00141066
 Iteration  5 RMS(Cart)=  0.00000006 RMS(Int)=  0.00141066
 Iteration  1 RMS(Cart)=  0.00023821 RMS(Int)=  0.00003823
 Iteration  2 RMS(Cart)=  0.00013514 RMS(Int)=  0.00004267
 Iteration  3 RMS(Cart)=  0.00007667 RMS(Int)=  0.00004841
 Iteration  4 RMS(Cart)=  0.00004349 RMS(Int)=  0.00005237
 Iteration  5 RMS(Cart)=  0.00002467 RMS(Int)=  0.00005479
 Iteration  6 RMS(Cart)=  0.00001400 RMS(Int)=  0.00005621
 Iteration  7 RMS(Cart)=  0.00000794 RMS(Int)=  0.00005703
 Iteration  8 RMS(Cart)=  0.00000451 RMS(Int)=  0.00005750
 Iteration  9 RMS(Cart)=  0.00000256 RMS(Int)=  0.00005777
 Iteration 10 RMS(Cart)=  0.00000145 RMS(Int)=  0.00005792
 Iteration 11 RMS(Cart)=  0.00000082 RMS(Int)=  0.00005801
 Variable       Old X    -DE/DX   Delta X   Delta X   Delta X     New X
                                 (Linear)    (Quad)   (Total)
    R1        2.80935  -0.00137   0.00000  -0.00395  -0.00396   2.80539
    R2        2.64584  -0.00384   0.00000  -0.00819  -0.00811   2.63773
    R3        2.31147  -0.00403   0.00000  -0.00417  -0.00417   2.30730
    R4        2.67311  -0.00374   0.00000  -0.00848  -0.00854   2.66457
    R5        2.59267  -0.00315   0.00000  -0.00669  -0.00656   2.58612
    R6        2.66894  -0.00172   0.00000  -0.00343  -0.00352   2.66542
    R7        2.69164  -0.00087   0.00000  -0.00101  -0.00124   2.69040
    R8        2.81049  -0.00099   0.00000  -0.00254  -0.00253   2.80796
    R9        2.62173  -0.00271   0.00000  -0.00568  -0.00555   2.61618
   R10        2.65570  -0.00353   0.00000  -0.00755  -0.00747   2.64823
   R11        2.30889  -0.00274   0.00000  -0.00282  -0.00282   2.30607
   R12        2.70248  -0.00577   0.00000  -0.01383  -0.01371   2.68877
   R13        2.04786  -0.00065   0.00000  -0.00172  -0.00172   2.04614
   R14        2.70495   0.00144   0.00000   0.00499   0.00465   2.70960
   R15        2.68322  -0.00082   0.00000  -0.00112  -0.00141   2.68181
   R16        2.68655   0.00301   0.00000   0.00713   0.00705   2.69360
   R17        2.81233   0.00328   0.00000   0.00950   0.00947   2.82180
   R18        2.76359   0.00441   0.00000   0.01125   0.01125   2.77485
   R19        2.66221  -0.00198   0.00000  -0.00463  -0.00446   2.65775
   R20        2.31391  -0.00895   0.00000  -0.00933  -0.00933   2.30457
   R21        2.79415  -0.00221   0.00000  -0.00631  -0.00626   2.78789
   R22        2.63842  -0.00608   0.00000  -0.01314  -0.01293   2.62548
   R23        2.31456  -0.00248   0.00000  -0.00259  -0.00259   2.31197
   R24        2.62448  -0.00143   0.00000  -0.00293  -0.00292   2.62157
   R25        2.64561  -0.00342   0.00000  -0.00750  -0.00735   2.63826
   R26        2.04921  -0.00164   0.00000  -0.00432  -0.00432   2.04489
   R27        2.04741  -0.00115   0.00000  -0.00301  -0.00301   2.04440
   R28        2.77259   0.00258   0.00000   0.00668   0.00668   2.77928
   R29        2.77252   0.00258   0.00000   0.00668   0.00668   2.77920
   R30        2.06176  -0.00081   0.00000  -0.00217  -0.00217   2.05959
   R31        2.06551  -0.00197   0.00000  -0.00532  -0.00532   2.06020
   R32        2.05322  -0.00153   0.00000  -0.00406  -0.00406   2.04916
   R33        2.06368  -0.00143   0.00000  -0.00386  -0.00386   2.05982
   R34        2.06281  -0.00091   0.00000  -0.00244  -0.00244   2.06037
   R35        2.05355  -0.00160   0.00000  -0.00425  -0.00425   2.04930
   R36        2.61042  -0.00017   0.00000  -0.00087   0.00015   2.61057
   R37        3.33315  -0.00447   0.00000  -0.01482  -0.01383   3.31932
   R38        2.66179   0.00009   0.00000   0.00024   0.00019   2.66198
   R39        2.03695   0.00224   0.00000   0.00578   0.00578   2.04272
   R40        3.30292   0.00072   0.00000   0.00280   0.00201   3.30493
   R41        2.64372  -0.00199   0.00000  -0.00352  -0.00473   2.63899
   R42        2.56890   0.00137   0.00000   0.00246   0.00246   2.57136
   R43        2.71220   0.00154   0.00000   0.00360   0.00360   2.71580
   R44        2.69215   0.00393   0.00000   0.00887   0.00887   2.70102
   R45        2.63525  -0.00112   0.00000  -0.00227  -0.00227   2.63298
   R46        3.32848   0.00057   0.00000   0.00198   0.00198   3.33046
   R47        2.05942  -0.00113   0.00000  -0.00303  -0.00303   2.05639
   R48        2.07222  -0.00157   0.00000  -0.00429  -0.00429   2.06793
   R49        2.07188  -0.00167   0.00000  -0.00456  -0.00456   2.06731
   R50        2.69013  -0.00047   0.00000  -0.00118  -0.00118   2.68895
   R51        2.56838  -0.00207   0.00000  -0.00371  -0.00371   2.56467
   R52        3.26316  -0.00058   0.00000  -0.00161  -0.00161   3.26155
   R53        2.58622  -0.00173   0.00000  -0.00332  -0.00332   2.58290
   R54        2.04337  -0.00094   0.00000  -0.00246  -0.00246   2.04091
   R55        2.69048   0.00478   0.00000   0.01077   0.01077   2.70126
   R56        2.04398  -0.00152   0.00000  -0.00396  -0.00396   2.04002
   R57        2.07450  -0.00257   0.00000  -0.00705  -0.00705   2.06745
   R58        2.05893  -0.00098   0.00000  -0.00261  -0.00261   2.05631
   R59        2.07192  -0.00177   0.00000  -0.00484  -0.00484   2.06708
    A1        2.03797   0.00152   0.00000   0.00489   0.00486   2.04282
    A2        2.14521  -0.00052   0.00000  -0.00157  -0.00155   2.14366
    A3        2.10001  -0.00100   0.00000  -0.00333  -0.00331   2.09670
    A4        2.10395   0.00041   0.00000   0.00226   0.00217   2.10612
    A5        2.08282   0.00043   0.00000   0.00248   0.00268   2.08551
    A6        2.09624  -0.00085   0.00000  -0.00504  -0.00528   2.09095
    A7        2.10093  -0.00121   0.00000  -0.00481  -0.00461   2.09632
    A8        2.07104   0.00053   0.00000   0.00145   0.00127   2.07231
    A9        2.11118   0.00068   0.00000   0.00327   0.00318   2.11436
   A10        2.10296  -0.00011   0.00000   0.00021   0.00010   2.10306
   A11        2.09911   0.00017   0.00000   0.00034   0.00028   2.09939
   A12        2.08110  -0.00006   0.00000  -0.00056  -0.00039   2.08071
   A13        2.03739   0.00137   0.00000   0.00509   0.00507   2.04246
   A14        2.12972   0.00013   0.00000   0.00042   0.00043   2.13015
   A15        2.11607  -0.00150   0.00000  -0.00551  -0.00550   2.11057
   A16        2.15098   0.00243   0.00000   0.00728   0.00687   2.15785
   A17        2.04399   0.00150   0.00000   0.01040   0.01031   2.05430
   A18        2.08722  -0.00400   0.00000  -0.01926  -0.01937   2.06785
   A19        2.11101   0.00093   0.00000   0.00427   0.00433   2.11534
   A20        2.04385  -0.00170   0.00000  -0.00658  -0.00635   2.03749
   A21        2.12832   0.00077   0.00000   0.00227   0.00195   2.13028
   A22        2.08678  -0.00399   0.00000  -0.01382  -0.01441   2.07238
   A23        2.04738  -0.00487   0.00000  -0.01816  -0.01876   2.02862
[...]
 Alpha  occ. eigenvalues --   -0.53904  -0.51860  -0.50421  -0.50191  -0.49903
 Alpha  occ. eigenvalues --   -0.49609  -0.49266  -0.48646  -0.48201  -0.47898
 Alpha  occ. eigenvalues --   -0.47809  -0.47451  -0.47036  -0.46717  -0.45826
 Alpha  occ. eigenvalues --   -0.45500  -0.45382  -0.45140  -0.44358  -0.43934
 Alpha  occ. eigenvalues --   -0.42922  -0.42656  -0.42234  -0.42076  -0.41827
 Alpha  occ. eigenvalues --   -0.41736  -0.41519  -0.41188  -0.40753  -0.40137
 Alpha  occ. eigenvalues --   -0.39701  -0.39145  -0.38751  -0.37850  -0.37536
 Alpha  occ. eigenvalues --   -0.36263  -0.35892  -0.34227  -0.33832  -0.33768
 Alpha  occ. eigenvalues --   -0.33585  -0.32294  -0.31640  -0.30804  -0.30026
 Alpha  occ. eigenvalues --   -0.29702  -0.29338  -0.29246  -0.28656  -0.27763
 Alpha  occ. eigenvalues --   -0.26319  -0.25130  -0.24714  -0.19513
 Alpha virt. eigenvalues --   -0.13370  -0.07261  -0.06412  -0.04988  -0.04364
 Alpha virt. eigenvalues --   -0.00853  -0.00620   0.00104   0.00379   0.00458
 Alpha virt. eigenvalues --    0.00736   0.01044   0.01210   0.01291   0.02101
 Alpha virt. eigenvalues --    0.02371   0.02663   0.02725   0.02924   0.03137
 Alpha virt. eigenvalues --    0.03645   0.03774   0.03899   0.04257   0.04599
 Alpha virt. eigenvalues --    0.04749   0.04993   0.05126   0.05614   0.05712
 Alpha virt. eigenvalues --    0.06090   0.06368   0.06536   0.06769   0.07039
 Alpha virt. eigenvalues --    0.07592   0.07612   0.07695   0.08101   0.08321
 Alpha virt. eigenvalues --    0.08419   0.08588   0.08766   0.09169   0.09440
 Alpha virt. eigenvalues --    0.09510   0.09651   0.09935   0.10360   0.10555
 Alpha virt. eigenvalues --    0.10897   0.11125   0.11370   0.11542   0.11909
 Alpha virt. eigenvalues --    0.12399   0.12531   0.12989   0.13094   0.13438
 Alpha virt. eigenvalues --    0.13563   0.13887   0.14021   0.14154   0.14304
 Alpha virt. eigenvalues --    0.14565   0.14661   0.14869   0.14895   0.15302
 Alpha virt. eigenvalues --    0.15547   0.15858   0.16041   0.16216   0.16277
 Alpha virt. eigenvalues --    0.16583   0.16745   0.17199   0.17354   0.17490
 Alpha virt. eigenvalues --    0.17842   0.18178   0.18308   0.18390   0.18613
 Alpha virt. eigenvalues --    0.18918   0.19068   0.19320   0.19615   0.19775
 Alpha virt. eigenvalues --    0.20015   0.20073   0.20296   0.20314   0.20608
 Alpha virt. eigenvalues --    0.20716   0.20791   0.21015   0.21182   0.21286
 Alpha virt. eigenvalues --    0.21413   0.21803   0.21954   0.22005   0.22348
 Alpha virt. eigenvalues --    0.22558   0.22881   0.23055   0.23237   0.23300
 Alpha virt. eigenvalues --    0.23453   0.23514   0.23808   0.24192   0.24334
 Alpha virt. eigenvalues --    0.24588   0.24813   0.24946   0.25134   0.25702
 Alpha virt. eigenvalues --    0.25713   0.25760   0.25939   0.26026   0.26177
 Alpha virt. eigenvalues --    0.26356   0.26650   0.26830   0.26952   0.27089
 Alpha virt. eigenvalues --    0.27405   0.27576   0.27796   0.28230   0.28239
 Alpha virt. eigenvalues --    0.28493   0.28690   0.28791   0.29115   0.29409
 Alpha virt. eigenvalues --    0.29557   0.29896   0.29939   0.30056   0.30401
 Alpha virt. eigenvalues --    0.30649   0.30796   0.31013   0.31236   0.31376
 Alpha virt. eigenvalues --    0.31610   0.31678   0.31899   0.32368   0.32643
 Alpha virt. eigenvalues --    0.33186   0.33393   0.33618   0.33763   0.34158
 Alpha virt. eigenvalues --    0.34549   0.34907   0.35201   0.35566   0.35680
 Alpha virt. eigenvalues --    0.35726   0.36392   0.36838   0.37091   0.37287
 Alpha virt. eigenvalues --    0.37773   0.38014   0.38251   0.38862   0.39255
 Alpha virt. eigenvalues --    0.39638   0.39791   0.40217   0.40709   0.40983
 Alpha virt. eigenvalues --    0.41497   0.41932   0.42300   0.42963   0.43207
 Alpha virt. eigenvalues --    0.43463   0.43740   0.44306   0.44727   0.45320
 Alpha virt. eigenvalues --    0.45809   0.45865   0.45981   0.46308   0.46587
 Alpha virt. eigenvalues --    0.46976   0.48050   0.48865   0.48920   0.49175
 Alpha virt. eigenvalues --    0.49500   0.49715   0.49909   0.50683   0.51096
 Alpha virt. eigenvalues --    0.51585   0.51715   0.52826   0.53802   0.53974
 Alpha virt. eigenvalues --    0.54047   0.54584   0.54886   0.55085   0.55555
 Alpha virt. eigenvalues --    0.55745   0.56025   0.56656   0.57247   0.57540
 Alpha virt. eigenvalues --    0.57812   0.58079   0.58436   0.58732   0.59130
 Alpha virt. eigenvalues --    0.59509   0.60576   0.60844   0.61227   0.61355
 Alpha virt. eigenvalues --    0.61723   0.62189   0.62434   0.62549   0.63385
 Alpha virt. eigenvalues --    0.63842   0.64373   0.64715   0.65009   0.65166
 Alpha virt. eigenvalues --    0.65365   0.66075   0.66220   0.66553   0.67168
 Alpha virt. eigenvalues --    0.67382   0.67626   0.68110   0.68461   0.68933
 Alpha virt. eigenvalues --    0.69049   0.69622   0.69706   0.70115   0.70373
 Alpha virt. eigenvalues --    0.70510   0.71039   0.71664   0.71902   0.72211
 Alpha virt. eigenvalues --    0.72417   0.72756   0.73097   0.73537   0.73745
 Alpha virt. eigenvalues --    0.74190   0.74464   0.74716   0.74972   0.75096
 Alpha virt. eigenvalues --    0.75604   0.75851   0.76076   0.76356   0.76894
 Alpha virt. eigenvalues --    0.77459   0.77665   0.78161   0.78715   0.79064
 Alpha virt. eigenvalues --    0.79536   0.80181   0.80377   0.81364   0.81849
 Alpha virt. eigenvalues --    0.82471   0.83018   0.83823   0.84310   0.85684
 Alpha virt. eigenvalues --    0.86333   0.86735   0.87084   0.87270   0.88305
 Alpha virt. eigenvalues --    0.88326   0.89647   0.90078   0.90535   0.90849
 Alpha virt. eigenvalues --    0.90998   0.91634   0.92189   0.92349   0.92925
 Alpha virt. eigenvalues --    0.93633   0.93738   0.94076   0.94528   0.94826
 Alpha virt. eigenvalues --    0.95304   0.95404   0.96469   0.96797   0.97134
 Alpha virt. eigenvalues --    0.97655   0.97873   0.98871   0.99232   0.99717
 Alpha virt. eigenvalues --    1.00451   1.01075   1.01563   1.01967   1.02192
 Alpha virt. eigenvalues --    1.02663   1.02946   1.03618   1.03933   1.04510
 Alpha virt. eigenvalues --    1.04939   1.04988   1.05511   1.05599   1.06404
 Alpha virt. eigenvalues --    1.06956   1.07198   1.07541   1.07977   1.08666
 Alpha virt. eigenvalues --    1.09161   1.09546   1.09911   1.10121   1.10944
 Alpha virt. eigenvalues --    1.11314   1.12148   1.12950   1.13132   1.13798
 Alpha virt. eigenvalues --    1.15003   1.15352   1.16403   1.17423   1.17665
 Alpha virt. eigenvalues --    1.18221   1.18446   1.19232   1.20482   1.20706
 Alpha virt. eigenvalues --    1.21480   1.22006   1.23170   1.23639   1.24423
 Alpha virt. eigenvalues --    1.24858   1.25572   1.26261   1.26512   1.26754
 Alpha virt. eigenvalues --    1.27378   1.27957   1.28861   1.30162   1.31083
 Alpha virt. eigenvalues --    1.31892   1.33413   1.33961   1.34195   1.35054
 Alpha virt. eigenvalues --    1.35466   1.35842   1.36136   1.37441   1.39508
 Alpha virt. eigenvalues --    1.39958   1.41183   1.41558   1.42385   1.42988
 Alpha virt. eigenvalues --    1.43217   1.43317   1.43651   1.43954   1.44289
 Alpha virt. eigenvalues --    1.44868   1.45133   1.45424   1.45916   1.46227
 Alpha virt. eigenvalues --    1.46772   1.47658   1.48120   1.49202   1.49817
 Alpha virt. eigenvalues --    1.50396   1.50783   1.51753   1.51876   1.52505
 Alpha virt. eigenvalues --    1.52886   1.53551   1.54221   1.54777   1.54963
 Alpha virt. eigenvalues --    1.55366   1.55633   1.56223   1.56894   1.57022
 Alpha virt. eigenvalues --    1.58473   1.59005   1.59974   1.60182   1.60932
 Alpha virt. eigenvalues --    1.61955   1.62781   1.63480   1.63928   1.64159
 Alpha virt. eigenvalues --    1.64627   1.65082   1.66055   1.66876   1.67070
 Alpha virt. eigenvalues --    1.67945   1.68591   1.69222   1.70008   1.70080
 Alpha virt. eigenvalues --    1.70460   1.70739   1.71286   1.71746   1.72431
 Alpha virt. eigenvalues --    1.73460   1.73780   1.74538   1.74759   1.76180
 Alpha virt. eigenvalues --    1.76495   1.77027   1.77155   1.78032   1.78574
 Alpha virt. eigenvalues --    1.79329   1.80160   1.80367   1.81421   1.81979
 Alpha virt. eigenvalues --    1.83108   1.84147   1.84281   1.85542   1.86200
 Alpha virt. eigenvalues --    1.86424   1.86555   1.87415   1.87801   1.88598
 Alpha virt. eigenvalues --    1.89195   1.89306   1.90385   1.90619   1.90947
 Alpha virt. eigenvalues --    1.91811   1.92127   1.93411   1.94115   1.95346
 Alpha virt. eigenvalues --    1.95761   1.96300   1.97381   1.98391   1.98655
 Alpha virt. eigenvalues --    1.99447   2.00058   2.00776   2.01286   2.01788
 Alpha virt. eigenvalues --    2.02431   2.02864   2.03217   2.04685   2.05449
 Alpha virt. eigenvalues --    2.05764   2.06516   2.07160   2.07526   2.07941
 Alpha virt. eigenvalues --    2.08838   2.09477   2.09726   2.11064   2.11274
 Alpha virt. eigenvalues --    2.11853   2.12833   2.13571   2.14553   2.14757
 Alpha virt. eigenvalues --    2.15659   2.15993   2.16801   2.18081   2.18566
 Alpha virt. eigenvalues --    2.19115   2.19788   2.20496   2.21207   2.21729
 Alpha virt. eigenvalues --    2.22370   2.25294   2.25922   2.26756   2.28935
 Alpha virt. eigenvalues --    2.31391   2.32443   2.33098   2.34367   2.37270
 Alpha virt. eigenvalues --    2.38118   2.39378   2.40424   2.41604   2.43442
 Alpha virt. eigenvalues --    2.43692   2.44540   2.44937   2.45411   2.46157
 Alpha virt. eigenvalues --    2.47003   2.47855   2.48390   2.49318   2.49545
 Alpha virt. eigenvalues --    2.50198   2.51731   2.52398   2.52498   2.52990
 Alpha virt. eigenvalues --    2.53533   2.54145   2.55079   2.55567   2.56482
 Alpha virt. eigenvalues --    2.57703   2.57979   2.58312   2.59094   2.60985
 Alpha virt. eigenvalues --    2.62288   2.63723   2.64212   2.64748   2.66186
 Alpha virt. eigenvalues --    2.67219   2.67456   2.67888   2.68513   2.68580
 Alpha virt. eigenvalues --    2.69375   2.69622   2.70680   2.71039   2.71511
 Alpha virt. eigenvalues --    2.71957   2.72413   2.73019   2.74578   2.75825
 Alpha virt. eigenvalues --    2.76689   2.76990   2.77596   2.79079   2.80415
 Alpha virt. eigenvalues --    2.82035   2.82890   2.83013   2.83269   2.83642
 Alpha virt. eigenvalues --    2.83955   2.84954   2.85638   2.86146   2.87195
 Alpha virt. eigenvalues --    2.87424   2.87958   2.88646   2.89782   2.90313
 Alpha virt. eigenvalues --    2.91463   2.91816   2.92705   2.93110   2.94605
 Alpha virt. eigenvalues --    2.94962   2.95484   2.96110   2.98112   2.99460
 Alpha virt. eigenvalues --    3.00506   3.02140   3.03229   3.03928   3.04818
 Alpha virt. eigenvalues --    3.06015   3.06083   3.06459   3.08676   3.08862
 Alpha virt. eigenvalues --    3.10720   3.12281   3.13238   3.14323   3.14675
 Alpha virt. eigenvalues --    3.16315   3.16939   3.19108   3.21297   3.21557
 Alpha virt. eigenvalues --    3.23065   3.23271   3.23726   3.25138   3.27150
 Alpha virt. eigenvalues --    3.29597   3.29818   3.30784   3.31932   3.33409
 Alpha virt. eigenvalues --    3.33861   3.34180   3.34418   3.36116   3.37586
 Alpha virt. eigenvalues --    3.37958   3.40159   3.41053   3.42249   3.43024
 Alpha virt. eigenvalues --    3.43710   3.45153   3.45769   3.48392   3.49230
 Alpha virt. eigenvalues --    3.50375   3.53599   3.55421   3.57672   3.59471
 Alpha virt. eigenvalues --    3.60453   3.61139   3.64672   3.65638   3.66585
 Alpha virt. eigenvalues --    3.68619   3.70406   3.73214   3.74801   3.75871
 Alpha virt. eigenvalues --    3.77853   3.77942   3.81915   3.83117   3.84375
 Alpha virt. eigenvalues --    3.84986   3.85159   3.89417   3.91137   3.92666
 Alpha virt. eigenvalues --    3.93339   3.94767   3.96224   4.00913   4.02480
 Alpha virt. eigenvalues --    4.03678   4.07865   4.10349   4.12012   4.14142
 Alpha virt. eigenvalues --    4.19539   4.22926   4.24933   4.26357   4.34730
 Alpha virt. eigenvalues --    4.38139   4.39612   4.49956   4.67132   4.84556
 Alpha virt. eigenvalues --    4.86650   4.86697   4.89586   5.01899   5.02344
 Alpha virt. eigenvalues --    5.03278   5.04859   5.05426   5.08971   5.10576
 Alpha virt. eigenvalues --    5.12022   5.23724   5.25189   5.27248   5.28505
 Alpha virt. eigenvalues --    5.41234   5.42538   5.74980   5.76227   5.78675
 Alpha virt. eigenvalues --    5.79974   5.81246   5.82465   8.02032   8.05409
 Alpha virt. eigenvalues --   17.28967  17.34387  17.49428  17.52259  17.57978
 Alpha virt. eigenvalues --   17.62277  23.48617  23.56250  23.72193  23.79427
 Alpha virt. eigenvalues --   23.81745  23.82338  23.83722  23.86353  23.86800
 Alpha virt. eigenvalues --   23.87424  23.88742  23.91331  23.92292  23.93720
 Alpha virt. eigenvalues --   23.94878  23.95930  23.96717  24.00224  24.01688
 Alpha virt. eigenvalues --   24.03046  24.03199  24.05489  24.11448  24.13760
 Alpha virt. eigenvalues --   24.14295  24.15384  35.55369  35.57839  49.96178
 Alpha virt. eigenvalues --   49.97535  50.01238  50.02725  50.04764  50.06040
 Alpha virt. eigenvalues --  189.19252 189.23618
          Condensed to atoms (all electrons):
 Mulliken charges:
               1
     1  C    0.450344
     2  C   -0.097849
     3  C    0.135197
     4  C    0.232446
     5  C    0.300946
     6  C   -0.321802
     7  C    0.148081
     8  C    0.167266
     9  C    0.332315
    10  C   -0.433152
    11  C    0.322999
    12  C    0.095812
    13  C   -0.454645
    14  C   -0.615595
    15  H    0.166762
    16  H    0.166852
    17  H    0.163272
    18  N    0.002951
    19  N   -0.109766
    20  O   -0.341873
    21  O   -0.334735
    22  O   -0.349989
    23  O   -0.265371
    24  C   -0.197987
    25  H    0.192745
    26  H    0.182293
    27  H    0.181209
    28  C   -0.213946
    29  H    0.185347
    30  H    0.182516
    31  H    0.180656
    32  C    0.341721
    33  C   -0.551708
    34  S   -0.539540
    35  C   -0.132531
    36  H    0.162360
    37  C    0.453994
    38  O   -0.161155
    39  C    0.812923
    40  C   -0.237393
    41  C    0.024477
    42  S   -0.242458
    43  H    0.176797
    44  H    0.163883
    45  H    0.165992
    46  C   -0.594020
    47  O   -0.166106
    48  C   -0.327755
    49  H    0.161845
    50  C   -0.251400
    51  H    0.189599
    52  H    0.161283
    53  H    0.174472
    54  H    0.161422
 Sum of Mulliken charges =  -0.00000
 Mulliken charges with hydrogens summed into heavy atoms:
               1
     1  C    0.450344
     2  C   -0.097849
     3  C    0.135197
     4  C    0.232446
     5  C    0.300946
     6  C   -0.158530
     7  C    0.148081
     8  C    0.167266
     9  C    0.332315
    10  C   -0.433152
    11  C    0.322999
    12  C    0.095812
    13  C   -0.287793
    14  C   -0.448833
    18  N    0.002951
    19  N   -0.109766
    20  O   -0.341873
    21  O   -0.334735
    22  O   -0.349989
    23  O   -0.265371
    24  C    0.358260
    28  C    0.334573
    32  C    0.341721
    33  C   -0.389348
    34  S   -0.539540
    35  C   -0.132531
    37  C    0.453994
    38  O   -0.161155
    39  C    0.812923
    40  C    0.269279
    41  C    0.024477
    42  S   -0.242458
    46  C   -0.432175
    47  O   -0.166106
    48  C   -0.138155
    50  C    0.245777
 Electronic spatial extent (au):  <R**2>=          22054.4935
 Charge=             -0.0000 electrons
 Dipole moment (field-independent basis, Debye):
    X=             -3.0500    Y=             -0.5435    Z=              0.8834  Tot=              3.2215
 Quadrupole moment (field-independent basis, Debye-Ang):
   XX=           -213.3006   YY=           -223.4443   ZZ=           -208.5790
   XY=            -10.7410   XZ=            -15.1790   YZ=             18.6341
 Traceless Quadrupole moment (field-independent basis, Debye-Ang):
   XX=              1.8074   YY=             -8.3363   ZZ=              6.5289
   XY=            -10.7410   XZ=            -15.1790   YZ=             18.6341
 Octapole moment (field-independent basis, Debye-Ang**2):
  XXX=           -370.3061  YYY=            -40.8570  ZZZ=              6.6266  XYY=            -91.9057
  XXY=             16.7545  XXZ=             62.5506  XZZ=            -53.5086  YZZ=             -7.1478
  YYZ=            -16.2217  XYZ=            -63.6266
 Hexadecapole moment (field-independent basis, Debye-Ang**3):
 XXXX=         -20942.0601 YYYY=          -6830.0824 ZZZZ=          -1765.2638 XXXY=           -189.4415
 XXXZ=           -803.5678 YYYX=           -466.1715 YYYZ=            131.5964 ZZZX=            -57.0116
 ZZZY=            141.3311 XXYY=          -4501.1236 XXZZ=          -3697.0981 YYZZ=          -1214.2958
 XXYZ=            330.1173 YYXZ=             95.7393 ZZXY=            -72.6596
 N-N= 4.099865489294D+03 E-N=-1.374011090314D+04  KE= 2.351991685597D+03
 Unable to Open any file for archive entry.
 1\1\GINC-CX3-11-0\FOpt\RB3LYP\6-311+G(d,p)\C26H18N2O6S2\NS5018\28-Oct-
 2021\0\\# opt=modredundant b3lyp/6-311+g(d,p) scrf=(pcm, solvent=water
 )\\NDI_130.pdb\\0,1\C,-2.4730784648,-2.9166059487,-0.5308658888\C,-2.2
 004508047,-1.4856359112,-0.2462574611\C,-3.2715998934,-0.5785363397,-0
 .0842475388\C,-4.6087333337,-1.0130372782,-0.2045393517\C,-4.907299788
 5,-2.4380730392,-0.500979874\C,-0.9025979993,-1.0358588409,-0.17811198
 97\C,-2.9846615951,0.7810079816,0.2107082263\C,-1.6377840324,1.2195564
 634,0.3348308619\C,-0.5872675574,0.3255545154,0.0725283723\C,-1.401405
 3822,2.5897002889,0.8654673428\C,-3.820910198,3.106490715,0.6724269526
 \C,-4.0691589786,1.6775572485,0.369563209\C,-5.3744007564,1.2324294553
 ,0.2370267672\C,-5.6483462897,-0.1121377619,-0.0468229415\H,-6.6697307
 993,-0.4554246887,-0.1437005074\H,-6.1835192549,1.9409542808,0.3563802
 873\H,-0.0959154933,-1.734487917,-0.3573284253\N,-2.4923881283,3.47407
 88798,0.8770595683\N,-3.8116490711,-3.301445574,-0.6363126075\O,-1.583
 4345315,-3.7413388822,-0.6710369862\O,-6.0508030667,-2.8480900486,-0.6
 196669794\O,-4.7255477189,3.9241873296,0.7616644705\O,-0.3285110005,2.
 9634642453,1.3085027583\C,-2.2148689735,4.860265959,1.2838418586\H,-2.
 1479008302,4.9347247568,2.37109296\H,-1.2698187085,5.1734360324,0.8478
 838268\H,-3.0260056981,5.4867330657,0.9269448507\C,-4.061893258,-4.723
 4423117,-0.9196961264\H,-3.6194881068,-4.9916815968,-1.8790273502\H,-3
 .6131860391,-5.3364429113,-0.1387348957\H,-5.1348903384,-4.8779278022,
 -0.9476176622\C,0.8334239835,0.6834421658,-0.0215268996\C,1.8816468458
 ,0.0701332203,0.6227399635\S,1.4001935714,1.9025466455,-1.1325190769\C
 ,3.1424893071,0.6034901757,0.2563475668\H,1.7423835435,-0.7144273353,1
 .3525728167\C,3.0797465039,1.6096989303,-0.7037428681\O,4.351366339,0.
 2199104194,0.7450018673\C,4.1714699898,2.3197324432,-1.3174594437\C,4.
 3828461119,-0.8465335494,1.7008387004\C,4.105034523,3.3233975198,-2.27
 76071213\S,5.8600117305,2.0052932033,-0.9218604312\H,5.432828746,-0.99
 78390216,1.9418565938\H,3.834946212,-0.5742362998,2.60693661\H,3.96807
 29808,-1.7643286327,1.2755191186\C,5.3735376829,3.8286783874,-2.683181
 3432\O,2.8933631601,3.7284487838,-2.7392619107\C,6.4044332271,3.209722
 5776,-2.0346481434\H,5.5151786652,4.6090236922,-3.4164535891\C,2.85893
 91796,4.777331281,-3.7148589492\H,7.4622274507,3.3935826908,-2.1453058
 055\H,3.3788514778,4.4767789746,-4.6282609652\H,1.8063676606,4.9449496
 044,-3.9326795798\H,3.3018871994,5.6942297586,-3.3174228372\\Version=E
 S64L-G16RevC.01\State=1-A\HF=-2359.3593485\RMSD=5.996e-09\RMSF=1.586e-
 04\Dipole=1.1332224,0.2566029,-0.5063041\Quadrupole=-6.5436704,0.52138
 59,6.0222845,5.9400742,-3.6316565,-18.0775069\PG=C01 [X(C26H18N2O6S2)]
 \\@
 The archive entry for this job was punched.


 GETTING A SIMPLE ANSWER FROM A PROFESSOR IS LIKE
 GETTING A THIMBLE OF WATER FROM A FIRE HYDRANT.
     -- PROF. LEN SHAPIRO, NDSU
 Job cpu time:       3 days  5 hours 46 minutes 22.4 seconds.
 Elapsed time:       0 days  4 hours 55 minutes 16.0 seconds.
 File lengths (MBytes):  RWF=    853 Int=      0 D2E=      0 Chk=     65 Scr=      1
 Normal termination of Gaussian 16 at Thu Oct 28 03:12:33 2021.
