 Entering Gaussian System, Link 0=g16
 Input=NDI_60.gjf
 Output=NDI_60.log
 Initial command:
 /apps/gaussian/g16-c01-avx/g16/l1.exe "/tmp/pbs.4768611[235].pbs/Gau-1500743.inp" -scrdir="/tmp/pbs.4768611[235].pbs/"
 Entering Link 1 = /apps/gaussian/g16-c01-avx/g16/l1.exe PID=   1500744.
  
 Copyright (c) 1988-2019, Gaussian, Inc.  All Rights Reserved.
  
 This is part of the Gaussian(R) 16 program.  It is based on
 the Gaussian(R) 09 system (copyright 2009, Gaussian, Inc.),
 the Gaussian(R) 03 system (copyright 2003, Gaussian, Inc.),
 the Gaussian(R) 98 system (copyright 1998, Gaussian, Inc.),
 the Gaussian(R) 94 system (copyright 1995, Gaussian, Inc.),
 the Gaussian 92(TM) system (copyright 1992, Gaussian, Inc.),
 the Gaussian 90(TM) system (copyright 1990, Gaussian, Inc.),
 the Gaussian 88(TM) system (copyright 1988, Gaussian, Inc.),
 the Gaussian 86(TM) system (copyright 1986, Carnegie Mellon
 University), and the Gaussian 82(TM) system (copyright 1983,
 Carnegie Mellon University). Gaussian is a federally registered
 trademark of Gaussian, Inc.
  
 This software contains proprietary and confidential information,
 including trade secrets, belonging to Gaussian, Inc.
  
 This software is provided under written license and may be
 used, copied, transmitted, or stored only in accord with that
 written license.
  
 The following legend is applicable only to US Government
 contracts under FAR:
  
                    RESTRICTED RIGHTS LEGEND
  
 Use, reproduction and disclosure by the US Government is
 subject to restrictions as set forth in subparagraphs (a)
 and (c) of the Commercial Computer Software - Restricted
 Rights clause in FAR 52.227-19.
  
 Gaussian, Inc.
 340 Quinnipiac St., Bldg. 40, Wallingford CT 06492
  
  
 ---------------------------------------------------------------
 Warning -- This program may not be used in any manner that
 competes with the business of Gaussian, Inc. or will provide
 assistance to any competitor of Gaussian, Inc.  The licensee
 of this program is prohibited from giving any competitor of
 Gaussian, Inc. access to this program.  By using this program,
 the user acknowledges that Gaussian, Inc. is engaged in the
 business of creating and licensing software in the field of
 computational chemistry and represents and warrants to the
 licensee that it is not a competitor of Gaussian, Inc. and that
 it will not use this program in any manner prohibited above.
 ---------------------------------------------------------------
  

 Cite this work as:
 Gaussian 16, Revision C.01,
 M. J. Frisch, G. W. Trucks, H. B. Schlegel, G. E. Scuseria, 
 M. A. Robb, J. R. Cheeseman, G. Scalmani, V. Barone, 
 G. A. Petersson, H. Nakatsuji, X. Li, M. Caricato, A. V. Marenich, 
 J. Bloino, B. G. Janesko, R. Gomperts, B. Mennucci, H. P. Hratchian, 
 J. V. Ortiz, A. F. Izmaylov, J. L. Sonnenberg, D. Williams-Young, 
 F. Ding, F. Lipparini, F. Egidi, J. Goings, B. Peng, A. Petrone, 
 T. Henderson, D. Ranasinghe, V. G. Zakrzewski, J. Gao, N. Rega, 
 G. Zheng, W. Liang, M. Hada, M. Ehara, K. Toyota, R. Fukuda, 
 J. Hasegawa, M. Ishida, T. Nakajima, Y. Honda, O. Kitao, H. Nakai, 
 T. Vreven, K. Throssell, J. A. Montgomery, Jr., J. E. Peralta, 
 F. Ogliaro, M. J. Bearpark, J. J. Heyd, E. N. Brothers, K. N. Kudin, 
 V. N. Staroverov, T. A. Keith, R. Kobayashi, J. Normand, 
 K. Raghavachari, A. P. Rendell, J. C. Burant, S. S. Iyengar, 
 J. Tomasi, M. Cossi, J. M. Millam, M. Klene, C. Adamo, R. Cammi, 
 J. W. Ochterski, R. L. Martin, K. Morokuma, O. Farkas, 
 J. B. Foresman, and D. J. Fox, Gaussian, Inc., Wallingford CT, 2019.
 
 ******************************************
 Gaussian 16:  ES64L-G16RevC.01  3-Jul-2019
                27-Oct-2021 
 ******************************************
 %mem=100GB
 %nprocshared=16
 Will use up to   16 processors via shared memory.
 ---------------------------------------------------------------
 # opt=modredundant b3lyp/6-311+g(d,p) scrf=(pcm, solvent=water)
 ---------------------------------------------------------------
 1/18=120,19=15,26=3,38=1/1,3;
 2/9=110,12=2,17=6,18=5,40=1/2;
 3/5=4,6=6,7=111,11=2,25=1,30=1,70=2201,71=1,72=1,74=-5/1,2,3;
 4//1;
 5/5=2,38=5,53=1/2;
 6/7=2,8=2,9=2,10=2,28=1/1;
 7//1,2,3,16;
 1/18=20,19=15,26=3/3(2);
 2/9=110/2;
 99//99;
 2/9=110/2;
 3/5=4,6=6,7=111,11=2,25=1,30=1,70=2205,71=1,72=1,74=-5/1,2,3;
 4/5=5,16=3,69=1/1;
 5/5=2,38=5,53=1/2;
 7//1,2,3,16;
 1/18=20,19=15,26=3/3(-5);
 2/9=110/2;
 6/7=2,8=2,9=2,10=2,19=2,28=1/1;
 99/9=1/99;
 ----------
 NDI_60.pdb
 ----------
 Symbolic Z-matrix:
 Charge =  0 Multiplicity = 1
 C                    -2.563    -2.994    -0.409 
 C                    -2.257    -1.551    -0.224 
 C                    -3.301    -0.607    -0.083 
 C                    -4.65     -1.024    -0.115 
 C                    -4.992    -2.459    -0.304 
 C                    -0.949    -1.137    -0.215 
 C                    -2.962     0.764     0.102 
 C                    -1.595     1.188     0.123 
 C                    -0.561     0.232    -0.072 
 C                    -1.328     2.616     0.446 
 C                    -3.777     3.115     0.508 
 C                    -4.035     1.679     0.268 
 C                    -5.356     1.252     0.23 
 C                    -5.672    -0.098     0.036 
 H                    -6.699    -0.442     0.008 
 H                    -6.133     1.997     0.361 
 H                    -0.19     -1.895    -0.369 
 N                    -2.432     3.476     0.608 
 N                    -3.916    -3.353    -0.438 
 O                    -1.695    -3.847    -0.532 
 O                    -6.149    -2.85     -0.34 
 O                    -4.676     3.938     0.629 
 O                    -0.212     3.097     0.596 
 C                    -2.111     4.875     0.912 
 H                    -1.54      4.931     1.84 
 H                    -1.5       5.299     0.111 
 H                    -3.05      5.414     1.003 
 C                    -4.206    -4.779    -0.625 
 H                    -3.759    -5.126    -1.559 
 H                    -3.775    -5.355     0.196 
 H                    -5.286    -4.897    -0.649 
 C                     0.876     0.482    -0.178 
 C                     1.762     1.055     0.714 
 S                     1.682     0.169    -1.715 
 C                     3.055     1.234     0.185 
 H                     1.485     1.326     1.719 
 C                     3.207     0.797    -1.135 
 O                     4.124     1.776     0.828 
 C                     4.402     0.805    -1.93 
 C                     3.975     2.078     2.213 
 C                     4.545     0.39     -3.253 
 S                     5.956     1.37     -1.324 
 H                     4.953     2.419     2.552 
 H                     3.238     2.875     2.367 
 H                     3.675     1.19      2.782 
 C                     5.867     0.523    -3.765 
 O                     3.463    -0.09     -3.92 
 C                     6.727     1.038    -2.833 
 H                     6.165     0.252    -4.769 
 C                     3.632    -0.472    -5.28 
 H                     7.782     1.243    -2.954 
 H                     4.353    -1.294    -5.375 
 H                     2.654    -0.809    -5.622 
 H                     3.962     0.375    -5.893 
 
 The following ModRedundant input section has been read:
 D       8       9      32      33 F                                           
 

 GradGradGradGradGradGradGradGradGradGradGradGradGradGradGradGradGradGrad
 Berny optimization.
 Initialization pass.
                           ----------------------------
                           !    Initial Parameters    !
                           ! (Angstroms and Degrees)  !
 --------------------------                            --------------------------
 ! Name  Definition              Value          Derivative Info.                !
 --------------------------------------------------------------------------------
 ! R1    R(1,2)                  1.4866         estimate D2E/DX2                !
 ! R2    R(1,19)                 1.4001         estimate D2E/DX2                !
 ! R3    R(1,20)                 1.2232         estimate D2E/DX2                !
 ! R4    R(2,3)                  1.4146         estimate D2E/DX2                !
 ! R5    R(2,6)                  1.372          estimate D2E/DX2                !
 ! R6    R(3,4)                  1.4123         estimate D2E/DX2                !
 ! R7    R(3,7)                  1.4244         estimate D2E/DX2                !
 ! R8    R(4,5)                  1.4872         estimate D2E/DX2                !
 ! R9    R(4,14)                 1.3874         estimate D2E/DX2                !
 ! R10   R(5,19)                 1.4053         estimate D2E/DX2                !
 ! R11   R(5,21)                 1.2218         estimate D2E/DX2                !
 ! R12   R(6,9)                  1.4301         estimate D2E/DX2                !
 ! R13   R(6,17)                 1.0837         estimate D2E/DX2                !
 ! R14   R(7,8)                  1.4314         estimate D2E/DX2                !
 ! R15   R(7,12)                 1.4199         estimate D2E/DX2                !
 ! R16   R(8,9)                  1.4217         estimate D2E/DX2                !
 ! R17   R(8,10)                 1.4882         estimate D2E/DX2                !
 ! R18   R(9,32)                 1.4624         estimate D2E/DX2                !
 ! R19   R(10,18)                1.4088         estimate D2E/DX2                !
 ! R20   R(10,23)                1.2245         estimate D2E/DX2                !
 ! R21   R(11,12)                1.4786         estimate D2E/DX2                !
 ! R22   R(11,18)                1.3962         estimate D2E/DX2                !
 ! R23   R(11,22)                1.2248         estimate D2E/DX2                !
 ! R24   R(12,13)                1.3888         estimate D2E/DX2                !
 ! R25   R(13,14)                1.4            estimate D2E/DX2                !
 ! R26   R(13,16)                1.0844         estimate D2E/DX2                !
 ! R27   R(14,15)                1.0834         estimate D2E/DX2                !
 ! R28   R(18,24)                1.4672         estimate D2E/DX2                !
 ! R29   R(19,28)                1.4672         estimate D2E/DX2                !
 ! R30   R(24,25)                1.091          estimate D2E/DX2                !
 ! R31   R(24,26)                1.093          estimate D2E/DX2                !
 ! R32   R(24,27)                1.0865         estimate D2E/DX2                !
 ! R33   R(28,29)                1.0921         estimate D2E/DX2                !
 ! R34   R(28,30)                1.0916         estimate D2E/DX2                !
 ! R35   R(28,31)                1.0867         estimate D2E/DX2                !
 ! R36   R(32,33)                1.3817         estimate D2E/DX2                !
 ! R37   R(32,34)                1.7635         estimate D2E/DX2                !
 ! R38   R(33,35)                1.4084         estimate D2E/DX2                !
 ! R39   R(33,36)                1.0771         estimate D2E/DX2                !
 ! R40   R(34,37)                1.7483         estimate D2E/DX2                !
 ! R41   R(35,37)                1.3987         estimate D2E/DX2                !
 ! R42   R(35,38)                1.3601         estimate D2E/DX2                !
 ! R43   R(37,39)                1.4353         estimate D2E/DX2                !
 ! R44   R(38,40)                1.4254         estimate D2E/DX2                !
 ! R45   R(39,41)                1.3939         estimate D2E/DX2                !
 ! R46   R(39,42)                1.7611         estimate D2E/DX2                !
 ! R47   R(40,43)                1.0898         estimate D2E/DX2                !
 ! R48   R(40,44)                1.0964         estimate D2E/DX2                !
 ! R49   R(40,45)                1.0965         estimate D2E/DX2                !
 ! R50   R(41,46)                1.4239         estimate D2E/DX2                !
 ! R51   R(41,47)                1.3587         estimate D2E/DX2                !
 ! R52   R(42,48)                1.7268         estimate D2E/DX2                !
 ! R53   R(46,48)                1.3687         estimate D2E/DX2                !
 ! R54   R(46,49)                1.0818         estimate D2E/DX2                !
 ! R55   R(47,50)                1.4227         estimate D2E/DX2                !
 ! R56   R(48,51)                1.0815         estimate D2E/DX2                !
 ! R57   R(50,52)                1.0975         estimate D2E/DX2                !
 ! R58   R(50,53)                1.0895         estimate D2E/DX2                !
 ! R59   R(50,54)                1.0964         estimate D2E/DX2                !
 ! A1    A(2,1,19)             116.767          estimate D2E/DX2                !
 ! A2    A(2,1,20)             122.9113         estimate D2E/DX2                !
 ! A3    A(19,1,20)            120.3217         estimate D2E/DX2                !
 ! A4    A(1,2,3)              120.5473         estimate D2E/DX2                !
 ! A5    A(1,2,6)              119.3369         estimate D2E/DX2                !
 ! A6    A(3,2,6)              120.1056         estimate D2E/DX2                !
 ! A7    A(2,3,4)              120.3743         estimate D2E/DX2                !
 ! A8    A(2,3,7)              118.662          estimate D2E/DX2                !
 ! A9    A(4,3,7)              120.9617         estimate D2E/DX2                !
 ! A10   A(3,4,5)              120.4909         estimate D2E/DX2                !
 ! A11   A(3,4,14)             120.2702         estimate D2E/DX2                !
 ! A12   A(5,4,14)             119.2382         estimate D2E/DX2                !
 ! A13   A(4,5,19)             116.7341         estimate D2E/DX2                !
 ! A14   A(4,5,21)             122.024          estimate D2E/DX2                !
 ! A15   A(19,5,21)            121.2418         estimate D2E/DX2                !
 ! A16   A(2,6,9)              123.2421         estimate D2E/DX2                !
 ! A17   A(2,6,17)             117.1119         estimate D2E/DX2                !
 ! A18   A(9,6,17)             119.589          estimate D2E/DX2                !
 ! A19   A(3,7,8)              120.9519         estimate D2E/DX2                !
 ! A20   A(3,7,12)             117.1037         estimate D2E/DX2                !
 ! A21   A(8,7,12)             121.944          estimate D2E/DX2                !
 ! A22   A(7,8,9)              119.5639         estimate D2E/DX2                !
 ! A23   A(7,8,10)             117.3064         estimate D2E/DX2                !
 ! A24   A(9,8,10)             122.9922         estimate D2E/DX2                !
 ! A25   A(6,9,8)              117.3944         estimate D2E/DX2                !
 ! A26   A(6,9,32)             115.0236         estimate D2E/DX2                !
 ! A27   A(8,9,32)             127.5648         estimate D2E/DX2                !
 ! A28   A(8,10,18)            118.042          estimate D2E/DX2                !
 ! A29   A(8,10,23)            124.5436         estimate D2E/DX2                !
 ! A30   A(18,10,23)           117.4097         estimate D2E/DX2                !
 ! A31   A(12,11,18)           115.5202         estimate D2E/DX2                !
 ! A32   A(12,11,22)           122.7205         estimate D2E/DX2                !
 ! A33   A(18,11,22)           121.7534         estimate D2E/DX2                !
 ! A34   A(7,12,11)            120.8614         estimate D2E/DX2                !
 ! A35   A(7,12,13)            121.162          estimate D2E/DX2                !
 ! A36   A(11,12,13)           117.9699         estimate D2E/DX2                !
 ! A37   A(12,13,14)           120.9948         estimate D2E/DX2                !
 ! A38   A(12,13,16)           117.8401         estimate D2E/DX2                !
 ! A39   A(14,13,16)           121.1642         estimate D2E/DX2                !
 ! A40   A(4,14,13)            119.5003         estimate D2E/DX2                !
 ! A41   A(4,14,15)            118.9169         estimate D2E/DX2                !
 ! A42   A(13,14,15)           121.5811         estimate D2E/DX2                !
 ! A43   A(10,18,11)           126.0753         estimate D2E/DX2                !
 ! A44   A(10,18,24)           115.7508         estimate D2E/DX2                !
 ! A45   A(11,18,24)           118.1737         estimate D2E/DX2                !
 ! A46   A(1,19,5)             125.0856         estimate D2E/DX2                !
 ! A47   A(1,19,28)            116.2868         estimate D2E/DX2                !
 ! A48   A(5,19,28)            118.6276         estimate D2E/DX2                !
 ! A49   A(18,24,25)           109.8574         estimate D2E/DX2                !
 ! A50   A(18,24,26)           109.8979         estimate D2E/DX2                !
 ! A51   A(18,24,27)           107.5355         estimate D2E/DX2                !
 ! A52   A(25,24,26)           108.1108         estimate D2E/DX2                !
 ! A53   A(25,24,27)           110.8301         estimate D2E/DX2                !
 ! A54   A(26,24,27)           110.6124         estimate D2E/DX2                !
 ! A55   A(19,28,29)           109.6906         estimate D2E/DX2                !
 ! A56   A(19,28,30)           109.8136         estimate D2E/DX2                !
 ! A57   A(19,28,31)           107.7461         estimate D2E/DX2                !
 ! A58   A(29,28,30)           108.2991         estimate D2E/DX2                !
 ! A59   A(29,28,31)           110.6959         estimate D2E/DX2                !
 ! A60   A(30,28,31)           110.5924         estimate D2E/DX2                !
 ! A61   A(9,32,33)            130.8595         estimate D2E/DX2                !
 ! A62   A(9,32,34)            118.8113         estimate D2E/DX2                !
 ! A63   A(33,32,34)           110.0721         estimate D2E/DX2                !
 ! A64   A(32,33,35)           113.5106         estimate D2E/DX2                !
 ! A65   A(32,33,36)           122.8064         estimate D2E/DX2                !
 ! A66   A(35,33,36)           123.6799         estimate D2E/DX2                !
 ! A67   A(32,34,37)            92.6236         estimate D2E/DX2                !
 ! A68   A(33,35,37)           114.488          estimate D2E/DX2                !
 ! A69   A(33,35,38)           126.4849         estimate D2E/DX2                !
 ! A70   A(37,35,38)           119.0271         estimate D2E/DX2                !
 ! A71   A(34,37,35)           109.3002         estimate D2E/DX2                !
 ! A72   A(34,37,39)           122.9902         estimate D2E/DX2                !
 ! A73   A(35,37,39)           127.6938         estimate D2E/DX2                !
 ! A74   A(35,38,40)           117.4926         estimate D2E/DX2                !
 ! A75   A(37,39,41)           127.5506         estimate D2E/DX2                !
 ! A76   A(37,39,42)           123.0839         estimate D2E/DX2                !
 ! A77   A(41,39,42)           109.3655         estimate D2E/DX2                !
 ! A78   A(38,40,43)           105.9467         estimate D2E/DX2                !
 ! A79   A(38,40,44)           111.1475         estimate D2E/DX2                !
 ! A80   A(38,40,45)           111.1767         estimate D2E/DX2                !
 ! A81   A(43,40,44)           109.3956         estimate D2E/DX2                !
 ! A82   A(43,40,45)           109.7253         estimate D2E/DX2                !
 ! A83   A(44,40,45)           109.3841         estimate D2E/DX2                !
 ! A84   A(39,41,46)           114.1243         estimate D2E/DX2                !
 ! A85   A(39,41,47)           119.3028         estimate D2E/DX2                !
 ! A86   A(46,41,47)           126.5727         estimate D2E/DX2                !
 ! A87   A(39,42,48)            91.8109         estimate D2E/DX2                !
 ! A88   A(41,46,48)           111.941          estimate D2E/DX2                !
 ! A89   A(41,46,49)           124.4769         estimate D2E/DX2                !
 ! A90   A(48,46,49)           123.5821         estimate D2E/DX2                !
 ! A91   A(41,47,50)           118.0045         estimate D2E/DX2                !
 ! A92   A(42,48,46)           112.7583         estimate D2E/DX2                !
 ! A93   A(42,48,51)           119.7934         estimate D2E/DX2                !
 ! A94   A(46,48,51)           127.4483         estimate D2E/DX2                !
 ! A95   A(47,50,52)           111.2156         estimate D2E/DX2                !
 ! A96   A(47,50,53)           106.0509         estimate D2E/DX2                !
 ! A97   A(47,50,54)           111.2717         estimate D2E/DX2                !
 ! A98   A(52,50,53)           109.3214         estimate D2E/DX2                !
 ! A99   A(52,50,54)           109.4189         estimate D2E/DX2                !
 ! A100  A(53,50,54)           109.4895         estimate D2E/DX2                !
 ! D1    D(19,1,2,3)             0.1578         estimate D2E/DX2                !
 ! D2    D(19,1,2,6)          -178.6792         estimate D2E/DX2                !
 ! D3    D(20,1,2,3)          -179.8231         estimate D2E/DX2                !
 ! D4    D(20,1,2,6)             1.3399         estimate D2E/DX2                !
 ! D5    D(2,1,19,5)            -0.124          estimate D2E/DX2                !
 ! D6    D(2,1,19,28)          179.8267         estimate D2E/DX2                !
 ! D7    D(20,1,19,5)          179.8575         estimate D2E/DX2                !
 ! D8    D(20,1,19,28)          -0.1919         estimate D2E/DX2                !
 ! D9    D(1,2,3,4)              0.0571         estimate D2E/DX2                !
 ! D10   D(1,2,3,7)            179.5453         estimate D2E/DX2                !
 ! D11   D(6,2,3,4)            178.8851         estimate D2E/DX2                !
 ! D12   D(6,2,3,7)             -1.6266         estimate D2E/DX2                !
 ! D13   D(1,2,6,9)            178.625          estimate D2E/DX2                !
 ! D14   D(1,2,6,17)             1.3881         estimate D2E/DX2                !
 ! D15   D(3,2,6,9)             -0.2173         estimate D2E/DX2                !
 ! D16   D(3,2,6,17)          -177.4541         estimate D2E/DX2                !
 ! D17   D(2,3,4,5)             -0.3074         estimate D2E/DX2                !
 ! D18   D(2,3,4,14)           179.3968         estimate D2E/DX2                !
 ! D19   D(7,3,4,5)           -179.7837         estimate D2E/DX2                !
 ! D20   D(7,3,4,14)            -0.0795         estimate D2E/DX2                !
 ! D21   D(2,3,7,8)              1.0523         estimate D2E/DX2                !
 ! D22   D(2,3,7,12)          -178.712          estimate D2E/DX2                !
 ! D23   D(4,3,7,8)           -179.4626         estimate D2E/DX2                !
 ! D24   D(4,3,7,12)             0.7731         estimate D2E/DX2                !
 ! D25   D(3,4,5,19)             0.3343         estimate D2E/DX2                !
 ! D26   D(3,4,5,21)          -179.7799         estimate D2E/DX2                !
 ! D27   D(14,4,5,19)         -179.3729         estimate D2E/DX2                !
 ! D28   D(14,4,5,21)            0.5129         estimate D2E/DX2                !
 ! D29   D(3,4,14,13)           -0.4559         estimate D2E/DX2                !
 ! D30   D(3,4,14,15)         -179.9937         estimate D2E/DX2                !
 ! D31   D(5,4,14,13)          179.252          estimate D2E/DX2                !
 ! D32   D(5,4,14,15)           -0.2858         estimate D2E/DX2                !
 ! D33   D(4,5,19,1)            -0.1141         estimate D2E/DX2                !
 ! D34   D(4,5,19,28)          179.9364         estimate D2E/DX2                !
 ! D35   D(21,5,19,1)          179.9992         estimate D2E/DX2                !
 ! D36   D(21,5,19,28)           0.0496         estimate D2E/DX2                !
 ! D37   D(2,6,9,8)              2.5984         estimate D2E/DX2                !
 ! D38   D(2,6,9,32)          -176.0103         estimate D2E/DX2                !
 ! D39   D(17,6,9,8)           179.77           estimate D2E/DX2                !
 ! D40   D(17,6,9,32)            1.1613         estimate D2E/DX2                !
 ! D41   D(3,7,8,9)              1.3551         estimate D2E/DX2                !
 ! D42   D(3,7,8,10)          -174.5099         estimate D2E/DX2                !
 ! D43   D(12,7,8,9)          -178.8921         estimate D2E/DX2                !
 ! D44   D(12,7,8,10)            5.2428         estimate D2E/DX2                !
 ! D45   D(3,7,12,11)          178.0768         estimate D2E/DX2                !
 ! D46   D(3,7,12,13)           -0.9621         estimate D2E/DX2                !
 ! D47   D(8,7,12,11)           -1.685          estimate D2E/DX2                !
 ! D48   D(8,7,12,13)          179.2761         estimate D2E/DX2                !
 ! D49   D(7,8,9,6)             -3.0809         estimate D2E/DX2                !
 ! D50   D(7,8,9,32)           175.3285         estimate D2E/DX2                !
 ! D51   D(10,8,9,6)           172.5381         estimate D2E/DX2                !
 ! D52   D(10,8,9,32)           -9.0525         estimate D2E/DX2                !
 ! D53   D(7,8,10,18)           -4.7549         estimate D2E/DX2                !
 ! D54   D(7,8,10,23)          174.4235         estimate D2E/DX2                !
 ! D55   D(9,8,10,18)          179.5335         estimate D2E/DX2                !
 ! D56   D(9,8,10,23)           -1.2882         estimate D2E/DX2                !
 ! D57   D(6,9,32,33)         -121.5721         estimate D2E/DX2                !
 ! D58   D(6,9,32,34)           64.8916         estimate D2E/DX2                !
 ! D59   D(8,9,32,33)           59.9864         Frozen                          !
 ! D60   D(8,9,32,34)         -113.5499         estimate D2E/DX2                !
 ! D61   D(8,10,18,11)           0.7189         estimate D2E/DX2                !
 ! D62   D(8,10,18,24)        -179.4089         estimate D2E/DX2                !
 ! D63   D(23,10,18,11)       -178.5188         estimate D2E/DX2                !
 ! D64   D(23,10,18,24)          1.3535         estimate D2E/DX2                !
 ! D65   D(18,11,12,7)          -2.3856         estimate D2E/DX2                !
 ! D66   D(18,11,12,13)        176.6833         estimate D2E/DX2                !
 ! D67   D(22,11,12,7)         178.4862         estimate D2E/DX2                !
 ! D68   D(22,11,12,13)         -2.445          estimate D2E/DX2                !
 ! D69   D(12,11,18,10)          2.8444         estimate D2E/DX2                !
 ! D70   D(12,11,18,24)       -177.0251         estimate D2E/DX2                !
 ! D71   D(22,11,18,10)       -178.0181         estimate D2E/DX2                !
 ! D72   D(22,11,18,24)          2.1124         estimate D2E/DX2                !
 ! D73   D(7,12,13,14)           0.461          estimate D2E/DX2                !
 ! D74   D(7,12,13,16)        -179.8781         estimate D2E/DX2                !
 ! D75   D(11,12,13,14)       -178.6049         estimate D2E/DX2                !
 ! D76   D(11,12,13,16)          1.056          estimate D2E/DX2                !
 ! D77   D(12,13,14,4)           0.2708         estimate D2E/DX2                !
 ! D78   D(12,13,14,15)        179.7958         estimate D2E/DX2                !
 ! D79   D(16,13,14,4)        -179.3788         estimate D2E/DX2                !
 ! D80   D(16,13,14,15)          0.1463         estimate D2E/DX2                !
 ! D81   D(10,18,24,25)        -59.609          estimate D2E/DX2                !
 ! D82   D(10,18,24,26)         59.2209         estimate D2E/DX2                !
 ! D83   D(10,18,24,27)        179.6858         estimate D2E/DX2                !
 ! D84   D(11,18,24,25)        120.2739         estimate D2E/DX2                !
 ! D85   D(11,18,24,26)       -120.8962         estimate D2E/DX2                !
 ! D86   D(11,18,24,27)         -0.4313         estimate D2E/DX2                !
 ! D87   D(1,19,28,29)         -58.1407         estimate D2E/DX2                !
 ! D88   D(1,19,28,30)          60.7668         estimate D2E/DX2                !
 ! D89   D(1,19,28,31)        -178.7139         estimate D2E/DX2                !
 ! D90   D(5,19,28,29)         121.8132         estimate D2E/DX2                !
 ! D91   D(5,19,28,30)        -119.2792         estimate D2E/DX2                !
 ! D92   D(5,19,28,31)           1.2401         estimate D2E/DX2                !
 ! D93   D(9,32,33,35)        -174.2487         estimate D2E/DX2                !
 ! D94   D(9,32,33,36)           6.3698         estimate D2E/DX2                !
 ! D95   D(34,32,33,35)         -0.2768         estimate D2E/DX2                !
 ! D96   D(34,32,33,36)       -179.6583         estimate D2E/DX2                !
 ! D97   D(9,32,34,37)         175.3627         estimate D2E/DX2                !
 ! D98   D(33,32,34,37)          0.5635         estimate D2E/DX2                !
 ! D99   D(32,33,35,37)         -0.2661         estimate D2E/DX2                !
 ! D100  D(32,33,35,38)        179.7059         estimate D2E/DX2                !
 ! D101  D(36,33,35,37)        179.1092         estimate D2E/DX2                !
 ! D102  D(36,33,35,38)         -0.9189         estimate D2E/DX2                !
 ! D103  D(32,34,37,35)         -0.6975         estimate D2E/DX2                !
 ! D104  D(32,34,37,39)        177.9575         estimate D2E/DX2                !
 ! D105  D(33,35,37,34)          0.6783         estimate D2E/DX2                !
 ! D106  D(33,35,37,39)       -177.896          estimate D2E/DX2                !
 ! D107  D(38,35,37,34)       -179.2959         estimate D2E/DX2                !
 ! D108  D(38,35,37,39)          2.1298         estimate D2E/DX2                !
 ! D109  D(33,35,38,40)          6.6008         estimate D2E/DX2                !
 ! D110  D(37,35,38,40)       -173.4284         estimate D2E/DX2                !
 ! D111  D(34,37,39,41)          2.8066         estimate D2E/DX2                !
 ! D112  D(34,37,39,42)       -177.1604         estimate D2E/DX2                !
 ! D113  D(35,37,39,41)       -178.7977         estimate D2E/DX2                !
 ! D114  D(35,37,39,42)          1.2353         estimate D2E/DX2                !
 ! D115  D(35,38,40,43)        175.4321         estimate D2E/DX2                !
 ! D116  D(35,38,40,44)        -65.827          estimate D2E/DX2                !
 ! D117  D(35,38,40,45)         56.2795         estimate D2E/DX2                !
 ! D118  D(37,39,41,46)       -179.986          estimate D2E/DX2                !
 ! D119  D(37,39,41,47)         -0.132          estimate D2E/DX2                !
 ! D120  D(42,39,41,46)         -0.0154         estimate D2E/DX2                !
 ! D121  D(42,39,41,47)        179.8387         estimate D2E/DX2                !
 ! D122  D(37,39,42,48)        179.9912         estimate D2E/DX2                !
 ! D123  D(41,39,42,48)          0.019          estimate D2E/DX2                !
 ! D124  D(39,41,46,48)          0.0019         estimate D2E/DX2                !
 ! D125  D(39,41,46,49)       -179.9991         estimate D2E/DX2                !
 ! D126  D(47,41,46,48)       -179.8397         estimate D2E/DX2                !
 ! D127  D(47,41,46,49)          0.1594         estimate D2E/DX2                !
 ! D128  D(39,41,47,50)        178.3364         estimate D2E/DX2                !
 ! D129  D(46,41,47,50)         -1.8294         estimate D2E/DX2                !
 ! D130  D(39,42,48,46)         -0.0187         estimate D2E/DX2                !
 ! D131  D(39,42,48,51)        179.9112         estimate D2E/DX2                !
 ! D132  D(41,46,48,42)          0.0132         estimate D2E/DX2                !
 ! D133  D(41,46,48,51)       -179.9103         estimate D2E/DX2                !
 ! D134  D(49,46,48,42)       -179.9859         estimate D2E/DX2                !
 ! D135  D(49,46,48,51)          0.0907         estimate D2E/DX2                !
 ! D136  D(41,47,50,52)         62.0334         estimate D2E/DX2                !
 ! D137  D(41,47,50,53)       -179.2157         estimate D2E/DX2                !
 ! D138  D(41,47,50,54)        -60.2323         estimate D2E/DX2                !
 --------------------------------------------------------------------------------
 Trust Radius=3.00D-01 FncErr=1.00D-07 GrdErr=1.00D-06 EigMax=2.50D+02 EigMin=1.00D-04
 Number of steps in this run=    307 maximum allowed number of steps=    324.
 GradGradGradGradGradGradGradGradGradGradGradGradGradGradGradGradGradGrad

 Stoichiometry    C26H18N2O6S2
 Framework group  C1[X(C26H18N2O6S2)]
 Deg. of freedom   156
 Full point group                 C1      NOp   1
 Largest Abelian subgroup         C1      NOp   1
 Largest concise Abelian subgroup C1      NOp   1
                         Standard orientation:                         
 ---------------------------------------------------------------------
 Center     Atomic      Atomic             Coordinates (Angstroms)
 Number     Number       Type             X           Y           Z
 ---------------------------------------------------------------------
      1          6           0       -2.970892   -2.811252    0.859068
      2          6           0       -2.473957   -1.443292    0.556000
      3          6           0       -3.352765   -0.453097    0.057840
      4          6           0       -4.716380   -0.751373   -0.157335
      5          6           0       -5.245876   -2.111155    0.129956
      6          6           0       -1.145639   -1.154242    0.741376
      7          6           0       -2.835981    0.846985   -0.209568
      8          6           0       -1.451578    1.145895   -0.002233
      9          6           0       -0.573284    0.123484    0.449864
     10          6           0       -1.023175    2.559123   -0.186792
     11          6           0       -3.314574    3.210328   -0.945655
     12          6           0       -3.752727    1.822983   -0.681918
     13          6           0       -5.089768    1.511196   -0.891500
     14          6           0       -5.579026    0.224962   -0.634171
     15          1           0       -6.620816   -0.027764   -0.791185
     16          1           0       -5.742137    2.297398   -1.255116
     17          1           0       -0.508052   -1.960387    1.084848
     18          7           0       -1.978138    3.485578   -0.649813
     19          7           0       -4.329337   -3.055209    0.623603
     20          8           0       -2.250378   -3.698921    1.293887
     21          8           0       -6.419194   -2.400832   -0.049590
     22          8           0       -4.069558    4.072033   -1.378821
     23          8           0        0.102087    2.980051    0.049681
     24          6           0       -1.498571    4.860877   -0.826522
     25          1           0       -1.129814    5.249765    0.123818
     26          1           0       -0.673847    4.878018   -1.543624
     27          1           0       -2.333175    5.454545   -1.189173
     28          6           0       -4.807604   -4.409624    0.922546
     29          1           0       -4.241844   -5.137261    0.336855
     30          1           0       -4.656908   -4.630028    1.980984
     31          1           0       -5.863743   -4.451202    0.670075
     32          6           0        0.875849    0.207323    0.627882
     33          6           0        1.641757    1.030290    1.431063
     34         16           0        1.917678   -0.760046   -0.415556
     35          6           0        3.027364    0.887312    1.222786
     36          1           0        1.212665    1.705722    2.152080
     37          6           0        3.373206   -0.058802    0.252355
     38          8           0        4.015884    1.567836    1.862856
     39          6           0        4.690673   -0.458954   -0.152950
     40          6           0        3.637095    2.417271    2.942953
     41          6           0        5.032112   -1.385625   -1.136669
     42         16           0        6.158333    0.193475    0.569330
     43          1           0        4.567064    2.797338    3.365318
     44          1           0        3.027207    3.257390    2.590347
     45          1           0        3.082906    1.861333    3.708533
     46          6           0        6.434533   -1.565602   -1.305016
     47          8           0        4.046311   -2.018551   -1.824865
     48          6           0        7.157483   -0.777342   -0.450944
     49          1           0        6.883670   -2.242098   -2.019782
     50          6           0        4.425933   -2.932058   -2.847351
     51          1           0        8.233854   -0.713832   -0.366784
     52          1           0        5.004079   -3.769798   -2.436876
     53          1           0        3.497247   -3.309704   -3.273898
     54          1           0        5.011297   -2.433476   -3.628915
 ---------------------------------------------------------------------
 Rotational constants (GHZ):           0.1546092           0.0567583           0.0463584
 Standard basis: 6-311+G(d,p) (5D, 7F)
 There are   952 symmetry adapted cartesian basis functions of A   symmetry.
 There are   916 symmetry adapted basis functions of A   symmetry.
   916 basis functions,  1468 primitive gaussians,   952 cartesian basis functions
   134 alpha electrons      134 beta electrons
       nuclear repulsion energy      4082.6402524611 Hartrees.
 NAtoms=   54 NActive=   54 NUniq=   54 SFac= 1.00D+00 NAtFMM=   60 NAOKFM=F Big=F
 Integral buffers will be    131072 words long.
 Raffenetti 2 integral format.
 Two-electron integral symmetry is turned on.
 ------------------------------------------------------------------------------
 Polarizable Continuum Model (PCM)
 =================================
 Model                : PCM.
 Atomic radii         : UFF (Universal Force Field).
 Polarization charges : Total charges.
 Charge compensation  : None.
 Solution method      : On-the-fly selection.
 Cavity type          : Scaled VdW (van der Waals Surface) (Alpha=1.100).
 Cavity algorithm     : GePol (No added spheres)
                        Default sphere list used, NSphG=   54.
                        Lebedev-Laikov grids with approx.  5.0 points / Ang**2.
                        Smoothing algorithm: York/Karplus (Gamma=1.0000).
                        Polarization charges: spherical gaussians, with
                                              point-specific exponents (IZeta= 3).
                        Self-potential: point-specific (ISelfS= 7).
                        Self-field    : sphere-specific E.n sum rule (ISelfD= 2).
 1st derivatives      : Analytical E(r).r(x)/FMM algorithm (CHGder, D1EAlg=3).
                        Cavity 1st derivative terms included.
 Solvent              : Water, Eps=  78.355300 Eps(inf)=   1.777849
 ------------------------------------------------------------------------------
 One-electron integrals computed using PRISM.
 NBasis=   916 RedAO= T EigKep=  1.52D-06  NBF=   916
 NBsUse=   901 1.00D-06 EigRej=  9.17D-07 NBFU=   901
 ExpMin= 4.05D-02 ExpMax= 9.34D+04 ExpMxC= 3.17D+03 IAcc=3 IRadAn=         5 AccDes= 0.00D+00
 Harris functional with IExCor=  402 and IRadAn=       5 diagonalized for initial guess.
 HarFok:  IExCor=  402 AccDes= 0.00D+00 IRadAn=         5 IDoV= 1 UseB2=F ITyADJ=14
 ICtDFT=  3500011 ScaDFX=  1.000000  1.000000  1.000000  1.000000
 FoFCou: FMM=F IPFlag=           0 FMFlag=      100000 FMFlg1=           0
         NFxFlg=           0 DoJE=T BraDBF=F KetDBF=T FulRan=T
         wScrn=  0.000000 ICntrl=       500 IOpCl=  0 I1Cent=   200000004 NGrid=           0
         NMat0=    1 NMatS0=      1 NMatT0=    0 NMatD0=    1 NMtDS0=    0 NMtDT0=    0
 Petite list used in FoFCou.
 Requested convergence on RMS density matrix=1.00D-08 within 128 cycles.
 Requested convergence on MAX density matrix=1.00D-06.
 Requested convergence on             energy=1.00D-06.
 No special actions if energy rises.
 Inv3:  Mode=1 IEnd=    53197563.
 Iteration    1 A*A^-1 deviation from unit magnitude is 6.66D-15 for   4194.
 Iteration    1 A*A^-1 deviation from orthogonality  is 3.55D-15 for   2880   2033.
 Iteration    1 A^-1*A deviation from unit magnitude is 6.88D-15 for   4194.
 Iteration    1 A^-1*A deviation from orthogonality  is 2.22D-15 for   3215   1660.
 Error on total polarization charges =  0.02313
 SCF Done:  E(RB3LYP) =  -2359.35301022     A.U. after   17 cycles
            NFock= 17  Conv=0.36D-08     -V/T= 2.0032

 **********************************************************************

            Population analysis using the SCF Density.

 **********************************************************************

 Orbital symmetries:
       Occupied  (A) (A) (A) (A) (A) (A) (A) (A) (A) (A) (A) (A)
                 (A) (A) (A) (A) (A) (A) (A) (A) (A) (A) (A) (A)
                 (A) (A) (A) (A) (A) (A) (A) (A) (A) (A) (A) (A)
                 (A) (A) (A) (A) (A) (A) (A) (A) (A) (A) (A) (A)
                 (A) (A) (A) (A) (A) (A) (A) (A) (A) (A) (A) (A)
                 (A) (A) (A) (A) (A) (A) (A) (A) (A) (A) (A) (A)
                 (A) (A) (A) (A) (A) (A) (A) (A) (A) (A) (A) (A)
                 (A) (A) (A) (A) (A) (A) (A) (A) (A) (A) (A) (A)
                 (A) (A) (A) (A) (A) (A) (A) (A) (A) (A) (A) (A)
                 (A) (A) (A) (A) (A) (A) (A) (A) (A) (A) (A) (A)
                 (A) (A) (A) (A) (A) (A) (A) (A) (A) (A) (A) (A)
                 (A) (A)
       Virtual   (A) (A) (A) (A) (A) (A) (A) (A) (A) (A) (A) (A)
                 (A) (A) (A) (A) (A) (A) (A) (A) (A) (A) (A) (A)
                 (A) (A) (A) (A) (A) (A) (A) (A) (A) (A) (A) (A)
                 (A) (A) (A) (A) (A) (A) (A) (A) (A) (A) (A) (A)
                 (A) (A) (A) (A) (A) (A) (A) (A) (A) (A) (A) (A)
                 (A) (A) (A) (A) (A) (A) (A) (A) (A) (A) (A) (A)
                 (A) (A) (A) (A) (A) (A) (A) (A) (A) (A) (A) (A)
                 (A) (A) (A) (A) (A) (A) (A) (A) (A) (A) (A) (A)
                 (A) (A) (A) (A) (A) (A) (A) (A) (A) (A) (A) (A)
                 (A) (A) (A) (A) (A) (A) (A) (A) (A) (A) (A) (A)
                 (A) (A) (A) (A) (A) (A) (A) (A) (A) (A) (A) (A)
                 (A) (A) (A) (A) (A) (A) (A) (A) (A) (A) (A) (A)
                 (A) (A) (A) (A) (A) (A) (A) (A) (A) (A) (A) (A)
                 (A) (A) (A) (A) (A) (A) (A) (A) (A) (A) (A) (A)
                 (A) (A) (A) (A) (A) (A) (A) (A) (A) (A) (A) (A)
                 (A) (A) (A) (A) (A) (A) (A) (A) (A) (A) (A) (A)
                 (A) (A) (A) (A) (A) (A) (A) (A) (A) (A) (A) (A)
                 (A) (A) (A) (A) (A) (A) (A) (A) (A) (A) (A) (A)
                 (A) (A) (A) (A) (A) (A) (A) (A) (A) (A) (A) (A)
                 (A) (A) (A) (A) (A) (A) (A) (A) (A) (A) (A) (A)
                 (A) (A) (A) (A) (A) (A) (A) (A) (A) (A) (A) (A)
                 (A) (A) (A) (A) (A) (A) (A) (A) (A) (A) (A) (A)
                 (A) (A) (A) (A) (A) (A) (A) (A) (A) (A) (A) (A)
                 (A) (A) (A) (A) (A) (A) (A) (A) (A) (A) (A) (A)
                 (A) (A) (A) (A) (A) (A) (A) (A) (A) (A) (A) (A)
                 (A) (A) (A) (A) (A) (A) (A) (A) (A) (A) (A) (A)
                 (A) (A) (A) (A) (A) (A) (A) (A) (A) (A) (A) (A)
                 (A) (A) (A) (A) (A) (A) (A) (A) (A) (A) (A) (A)
                 (A) (A) (A) (A) (A) (A) (A) (A) (A) (A) (A) (A)
                 (A) (A) (A) (A) (A) (A) (A) (A) (A) (A) (A) (A)
                 (A) (A) (A) (A) (A) (A) (A) (A) (A) (A) (A) (A)
                 (A) (A) (A) (A) (A) (A) (A) (A) (A) (A) (A) (A)
                 (A) (A) (A) (A) (A) (A) (A) (A) (A) (A) (A) (A)
                 (A) (A) (A) (A) (A) (A) (A) (A) (A) (A) (A) (A)
                 (A) (A) (A) (A) (A) (A) (A) (A) (A) (A) (A) (A)
                 (A) (A) (A) (A) (A) (A) (A) (A) (A) (A) (A) (A)
                 (A) (A) (A) (A) (A) (A) (A) (A) (A) (A) (A) (A)
                 (A) (A) (A) (A) (A) (A) (A) (A) (A) (A) (A) (A)
                 (A) (A) (A) (A) (A) (A) (A) (A) (A) (A) (A) (A)
                 (A) (A) (A) (A) (A) (A) (A) (A) (A) (A) (A) (A)
                 (A) (A) (A) (A) (A) (A) (A) (A) (A) (A) (A) (A)
                 (A) (A) (A) (A) (A) (A) (A) (A) (A) (A) (A) (A)
                 (A) (A) (A) (A) (A) (A) (A) (A) (A) (A) (A) (A)
                 (A) (A) (A) (A) (A) (A) (A) (A) (A) (A) (A) (A)
                 (A) (A) (A) (A) (A) (A) (A) (A) (A) (A) (A) (A)
                 (A) (A) (A) (A) (A) (A) (A) (A) (A) (A) (A) (A)
                 (A) (A) (A) (A) (A) (A) (A) (A) (A) (A) (A) (A)
                 (A) (A) (A) (A) (A) (A) (A) (A) (A) (A) (A) (A)
                 (A) (A) (A) (A) (A) (A) (A) (A) (A) (A) (A) (A)
                 (A) (A) (A) (A) (A) (A) (A) (A) (A) (A) (A) (A)
                 (A) (A) (A) (A) (A) (A) (A) (A) (A) (A) (A) (A)
                 (A) (A) (A) (A) (A) (A) (A) (A) (A) (A) (A) (A)
                 (A) (A) (A) (A) (A) (A) (A) (A) (A) (A) (A) (A)
                 (A) (A) (A) (A) (A) (A) (A) (A) (A) (A) (A) (A)
                 (A) (A) (A) (A) (A) (A) (A) (A) (A) (A) (A) (A)
                 (A) (A) (A) (A) (A) (A) (A) (A) (A) (A) (A) (A)
                 (A) (A) (A) (A) (A) (A) (A) (A) (A) (A) (A) (A)
                 (A) (A) (A) (A) (A) (A) (A) (A) (A) (A) (A) (A)
                 (A) (A) (A) (A) (A) (A) (A) (A) (A) (A) (A) (A)
                 (A) (A) (A) (A) (A) (A) (A) (A) (A) (A) (A) (A)
                 (A) (A) (A) (A) (A) (A) (A) (A) (A) (A) (A) (A)
                 (A) (A) (A) (A) (A) (A) (A) (A) (A) (A) (A) (A)
                 (A) (A) (A) (A) (A) (A) (A) (A) (A) (A) (A) (A)
                 (A) (A) (A) (A) (A) (A) (A) (A) (A) (A) (A)
 The electronic state is 1-A.
 Alpha  occ. eigenvalues --  -88.88728 -88.88433 -19.16895 -19.16728 -19.13126
 Alpha  occ. eigenvalues --  -19.13123 -19.12644 -19.12449 -14.39001 -14.38580
 Alpha  occ. eigenvalues --  -10.31703 -10.31548 -10.31351 -10.31148 -10.24632
 Alpha  occ. eigenvalues --  -10.24480 -10.24160 -10.23477 -10.23229 -10.22844
 Alpha  occ. eigenvalues --  -10.22753 -10.22700 -10.22535 -10.22496 -10.22393
 Alpha  occ. eigenvalues --  -10.22133 -10.22030 -10.21721 -10.21594 -10.21389
 Alpha  occ. eigenvalues --  -10.21328 -10.20954 -10.20702 -10.20688 -10.18874
 Alpha  occ. eigenvalues --  -10.18683  -7.97263  -7.96991  -5.93582  -5.93299
 Alpha  occ. eigenvalues --   -5.93196  -5.92913  -5.92814  -5.92561  -1.09040
 Alpha  occ. eigenvalues --   -1.08639  -1.08450  -1.08250  -1.07274  -1.06770
 Alpha  occ. eigenvalues --   -0.96589  -0.96064  -0.92490  -0.90279  -0.88669
 Alpha  occ. eigenvalues --   -0.86711  -0.84428  -0.80498  -0.78661  -0.77592
 Alpha  occ. eigenvalues --   -0.76146  -0.75319  -0.75065  -0.73091  -0.72465
 Alpha  occ. eigenvalues --   -0.71933  -0.69941  -0.68778  -0.67446  -0.65982
 Alpha  occ. eigenvalues --   -0.65595  -0.64915  -0.61141  -0.59742  -0.58706
 Alpha  occ. eigenvalues --   -0.57551  -0.56649  -0.55873  -0.55434  -0.54505
 Alpha  occ. eigenvalues --   -0.53624  -0.51907  -0.50313  -0.50162  -0.49875
 Alpha  occ. eigenvalues --   -0.49577  -0.49235  -0.48634  -0.48170  -0.47912
 Alpha  occ. eigenvalues --   -0.47781  -0.47488  -0.47009  -0.46732  -0.45867
 Alpha  occ. eigenvalues --   -0.45584  -0.45149  -0.45034  -0.44306  -0.43838
 Alpha  occ. eigenvalues --   -0.42856  -0.42635  -0.42292  -0.42095  -0.41757
 Alpha  occ. eigenvalues --   -0.41447  -0.41326  -0.41230  -0.40648  -0.39972
 Alpha  occ. eigenvalues --   -0.39592  -0.39085  -0.38740  -0.37728  -0.37604
 Alpha  occ. eigenvalues --   -0.36206  -0.35547  -0.34246  -0.33813  -0.33682
 Alpha  occ. eigenvalues --   -0.33361  -0.32313  -0.31713  -0.30886  -0.30038
 Alpha  occ. eigenvalues --   -0.29761  -0.29401  -0.29234  -0.28553  -0.27607
 Alpha  occ. eigenvalues --   -0.26390  -0.24878  -0.24779  -0.19418
 Alpha virt. eigenvalues --   -0.13570  -0.07277  -0.06518  -0.05070  -0.04859
 Alpha virt. eigenvalues --   -0.00643  -0.00585   0.00067   0.00465   0.00548
 Alpha virt. eigenvalues --    0.00629   0.00856   0.01066   0.01379   0.02194
 Alpha virt. eigenvalues --    0.02328   0.02588   0.02857   0.02923   0.03265
 Alpha virt. eigenvalues --    0.03641   0.03839   0.03954   0.04153   0.04624
 Alpha virt. eigenvalues --    0.04887   0.04921   0.04990   0.05628   0.05930
 Alpha virt. eigenvalues --    0.06084   0.06301   0.06378   0.06534   0.06727
 Alpha virt. eigenvalues --    0.07453   0.07519   0.07745   0.08079   0.08282
 Alpha virt. eigenvalues --    0.08423   0.08705   0.09129   0.09157   0.09350
 Alpha virt. eigenvalues --    0.09580   0.09848   0.10038   0.10209   0.10522
 Alpha virt. eigenvalues --    0.10774   0.11244   0.11519   0.11900   0.12199
 Alpha virt. eigenvalues --    0.12242   0.12474   0.12690   0.12955   0.13505
 Alpha virt. eigenvalues --    0.13706   0.13802   0.14169   0.14280   0.14398
 Alpha virt. eigenvalues --    0.14546   0.14736   0.14789   0.15120   0.15277
 Alpha virt. eigenvalues --    0.15526   0.15731   0.15972   0.16091   0.16286
 Alpha virt. eigenvalues --    0.16307   0.16861   0.17186   0.17471   0.17661
 Alpha virt. eigenvalues --    0.17819   0.17872   0.18244   0.18303   0.18702
 Alpha virt. eigenvalues --    0.18832   0.18954   0.19387   0.19644   0.19704
 Alpha virt. eigenvalues --    0.19835   0.20027   0.20137   0.20288   0.20434
 Alpha virt. eigenvalues --    0.20499   0.20749   0.20976   0.21075   0.21229
 Alpha virt. eigenvalues --    0.21568   0.21774   0.21887   0.22013   0.22397
 Alpha virt. eigenvalues --    0.22455   0.22609   0.23049   0.23250   0.23350
 Alpha virt. eigenvalues --    0.23621   0.23718   0.23798   0.23999   0.24313
 Alpha virt. eigenvalues --    0.24586   0.24732   0.24872   0.25003   0.25400
 Alpha virt. eigenvalues --    0.25424   0.25692   0.26017   0.26161   0.26295
 Alpha virt. eigenvalues --    0.26478   0.26578   0.26729   0.26837   0.27207
 Alpha virt. eigenvalues --    0.27534   0.27875   0.27976   0.28082   0.28320
 Alpha virt. eigenvalues --    0.28405   0.28534   0.28791   0.28957   0.29066
 Alpha virt. eigenvalues --    0.29359   0.29483   0.29723   0.29854   0.30377
 Alpha virt. eigenvalues --    0.30697   0.30806   0.30947   0.31148   0.31312
 Alpha virt. eigenvalues --    0.31766   0.31792   0.31986   0.32165   0.32625
 Alpha virt. eigenvalues --    0.32830   0.33134   0.33287   0.33813   0.34067
 Alpha virt. eigenvalues --    0.34635   0.34980   0.35025   0.35515   0.35584
 Alpha virt. eigenvalues --    0.35918   0.36334   0.36813   0.37131   0.37509
 Alpha virt. eigenvalues --    0.37837   0.37958   0.38634   0.38801   0.39305
 Alpha virt. eigenvalues --    0.39532   0.39776   0.40580   0.41124   0.41277
 Alpha virt. eigenvalues --    0.41663   0.42084   0.42414   0.42994   0.43543
 Alpha virt. eigenvalues --    0.43674   0.44044   0.44566   0.44824   0.45280
 Alpha virt. eigenvalues --    0.45436   0.45648   0.46160   0.46360   0.46419
 Alpha virt. eigenvalues --    0.46754   0.47220   0.47742   0.48757   0.49361
 Alpha virt. eigenvalues --    0.49885   0.50042   0.50248   0.50641   0.51300
 Alpha virt. eigenvalues --    0.51799   0.52187   0.52633   0.53338   0.54063
 Alpha virt. eigenvalues --    0.54422   0.54707   0.55075   0.55409   0.55537
 Alpha virt. eigenvalues --    0.56205   0.56396   0.56939   0.56982   0.57152
 Alpha virt. eigenvalues --    0.57796   0.58446   0.58734   0.59168   0.59429
 Alpha virt. eigenvalues --    0.59551   0.60269   0.60627   0.61189   0.61387
 Alpha virt. eigenvalues --    0.61669   0.61848   0.62861   0.63235   0.63574
 Alpha virt. eigenvalues --    0.63890   0.64309   0.64472   0.64939   0.65088
 Alpha virt. eigenvalues --    0.65178   0.65634   0.65929   0.66593   0.66747
 Alpha virt. eigenvalues --    0.67024   0.67267   0.67705   0.68172   0.68730
 Alpha virt. eigenvalues --    0.69315   0.69400   0.69760   0.70221   0.70571
 Alpha virt. eigenvalues --    0.71061   0.71465   0.71799   0.72282   0.72432
 Alpha virt. eigenvalues --    0.72897   0.73323   0.73374   0.73802   0.74248
 Alpha virt. eigenvalues --    0.74349   0.74560   0.74974   0.75239   0.75606
 Alpha virt. eigenvalues --    0.75786   0.76199   0.76492   0.76867   0.76999
 Alpha virt. eigenvalues --    0.77432   0.77833   0.78172   0.78899   0.79277
 Alpha virt. eigenvalues --    0.79563   0.80139   0.81253   0.81355   0.82147
 Alpha virt. eigenvalues --    0.82957   0.83506   0.83997   0.84638   0.85866
 Alpha virt. eigenvalues --    0.86623   0.87059   0.87221   0.87825   0.88426
 Alpha virt. eigenvalues --    0.88648   0.88877   0.89162   0.89942   0.91005
 Alpha virt. eigenvalues --    0.91334   0.91397   0.91961   0.92320   0.92942
 Alpha virt. eigenvalues --    0.93469   0.93652   0.93894   0.94481   0.94842
 Alpha virt. eigenvalues --    0.94992   0.95715   0.96317   0.97048   0.97384
 Alpha virt. eigenvalues --    0.97556   0.98847   0.99140   0.99258   1.00117
 Alpha virt. eigenvalues --    1.00591   1.01206   1.01728   1.01884   1.02269
 Alpha virt. eigenvalues --    1.02937   1.03241   1.03595   1.04082   1.04476
 Alpha virt. eigenvalues --    1.04945   1.04987   1.05271   1.05745   1.06129
 Alpha virt. eigenvalues --    1.06651   1.07024   1.07557   1.07945   1.07977
 Alpha virt. eigenvalues --    1.08563   1.08804   1.09834   1.10412   1.10720
 Alpha virt. eigenvalues --    1.11225   1.11563   1.12512   1.13570   1.14154
 Alpha virt. eigenvalues --    1.14667   1.16451   1.16558   1.16941   1.17463
 Alpha virt. eigenvalues --    1.17672   1.18266   1.18762   1.19797   1.20998
 Alpha virt. eigenvalues --    1.21273   1.21597   1.23047   1.24230   1.25077
 Alpha virt. eigenvalues --    1.25448   1.25717   1.26026   1.26476   1.27207
 Alpha virt. eigenvalues --    1.27960   1.28270   1.29216   1.29832   1.31113
 Alpha virt. eigenvalues --    1.31442   1.32675   1.33473   1.33607   1.35388
 Alpha virt. eigenvalues --    1.35622   1.36108   1.36626   1.38182   1.39739
 Alpha virt. eigenvalues --    1.40480   1.41055   1.41856   1.42760   1.42992
 Alpha virt. eigenvalues --    1.43157   1.43584   1.43688   1.43977   1.44373
 Alpha virt. eigenvalues --    1.44472   1.44902   1.45058   1.45587   1.45660
 Alpha virt. eigenvalues --    1.46636   1.47162   1.47461   1.47812   1.49323
 Alpha virt. eigenvalues --    1.50315   1.50937   1.51595   1.51996   1.52077
 Alpha virt. eigenvalues --    1.53177   1.54050   1.54575   1.54833   1.55302
 Alpha virt. eigenvalues --    1.55558   1.56005   1.56269   1.56560   1.56969
 Alpha virt. eigenvalues --    1.57338   1.58866   1.60162   1.61061   1.62015
 Alpha virt. eigenvalues --    1.62384   1.62622   1.63445   1.63689   1.64854
 Alpha virt. eigenvalues --    1.65297   1.66008   1.66825   1.67196   1.67574
 Alpha virt. eigenvalues --    1.67677   1.68840   1.69186   1.69615   1.69817
 Alpha virt. eigenvalues --    1.70463   1.70527   1.70936   1.71148   1.71435
 Alpha virt. eigenvalues --    1.73467   1.74137   1.74255   1.75084   1.75802
 Alpha virt. eigenvalues --    1.76072   1.76756   1.77068   1.77966   1.78612
 Alpha virt. eigenvalues --    1.79720   1.79873   1.80085   1.80425   1.82598
 Alpha virt. eigenvalues --    1.83301   1.83822   1.84298   1.85982   1.86288
 Alpha virt. eigenvalues --    1.86400   1.86868   1.87759   1.88083   1.88591
 Alpha virt. eigenvalues --    1.89310   1.89789   1.90242   1.90504   1.91488
 Alpha virt. eigenvalues --    1.91845   1.92539   1.94062   1.94302   1.95116
 Alpha virt. eigenvalues --    1.95538   1.96361   1.97241   1.97802   1.99053
 Alpha virt. eigenvalues --    1.99521   2.00204   2.01087   2.01685   2.02079
 Alpha virt. eigenvalues --    2.02881   2.03599   2.04040   2.04244   2.04454
 Alpha virt. eigenvalues --    2.05812   2.06239   2.06311   2.06987   2.07438
 Alpha virt. eigenvalues --    2.08952   2.09050   2.09813   2.10882   2.11643
 Alpha virt. eigenvalues --    2.12713   2.12937   2.13836   2.14474   2.15228
 Alpha virt. eigenvalues --    2.15603   2.16539   2.16855   2.18373   2.18868
 Alpha virt. eigenvalues --    2.19394   2.20050   2.21218   2.21563   2.22133
 Alpha virt. eigenvalues --    2.22657   2.25832   2.26210   2.27546   2.28288
 Alpha virt. eigenvalues --    2.31163   2.31920   2.32556   2.34384   2.36856
 Alpha virt. eigenvalues --    2.37567   2.38733   2.39115   2.41616   2.43492
 Alpha virt. eigenvalues --    2.43732   2.43994   2.44545   2.45318   2.46345
 Alpha virt. eigenvalues --    2.47136   2.47316   2.48407   2.49071   2.49539
 Alpha virt. eigenvalues --    2.50228   2.51885   2.52229   2.52654   2.53082
 Alpha virt. eigenvalues --    2.53224   2.53538   2.54298   2.54981   2.55529
 Alpha virt. eigenvalues --    2.56263   2.58106   2.58607   2.58982   2.59725
 Alpha virt. eigenvalues --    2.62567   2.63314   2.63637   2.64912   2.66137
 Alpha virt. eigenvalues --    2.67046   2.67515   2.67935   2.68380   2.68467
 Alpha virt. eigenvalues --    2.68895   2.69489   2.70015   2.70452   2.71000
 Alpha virt. eigenvalues --    2.71811   2.72594   2.72810   2.74732   2.75288
 Alpha virt. eigenvalues --    2.76163   2.76904   2.78201   2.79094   2.79806
 Alpha virt. eigenvalues --    2.82066   2.82807   2.83445   2.83788   2.84298
 Alpha virt. eigenvalues --    2.84391   2.84877   2.84990   2.85519   2.86326
 Alpha virt. eigenvalues --    2.87865   2.88229   2.88295   2.89683   2.90530
 Alpha virt. eigenvalues --    2.91119   2.91704   2.92966   2.93376   2.94106
 Alpha virt. eigenvalues --    2.94642   2.95978   2.96709   2.99554   2.99755
 Alpha virt. eigenvalues --    3.00669   3.01865   3.03587   3.04178   3.04992
 Alpha virt. eigenvalues --    3.06019   3.06973   3.08586   3.09081   3.11051
 Alpha virt. eigenvalues --    3.11092   3.13022   3.13705   3.14352   3.15039
 Alpha virt. eigenvalues --    3.16452   3.17095   3.19217   3.19471   3.21394
 Alpha virt. eigenvalues --    3.23264   3.23795   3.23956   3.24090   3.26297
 Alpha virt. eigenvalues --    3.28484   3.28818   3.30865   3.32052   3.33066
 Alpha virt. eigenvalues --    3.33564   3.33805   3.34506   3.35542   3.36899
 Alpha virt. eigenvalues --    3.37461   3.39289   3.41156   3.41771   3.43140
 Alpha virt. eigenvalues --    3.43989   3.45266   3.46035   3.48217   3.48894
 Alpha virt. eigenvalues --    3.50023   3.53338   3.55670   3.57214   3.59026
 Alpha virt. eigenvalues --    3.59692   3.61190   3.64562   3.65692   3.66302
 Alpha virt. eigenvalues --    3.69533   3.70105   3.72209   3.72762   3.75713
 Alpha virt. eigenvalues --    3.77060   3.77287   3.81122   3.82913   3.84935
 Alpha virt. eigenvalues --    3.85259   3.86094   3.89660   3.91657   3.92323
 Alpha virt. eigenvalues --    3.93031   3.93871   3.96410   4.00908   4.02663
 Alpha virt. eigenvalues --    4.04327   4.08391   4.10688   4.12356   4.14064
 Alpha virt. eigenvalues --    4.18793   4.23077   4.24859   4.26989   4.34708
 Alpha virt. eigenvalues --    4.38094   4.39634   4.51221   4.66892   4.83862
 Alpha virt. eigenvalues --    4.85592   4.87029   4.90121   5.01469   5.02896
 Alpha virt. eigenvalues --    5.03195   5.04451   5.04779   5.08112   5.10774
 Alpha virt. eigenvalues --    5.12518   5.24048   5.25945   5.28147   5.30985
 Alpha virt. eigenvalues --    5.42391   5.43345   5.74652   5.76709   5.79145
 Alpha virt. eigenvalues --    5.80349   5.80968   5.84443   8.02030   8.03888
 Alpha virt. eigenvalues --   17.28921  17.32751  17.49209  17.52204  17.56772
 Alpha virt. eigenvalues --   17.61926  23.48923  23.56419  23.72076  23.78834
 Alpha virt. eigenvalues --   23.81705  23.82339  23.83309  23.86024  23.86130
 Alpha virt. eigenvalues --   23.87640  23.89153  23.91081  23.92030  23.92766
 Alpha virt. eigenvalues --   23.94568  23.95192  23.95947  23.97643  23.99996
 Alpha virt. eigenvalues --   24.01687  24.02497  24.04500  24.12059  24.12879
 Alpha virt. eigenvalues --   24.13656  24.14543  35.55585  35.58433  49.96124
 Alpha virt. eigenvalues --   49.97505  50.01168  50.02942  50.04858  50.06475
 Alpha virt. eigenvalues --  189.19242 189.21793
          Condensed to atoms (all electrons):
 Mulliken charges:
               1
     1  C    0.455075
     2  C   -0.102599
     3  C    0.185113
     4  C    0.230523
     5  C    0.327094
     6  C   -0.872658
     7  C    0.156923
     8  C    0.170693
     9  C    0.802742
    10  C   -0.421722
    11  C    0.260406
    12  C    0.204160
    13  C   -0.513232
    14  C   -0.588508
    15  H    0.167993
    16  H    0.168816
    17  H    0.169917
    18  N   -0.121167
    19  N   -0.101248
    20  O   -0.342073
    21  O   -0.333018
    22  O   -0.342379
    23  O   -0.219781
    24  C   -0.222125
    25  H    0.183805
    26  H    0.183041
    27  H    0.179921
    28  C   -0.212594
    29  H    0.182563
    30  H    0.184192
    31  H    0.179948
    32  C   -0.110348
    33  C   -0.301736
    34  S   -0.400026
    35  C   -0.048057
    36  H    0.158480
    37  C    0.581265
    38  O   -0.157164
    39  C    0.684295
    40  C   -0.248496
    41  C    0.056128
    42  S   -0.230193
    43  H    0.175308
    44  H    0.164159
    45  H    0.162852
    46  C   -0.589538
    47  O   -0.160806
    48  C   -0.326106
    49  H    0.161728
    50  C   -0.253523
    51  H    0.188944
    52  H    0.159881
    53  H    0.173174
    54  H    0.159956
 Sum of Mulliken charges =  -0.00000
 Mulliken charges with hydrogens summed into heavy atoms:
               1
     1  C    0.455075
     2  C   -0.102599
     3  C    0.185113
     4  C    0.230523
     5  C    0.327094
     6  C   -0.702741
     7  C    0.156923
     8  C    0.170693
     9  C    0.802742
    10  C   -0.421722
    11  C    0.260406
    12  C    0.204160
    13  C   -0.344416
    14  C   -0.420515
    18  N   -0.121167
    19  N   -0.101248
    20  O   -0.342073
    21  O   -0.333018
    22  O   -0.342379
    23  O   -0.219781
    24  C    0.324642
    28  C    0.334108
    32  C   -0.110348
    33  C   -0.143256
    34  S   -0.400026
    35  C   -0.048057
    37  C    0.581265
    38  O   -0.157164
    39  C    0.684295
    40  C    0.253824
    41  C    0.056128
    42  S   -0.230193
    46  C   -0.427810
    47  O   -0.160806
    48  C   -0.137162
    50  C    0.239487
 Electronic spatial extent (au):  <R**2>=          22286.5930
 Charge=             -0.0000 electrons
 Dipole moment (field-independent basis, Debye):
    X=              2.4297    Y=             -0.6850    Z=              0.0674  Tot=              2.5254
 Quadrupole moment (field-independent basis, Debye-Ang):
   XX=           -217.6076   YY=           -222.7872   ZZ=           -207.0186
   XY=             -5.7704   XZ=            -12.2941   YZ=             22.5047
 Traceless Quadrupole moment (field-independent basis, Debye-Ang):
   XX=             -1.8031   YY=             -6.9827   ZZ=              8.7859
   XY=             -5.7704   XZ=            -12.2941   YZ=             22.5047
 Octapole moment (field-independent basis, Debye-Ang**2):
  XXX=            356.1440  YYY=            -25.0805  ZZZ=              6.2625  XYY=             89.9542
  XXY=            -79.7938  XXZ=            -30.0918  XZZ=             64.4180  YZZ=             -4.1094
  YYZ=             -3.4309  XYZ=             57.4582
 Hexadecapole moment (field-independent basis, Debye-Ang**3):
 XXXX=         -20849.2067 YYYY=          -6794.5003 ZZZZ=          -1754.1631 XXXY=           -647.6752
 XXXZ=           -487.6287 YYYX=            368.3735 YYYZ=            267.0819 ZZZX=            -49.5388
 ZZZY=            186.4356 XXYY=          -4803.7055 XXZZ=          -3655.6268 YYZZ=          -1367.4023
 XXYZ=            371.4523 YYXZ=           -232.0700 ZZXY=             23.9612
 N-N= 4.082640252461D+03 E-N=-1.370534080678D+04  KE= 2.351799006707D+03
 D1PCM: PCM CHGder 1st derivatives, ID1Alg=3 FixD1E=F DoIter=F DoCFld=F I1PDM=0.
 Calling FoFJK, ICntrl=      2127 FMM=F ISym2X=0 I1Cent= 0 IOpClX= 0 NMat=1 NMatS=1 NMatT=0.
 ***** Axes restored to original set *****
 -------------------------------------------------------------------
 Center     Atomic                   Forces (Hartrees/Bohr)
 Number     Number              X              Y              Z
 -------------------------------------------------------------------
      1        6          -0.001861227   -0.000932173    0.000940414
      2        6          -0.002702365    0.000813515   -0.000529965
      3        6           0.003460191   -0.001337966   -0.000396247
      4        6          -0.002205044    0.001735343    0.000583008
      5        6           0.001654784   -0.000625527   -0.000082709
      6        6           0.002484455    0.004487359   -0.008294151
      7        6          -0.000405648   -0.001000925    0.001504017
      8        6           0.003502570   -0.007717591    0.006247827
      9        6          -0.015828240   -0.006629786    0.001929152
     10        6           0.004604994    0.006644975   -0.000132261
     11        6           0.003120601    0.001355074   -0.000161794
     12        6          -0.001871706   -0.000775733    0.000175417
     13        6           0.001724193    0.001589623   -0.000109143
     14        6           0.002496027   -0.002502143   -0.000367906
     15        1           0.000620590    0.001750818    0.000181041
     16        1           0.000181845   -0.002143492   -0.000443459
     17        1           0.001562490    0.002291271    0.002130379
     18        7          -0.002416461   -0.001775282   -0.001909501
     19        7           0.000963569    0.002238646    0.000040350
     20        8          -0.003177490    0.003167071    0.000373122
     21        8           0.003121327    0.000501917    0.000030809
     22        8           0.002759195   -0.002586642   -0.000145096
     23        8          -0.006003239   -0.005432399   -0.002656048
     24        6           0.001660515    0.002697463   -0.000719808
     25        1          -0.001388116    0.000055330   -0.000078029
     26        1          -0.001969114   -0.000447314    0.000944872
     27        1           0.002019921    0.000372550    0.000233162
     28        6           0.000026307   -0.002573149   -0.000738269
     29        1          -0.001515872    0.000642784    0.000715020
     30        1          -0.001245050    0.000601291   -0.000165164
     31        1           0.001749870   -0.001101610   -0.000167013
     32        6           0.014468708    0.014299000    0.000699589
     33        6          -0.008334190   -0.004911705   -0.002959786
     34       16          -0.005621373   -0.002797656    0.003259042
     35        6           0.003955627   -0.003730210   -0.007508959
     36        1          -0.001518749    0.001637766    0.000273592
     37        6          -0.000544511    0.001848333    0.008142366
     38        8          -0.000572200   -0.002030758   -0.001186890
     39        6           0.001017057   -0.000338013   -0.005070023
     40        6          -0.000496707    0.001741614    0.005306045
     41        6           0.000499596    0.001146274    0.003655239
     42       16          -0.000030624    0.000252789   -0.000723070
     43        1          -0.001079446   -0.000416450   -0.000027122
     44        1           0.001157241   -0.000970263   -0.000538382
     45        1           0.001259842    0.001189955   -0.001042909
     46        6           0.000499301    0.000203130    0.000667099
     47        8           0.000167380    0.001651670    0.003750213
     48        6           0.001383447   -0.000666546   -0.002642802
     49        1          -0.000046871    0.000421189    0.001138839
     50        6           0.001783936   -0.002666402   -0.006776519
     51        1          -0.001410428   -0.000208828    0.000609369
     52        1          -0.001620587    0.001569191    0.000559486
     53        1           0.000792556    0.000364369    0.000223823
     54        1          -0.000832878   -0.000951748    0.001259733
 -------------------------------------------------------------------
 Cartesian Forces:  Max     0.015828240 RMS     0.003288607

 GradGradGradGradGradGradGradGradGradGradGradGradGradGradGradGradGradGrad
 Berny optimization.
 FormGI is forming the generalized inverse of G from B-inverse, IUseBI=4.
 Internal  Forces:  Max     0.010233371 RMS     0.001770779
 Search for a local minimum.
 Step number   1 out of a maximum of  307
 All quantities printed in internal units (Hartrees-Bohrs-Radians)
 Mixed Optimization -- RFO/linear search
 Second derivative matrix not updated -- first step.
 ITU=  0
     Eigenvalues ---    0.00803   0.00803   0.01176   0.01203   0.01245
     Eigenvalues ---    0.01292   0.01308   0.01311   0.01356   0.01391
     Eigenvalues ---    0.01419   0.01429   0.01458   0.01496   0.01516
     Eigenvalues ---    0.01568   0.01575   0.01577   0.01622   0.01651
     Eigenvalues ---    0.01694   0.01711   0.01712   0.01719   0.01754
     Eigenvalues ---    0.01783   0.01803   0.01847   0.01963   0.02040
     Eigenvalues ---    0.02047   0.02068   0.02075   0.02081   0.02135
     Eigenvalues ---    0.02149   0.02163   0.02177   0.02197   0.02219
     Eigenvalues ---    0.02238   0.02249   0.07556   0.07572   0.07690
     Eigenvalues ---    0.07700   0.10068   0.10075   0.10635   0.10636
     Eigenvalues ---    0.15983   0.15999   0.15999   0.16000   0.16000
     Eigenvalues ---    0.16000   0.16000   0.16000   0.16000   0.16000
     Eigenvalues ---    0.16000   0.16000   0.16000   0.16000   0.16000
     Eigenvalues ---    0.16000   0.16000   0.16000   0.22530   0.22583
     Eigenvalues ---    0.23518   0.23582   0.24516   0.24747   0.24865
     Eigenvalues ---    0.24931   0.24952   0.24986   0.24987   0.24988
     Eigenvalues ---    0.24991   0.24994   0.24997   0.24997   0.24998
     Eigenvalues ---    0.24998   0.25000   0.25000   0.25000   0.25000
     Eigenvalues ---    0.25000   0.25000   0.25000   0.25000   0.25000
     Eigenvalues ---    0.25000   0.28855   0.28938   0.30109   0.32098
     Eigenvalues ---    0.32582   0.32774   0.33111   0.33787   0.33958
     Eigenvalues ---    0.34073   0.34083   0.34084   0.34354   0.34466
     Eigenvalues ---    0.34577   0.34629   0.34693   0.34835   0.34870
     Eigenvalues ---    0.35198   0.35218   0.35468   0.35553   0.35582
     Eigenvalues ---    0.35779   0.35811   0.36078   0.36083   0.36344
     Eigenvalues ---    0.36396   0.36662   0.39352   0.40194   0.40236
     Eigenvalues ---    0.40651   0.40697   0.41524   0.41664   0.42056
     Eigenvalues ---    0.42300   0.42763   0.43455   0.43881   0.44092
     Eigenvalues ---    0.44573   0.44594   0.45014   0.45406   0.46251
     Eigenvalues ---    0.47305   0.47551   0.49310   0.49593   0.52920
     Eigenvalues ---    0.53215   0.93281   0.93432   0.93989   0.94585
     Eigenvalues --- 1000.000001000.000001000.000001000.000001000.00000
     Eigenvalues --- 1000.000001000.000001000.000001000.000001000.00000
     Eigenvalues --- 1000.000001000.000001000.000001000.000001000.00000
     Eigenvalues --- 1000.000001000.000001000.000001000.000001000.00000
     Eigenvalues --- 1000.000001000.000001000.000001000.000001000.00000
     Eigenvalues --- 1000.000001000.000001000.000001000.000001000.00000
     Eigenvalues --- 1000.000001000.000001000.000001000.000001000.00000
     Eigenvalues --- 1000.000001000.000001000.000001000.000001000.00000
     Eigenvalues --- 1000.000001000.000001000.000001000.000001000.00000
     Eigenvalues --- 1000.000001000.000001000.000001000.000001000.00000
     Eigenvalues --- 1000.000001000.000001000.000001000.000001000.00000
     Eigenvalues --- 1000.000001000.000001000.000001000.000001000.00000
     Eigenvalues --- 1000.000001000.000001000.000001000.000001000.00000
     Eigenvalues --- 1000.000001000.000001000.000001000.000001000.00000
     Eigenvalues --- 1000.000001000.000001000.000001000.000001000.00000
     Eigenvalues --- 1000.000001000.000001000.000001000.000001000.00000
     Eigenvalues --- 1000.000001000.000001000.000001000.000001000.00000
     Eigenvalues --- 1000.000001000.000001000.000001000.000001000.00000
     Eigenvalues --- 1000.000001000.000001000.000001000.000001000.00000
     Eigenvalues --- 1000.000001000.000001000.000001000.000001000.00000
     Eigenvalues --- 1000.000001000.000001000.000001000.000001000.00000
     Eigenvalues --- 1000.000001000.000001000.000001000.000001000.00000
     Eigenvalues --- 1000.000001000.000001000.000001000.000001000.00000
     Eigenvalues --- 1000.000001000.000001000.000001000.000001000.00000
     Eigenvalues --- 1000.000001000.000001000.000001000.000001000.00000
     Eigenvalues --- 1000.000001000.000001000.000001000.000001000.00000
     Eigenvalues --- 1000.000001000.000001000.000001000.000001000.00000
     Eigenvalues --- 1000.000001000.000001000.000001000.000001000.00000
     Eigenvalues --- 1000.000001000.00000
 RFO step:  Lambda=-6.28872549D-03 EMin= 8.02933640D-03
 Linear search not attempted -- first point.
 Iteration  1 RMS(Cart)=  0.09902518 RMS(Int)=  0.00180991
 Iteration  2 RMS(Cart)=  0.00459199 RMS(Int)=  0.00030932
 Iteration  3 RMS(Cart)=  0.00000837 RMS(Int)=  0.00030931
 Iteration  4 RMS(Cart)=  0.00000000 RMS(Int)=  0.00030931
 Iteration  1 RMS(Cart)=  0.00007825 RMS(Int)=  0.00001268
 Iteration  2 RMS(Cart)=  0.00004473 RMS(Int)=  0.00001414
 Iteration  3 RMS(Cart)=  0.00002557 RMS(Int)=  0.00001606
 Iteration  4 RMS(Cart)=  0.00001462 RMS(Int)=  0.00001739
 Iteration  5 RMS(Cart)=  0.00000836 RMS(Int)=  0.00001822
 Iteration  6 RMS(Cart)=  0.00000478 RMS(Int)=  0.00001870
 Iteration  7 RMS(Cart)=  0.00000273 RMS(Int)=  0.00001899
 Iteration  8 RMS(Cart)=  0.00000156 RMS(Int)=  0.00001915
 Iteration  9 RMS(Cart)=  0.00000089 RMS(Int)=  0.00001924
 Variable       Old X    -DE/DX   Delta X   Delta X   Delta X     New X
                                 (Linear)    (Quad)   (Total)
    R1        2.80935  -0.00115   0.00000  -0.00332  -0.00332   2.80603
    R2        2.64584  -0.00310   0.00000  -0.00692  -0.00692   2.63892
    R3        2.31147  -0.00450   0.00000  -0.00476  -0.00476   2.30671
    R4        2.67311  -0.00367   0.00000  -0.00729  -0.00741   2.66570
    R5        2.59267   0.00126   0.00000   0.00291   0.00282   2.59549
    R6        2.66894  -0.00181   0.00000  -0.00370  -0.00371   2.66523
    R7        2.69164  -0.00222   0.00000  -0.00476  -0.00477   2.68687
    R8        2.81049  -0.00081   0.00000  -0.00234  -0.00234   2.80815
    R9        2.62173  -0.00270   0.00000  -0.00558  -0.00560   2.61612
   R10        2.65570  -0.00306   0.00000  -0.00698  -0.00698   2.64872
   R11        2.30889  -0.00312   0.00000  -0.00327  -0.00327   2.30562
   R12        2.70248  -0.00666   0.00000  -0.01628  -0.01627   2.68621
   R13        2.04786  -0.00081   0.00000  -0.00224  -0.00224   2.04562
   R14        2.70495  -0.00452   0.00000  -0.01163  -0.01140   2.69356
   R15        2.68322  -0.00242   0.00000  -0.00554  -0.00553   2.67769
   R16        2.68655  -0.01023   0.00000  -0.02475  -0.02463   2.66191
   R17        2.81233  -0.00057   0.00000  -0.00191  -0.00176   2.81057
   R18        2.76359   0.00585   0.00000   0.01568   0.01568   2.77927
   R19        2.66221  -0.00195   0.00000  -0.00440  -0.00440   2.65780
   R20        2.31391  -0.00793   0.00000  -0.00843  -0.00843   2.30547
   R21        2.79415   0.00087   0.00000   0.00272   0.00258   2.79673
   R22        2.63842  -0.00309   0.00000  -0.00647  -0.00660   2.63182
   R23        2.31456  -0.00378   0.00000  -0.00402  -0.00402   2.31054
   R24        2.62448  -0.00241   0.00000  -0.00514  -0.00513   2.61935
   R25        2.64561  -0.00066   0.00000  -0.00159  -0.00160   2.64401
   R26        2.04921  -0.00166   0.00000  -0.00459  -0.00459   2.04462
   R27        2.04741  -0.00115   0.00000  -0.00317  -0.00317   2.04424
   R28        2.77259   0.00270   0.00000   0.00737   0.00737   2.77996
   R29        2.77252   0.00260   0.00000   0.00709   0.00709   2.77961
   R30        2.06176  -0.00079   0.00000  -0.00223  -0.00223   2.05953
   R31        2.06551  -0.00197   0.00000  -0.00560  -0.00560   2.05991
   R32        2.05322  -0.00154   0.00000  -0.00430  -0.00430   2.04892
   R33        2.06368  -0.00144   0.00000  -0.00408  -0.00408   2.05960
   R34        2.06281  -0.00093   0.00000  -0.00265  -0.00265   2.06017
   R35        2.05355  -0.00162   0.00000  -0.00451  -0.00451   2.04904
   R36        2.61096  -0.00860   0.00000  -0.01814  -0.01774   2.59322
   R37        3.33255  -0.00501   0.00000  -0.01772  -0.01737   3.31519
   R38        2.66158   0.00378   0.00000   0.00844   0.00839   2.66997
   R39        2.03547   0.00106   0.00000   0.00286   0.00286   2.03833
   R40        3.30373   0.00226   0.00000   0.00811   0.00783   3.31156
   R41        2.64324  -0.00422   0.00000  -0.00830  -0.00874   2.63449
   R42        2.57029   0.00120   0.00000   0.00225   0.00225   2.57254
   R43        2.71234   0.00369   0.00000   0.00904   0.00904   2.72138
   R44        2.69353   0.00383   0.00000   0.00906   0.00906   2.70258
   R45        2.63412  -0.00226   0.00000  -0.00485  -0.00485   2.62927
   R46        3.32795   0.00030   0.00000   0.00117   0.00116   3.32911
   R47        2.05944  -0.00111   0.00000  -0.00312  -0.00312   2.05632
   R48        2.07190  -0.00156   0.00000  -0.00449  -0.00449   2.06740
   R49        2.07208  -0.00185   0.00000  -0.00533  -0.00533   2.06675
   R50        2.69080   0.00011   0.00000   0.00009   0.00009   2.69089
   R51        2.56753   0.00027   0.00000   0.00049   0.00049   2.56803
   R52        3.26313  -0.00001   0.00000   0.00013   0.00013   3.26326
   R53        2.58654  -0.00220   0.00000  -0.00428  -0.00427   2.58227
   R54        2.04428  -0.00117   0.00000  -0.00323  -0.00323   2.04105
   R55        2.68852   0.00499   0.00000   0.01170   0.01170   2.70022
   R56        2.04378  -0.00148   0.00000  -0.00407  -0.00407   2.03971
   R57        2.07401  -0.00229   0.00000  -0.00662  -0.00662   2.06739
   R58        2.05886  -0.00089   0.00000  -0.00252  -0.00252   2.05634
   R59        2.07188  -0.00169   0.00000  -0.00487  -0.00487   2.06701
    A1        2.03797   0.00152   0.00000   0.00605   0.00602   2.04399
    A2        2.14521  -0.00079   0.00000  -0.00314  -0.00314   2.14207
    A3        2.10001  -0.00073   0.00000  -0.00291  -0.00291   2.09710
    A4        2.10395  -0.00066   0.00000  -0.00290  -0.00293   2.10101
    A5        2.08282   0.00236   0.00000   0.00745   0.00744   2.09026
    A6        2.09624  -0.00170   0.00000  -0.00427  -0.00434   2.09190
    A7        2.10093   0.00036   0.00000   0.00115   0.00108   2.10201
    A8        2.07104   0.00048   0.00000   0.00310   0.00311   2.07415
    A9        2.11118  -0.00084   0.00000  -0.00414  -0.00417   2.10701
   A10        2.10296  -0.00080   0.00000  -0.00245  -0.00248   2.10049
   A11        2.09911  -0.00062   0.00000  -0.00223  -0.00229   2.09683
   A12        2.08110   0.00142   0.00000   0.00474   0.00476   2.08586
   A13        2.03739   0.00111   0.00000   0.00447   0.00444   2.04184
   A14        2.12972   0.00005   0.00000   0.00014   0.00015   2.12987
   A15        2.11607  -0.00116   0.00000  -0.00460  -0.00459   2.11148
   A16        2.15098  -0.00155   0.00000  -0.00527  -0.00602   2.14496
   A17        2.04399   0.00372   0.00000   0.02179   0.02087   2.06486
   A18        2.08722  -0.00210   0.00000  -0.01334  -0.01421   2.07301
   A19        2.11101  -0.00081   0.00000  -0.00367  -0.00363   2.10738
   A20        2.04385   0.00215   0.00000   0.00912   0.00878   2.05263
   A21        2.12832  -0.00133   0.00000  -0.00535  -0.00539   2.12293
   A22        2.08678   0.00043   0.00000   0.00145   0.00066   2.08745
   A23        2.04738   0.00214   0.00000   0.01066   0.00981   2.05719
   A24        2.14662  -0.00245   0.00000  -0.00672  -0.00811   2.13851
   A25        2.04892   0.00322   0.00000   0.01083   0.01115   2.06007
   A26        2.00754  -0.00087   0.00000  -0.00255  -0.00270   2.00484
[...]
 Alpha  occ. eigenvalues --   -0.53670  -0.51897  -0.50424  -0.50165  -0.49989
 Alpha  occ. eigenvalues --   -0.49562  -0.49233  -0.48666  -0.48182  -0.47838
 Alpha  occ. eigenvalues --   -0.47805  -0.47448  -0.47011  -0.46700  -0.45864
 Alpha  occ. eigenvalues --   -0.45568  -0.45204  -0.45096  -0.44244  -0.43923
 Alpha  occ. eigenvalues --   -0.42886  -0.42782  -0.42297  -0.42110  -0.41872
 Alpha  occ. eigenvalues --   -0.41577  -0.41458  -0.41212  -0.40708  -0.40018
 Alpha  occ. eigenvalues --   -0.39809  -0.39234  -0.38883  -0.37733  -0.37589
 Alpha  occ. eigenvalues --   -0.36212  -0.35750  -0.34309  -0.33873  -0.33759
 Alpha  occ. eigenvalues --   -0.33534  -0.32357  -0.31647  -0.30812  -0.30014
 Alpha  occ. eigenvalues --   -0.29762  -0.29398  -0.29285  -0.28568  -0.27638
 Alpha  occ. eigenvalues --   -0.26332  -0.25017  -0.24809  -0.19492
 Alpha virt. eigenvalues --   -0.13385  -0.07211  -0.06375  -0.04982  -0.04475
 Alpha virt. eigenvalues --   -0.00741  -0.00569   0.00079   0.00498   0.00512
 Alpha virt. eigenvalues --    0.00657   0.01005   0.01057   0.01442   0.02169
 Alpha virt. eigenvalues --    0.02313   0.02506   0.02841   0.02985   0.03187
 Alpha virt. eigenvalues --    0.03593   0.03902   0.03939   0.04272   0.04671
 Alpha virt. eigenvalues --    0.04793   0.04861   0.04966   0.05695   0.05935
 Alpha virt. eigenvalues --    0.06114   0.06382   0.06446   0.06552   0.06897
 Alpha virt. eigenvalues --    0.07374   0.07623   0.07731   0.07904   0.08470
 Alpha virt. eigenvalues --    0.08543   0.08613   0.09002   0.09183   0.09370
 Alpha virt. eigenvalues --    0.09617   0.09747   0.10031   0.10093   0.10539
 Alpha virt. eigenvalues --    0.10802   0.11011   0.11535   0.11658   0.11874
 Alpha virt. eigenvalues --    0.12263   0.12412   0.12609   0.13196   0.13429
 Alpha virt. eigenvalues --    0.13703   0.13898   0.14172   0.14294   0.14342
 Alpha virt. eigenvalues --    0.14528   0.14817   0.14874   0.14946   0.15152
 Alpha virt. eigenvalues --    0.15581   0.15694   0.15947   0.16106   0.16242
 Alpha virt. eigenvalues --    0.16621   0.16734   0.16986   0.17320   0.17624
 Alpha virt. eigenvalues --    0.17816   0.18102   0.18248   0.18457   0.18547
 Alpha virt. eigenvalues --    0.18866   0.19021   0.19444   0.19557   0.19832
 Alpha virt. eigenvalues --    0.19928   0.20023   0.20213   0.20230   0.20412
 Alpha virt. eigenvalues --    0.20747   0.20985   0.21104   0.21250   0.21307
 Alpha virt. eigenvalues --    0.21465   0.21702   0.21890   0.22135   0.22267
 Alpha virt. eigenvalues --    0.22606   0.22970   0.23099   0.23278   0.23375
 Alpha virt. eigenvalues --    0.23561   0.23776   0.23865   0.24075   0.24287
 Alpha virt. eigenvalues --    0.24519   0.24702   0.24807   0.25174   0.25404
 Alpha virt. eigenvalues --    0.25708   0.25780   0.26059   0.26167   0.26291
 Alpha virt. eigenvalues --    0.26455   0.26710   0.26793   0.27121   0.27266
 Alpha virt. eigenvalues --    0.27498   0.27765   0.28014   0.28217   0.28477
 Alpha virt. eigenvalues --    0.28600   0.28663   0.28853   0.29112   0.29187
 Alpha virt. eigenvalues --    0.29535   0.29637   0.30153   0.30331   0.30508
 Alpha virt. eigenvalues --    0.30658   0.30816   0.30916   0.31349   0.31531
 Alpha virt. eigenvalues --    0.31702   0.31799   0.31989   0.32387   0.32605
 Alpha virt. eigenvalues --    0.32721   0.33226   0.33525   0.33739   0.33895
 Alpha virt. eigenvalues --    0.34519   0.34705   0.35126   0.35544   0.35647
 Alpha virt. eigenvalues --    0.35814   0.36046   0.37050   0.37145   0.37674
 Alpha virt. eigenvalues --    0.37855   0.38215   0.38514   0.39001   0.39314
 Alpha virt. eigenvalues --    0.39374   0.39897   0.40210   0.40801   0.41026
 Alpha virt. eigenvalues --    0.41496   0.42083   0.42598   0.42710   0.43185
 Alpha virt. eigenvalues --    0.43725   0.44007   0.44447   0.44972   0.45314
 Alpha virt. eigenvalues --    0.45783   0.46042   0.46218   0.46342   0.46963
 Alpha virt. eigenvalues --    0.47453   0.47786   0.48285   0.48790   0.49310
 Alpha virt. eigenvalues --    0.49634   0.49897   0.50071   0.50743   0.51047
 Alpha virt. eigenvalues --    0.51570   0.52370   0.52850   0.53499   0.53746
 Alpha virt. eigenvalues --    0.54421   0.54765   0.55052   0.55401   0.55852
 Alpha virt. eigenvalues --    0.55968   0.56277   0.56565   0.56959   0.57793
 Alpha virt. eigenvalues --    0.57852   0.58131   0.58482   0.59139   0.59296
 Alpha virt. eigenvalues --    0.59767   0.60353   0.60693   0.61035   0.61188
 Alpha virt. eigenvalues --    0.61747   0.62119   0.62629   0.62847   0.63380
 Alpha virt. eigenvalues --    0.63912   0.64102   0.64518   0.64888   0.65134
 Alpha virt. eigenvalues --    0.65512   0.65998   0.66301   0.66542   0.67113
 Alpha virt. eigenvalues --    0.67287   0.67531   0.67750   0.68438   0.68725
 Alpha virt. eigenvalues --    0.69086   0.69322   0.70025   0.70315   0.70410
 Alpha virt. eigenvalues --    0.70892   0.71136   0.71923   0.71940   0.72233
 Alpha virt. eigenvalues --    0.72678   0.72894   0.73426   0.73475   0.73730
 Alpha virt. eigenvalues --    0.74618   0.74938   0.75013   0.75350   0.75562
 Alpha virt. eigenvalues --    0.75727   0.75993   0.76249   0.77116   0.77336
 Alpha virt. eigenvalues --    0.77563   0.77744   0.78278   0.78586   0.79058
 Alpha virt. eigenvalues --    0.79724   0.79914   0.80374   0.80860   0.81646
 Alpha virt. eigenvalues --    0.83238   0.83278   0.84027   0.84531   0.85310
 Alpha virt. eigenvalues --    0.85901   0.87231   0.87287   0.87458   0.88103
 Alpha virt. eigenvalues --    0.88891   0.89095   0.89566   0.89989   0.90421
 Alpha virt. eigenvalues --    0.91284   0.91614   0.92101   0.92237   0.92803
 Alpha virt. eigenvalues --    0.93739   0.93952   0.94338   0.94616   0.95148
 Alpha virt. eigenvalues --    0.95538   0.95955   0.96283   0.96738   0.97178
 Alpha virt. eigenvalues --    0.97519   0.98064   0.99034   0.99570   1.00010
 Alpha virt. eigenvalues --    1.00500   1.00795   1.01485   1.01715   1.02431
 Alpha virt. eigenvalues --    1.02770   1.02956   1.03378   1.04071   1.04649
 Alpha virt. eigenvalues --    1.04901   1.04997   1.05151   1.05477   1.06465
 Alpha virt. eigenvalues --    1.06949   1.07238   1.07688   1.08151   1.08595
 Alpha virt. eigenvalues --    1.09134   1.09414   1.09773   1.10155   1.10531
 Alpha virt. eigenvalues --    1.10995   1.11806   1.12025   1.13238   1.14379
 Alpha virt. eigenvalues --    1.14662   1.15689   1.16365   1.17051   1.17654
 Alpha virt. eigenvalues --    1.17757   1.18465   1.18919   1.20041   1.20733
 Alpha virt. eigenvalues --    1.21036   1.22012   1.23348   1.24169   1.24392
 Alpha virt. eigenvalues --    1.25261   1.25785   1.26076   1.26466   1.26624
 Alpha virt. eigenvalues --    1.27942   1.28568   1.30053   1.30825   1.31427
 Alpha virt. eigenvalues --    1.31976   1.32777   1.33418   1.34487   1.35216
 Alpha virt. eigenvalues --    1.35843   1.36136   1.36867   1.38044   1.38843
 Alpha virt. eigenvalues --    1.40192   1.40847   1.41681   1.42140   1.42747
 Alpha virt. eigenvalues --    1.43497   1.43513   1.43855   1.44106   1.44472
 Alpha virt. eigenvalues --    1.44840   1.45353   1.45460   1.45560   1.46205
 Alpha virt. eigenvalues --    1.46621   1.46841   1.47738   1.49100   1.49672
 Alpha virt. eigenvalues --    1.50508   1.50994   1.51311   1.51541   1.52353
 Alpha virt. eigenvalues --    1.52802   1.53379   1.54194   1.54736   1.54996
 Alpha virt. eigenvalues --    1.55244   1.55491   1.56179   1.56791   1.57380
 Alpha virt. eigenvalues --    1.57494   1.59086   1.59886   1.60702   1.60881
 Alpha virt. eigenvalues --    1.62074   1.62704   1.63011   1.63893   1.64372
 Alpha virt. eigenvalues --    1.65138   1.65724   1.66626   1.66815   1.67463
 Alpha virt. eigenvalues --    1.68736   1.69205   1.69562   1.69656   1.70128
 Alpha virt. eigenvalues --    1.70466   1.71218   1.71554   1.71889   1.72134
 Alpha virt. eigenvalues --    1.72677   1.73935   1.74240   1.74778   1.75656
 Alpha virt. eigenvalues --    1.76541   1.76585   1.77710   1.77994   1.79256
 Alpha virt. eigenvalues --    1.79433   1.80019   1.80273   1.80829   1.82453
 Alpha virt. eigenvalues --    1.83371   1.84072   1.85314   1.85637   1.86095
 Alpha virt. eigenvalues --    1.86524   1.86868   1.87118   1.88116   1.88550
 Alpha virt. eigenvalues --    1.89529   1.89584   1.90204   1.90405   1.91222
 Alpha virt. eigenvalues --    1.91531   1.92388   1.93622   1.94237   1.94949
 Alpha virt. eigenvalues --    1.96052   1.96645   1.97562   1.98017   1.98787
 Alpha virt. eigenvalues --    1.99249   2.00360   2.01220   2.01549   2.02194
 Alpha virt. eigenvalues --    2.03136   2.03308   2.03509   2.04418   2.04974
 Alpha virt. eigenvalues --    2.05496   2.06311   2.06710   2.07310   2.07572
 Alpha virt. eigenvalues --    2.08650   2.09079   2.10294   2.11103   2.11447
 Alpha virt. eigenvalues --    2.12825   2.13209   2.14520   2.14731   2.15151
 Alpha virt. eigenvalues --    2.15740   2.16336   2.16621   2.17981   2.18336
 Alpha virt. eigenvalues --    2.19037   2.19624   2.20597   2.21926   2.22103
 Alpha virt. eigenvalues --    2.23360   2.24903   2.25814   2.26009   2.27925
 Alpha virt. eigenvalues --    2.31573   2.32880   2.33327   2.34376   2.37335
 Alpha virt. eigenvalues --    2.38214   2.39432   2.39878   2.41974   2.43483
 Alpha virt. eigenvalues --    2.43916   2.44486   2.44899   2.45515   2.45814
 Alpha virt. eigenvalues --    2.47031   2.47881   2.48200   2.49333   2.49677
 Alpha virt. eigenvalues --    2.50328   2.51913   2.52349   2.52508   2.53150
 Alpha virt. eigenvalues --    2.53500   2.54119   2.54546   2.55113   2.56037
 Alpha virt. eigenvalues --    2.57208   2.58038   2.58253   2.59084   2.60859
 Alpha virt. eigenvalues --    2.62633   2.63578   2.63856   2.64778   2.67000
 Alpha virt. eigenvalues --    2.67279   2.67814   2.68121   2.68378   2.68731
 Alpha virt. eigenvalues --    2.69017   2.69992   2.70689   2.71118   2.71740
 Alpha virt. eigenvalues --    2.71842   2.72254   2.73076   2.74654   2.76154
 Alpha virt. eigenvalues --    2.76179   2.76965   2.78232   2.78885   2.80560
 Alpha virt. eigenvalues --    2.82187   2.82851   2.83358   2.83562   2.83981
 Alpha virt. eigenvalues --    2.84094   2.84631   2.85197   2.85806   2.86616
 Alpha virt. eigenvalues --    2.87678   2.87984   2.89053   2.89493   2.89647
 Alpha virt. eigenvalues --    2.91367   2.91736   2.92667   2.93458   2.94190
 Alpha virt. eigenvalues --    2.94970   2.96156   2.96698   2.98376   3.00019
 Alpha virt. eigenvalues --    3.00413   3.02052   3.03245   3.04132   3.05137
 Alpha virt. eigenvalues --    3.05504   3.06590   3.08624   3.08743   3.09281
 Alpha virt. eigenvalues --    3.10237   3.12819   3.12982   3.14260   3.14822
 Alpha virt. eigenvalues --    3.15700   3.17309   3.19914   3.20907   3.21080
 Alpha virt. eigenvalues --    3.23278   3.23604   3.24268   3.24911   3.26641
 Alpha virt. eigenvalues --    3.28797   3.29432   3.30928   3.31948   3.33401
 Alpha virt. eigenvalues --    3.33883   3.34159   3.34901   3.35728   3.37805
 Alpha virt. eigenvalues --    3.38213   3.40110   3.41083   3.42476   3.43421
 Alpha virt. eigenvalues --    3.44418   3.45156   3.45819   3.48673   3.48868
 Alpha virt. eigenvalues --    3.50864   3.53605   3.55748   3.57695   3.59535
 Alpha virt. eigenvalues --    3.60443   3.61403   3.65004   3.65586   3.66791
 Alpha virt. eigenvalues --    3.68951   3.71035   3.73195   3.74438   3.76019
 Alpha virt. eigenvalues --    3.77861   3.78028   3.81790   3.82940   3.84794
 Alpha virt. eigenvalues --    3.84913   3.85352   3.89572   3.91358   3.92747
 Alpha virt. eigenvalues --    3.93357   3.95230   3.96405   4.00939   4.02642
 Alpha virt. eigenvalues --    4.03800   4.08005   4.10289   4.12125   4.14035
 Alpha virt. eigenvalues --    4.18709   4.23173   4.24889   4.26920   4.34920
 Alpha virt. eigenvalues --    4.37869   4.39688   4.49860   4.66158   4.84583
 Alpha virt. eigenvalues --    4.86725   4.87058   4.89770   5.01690   5.02783
 Alpha virt. eigenvalues --    5.03114   5.04746   5.04869   5.09426   5.10956
 Alpha virt. eigenvalues --    5.12214   5.24027   5.25585   5.27671   5.29455
 Alpha virt. eigenvalues --    5.41386   5.42799   5.75043   5.76172   5.79057
 Alpha virt. eigenvalues --    5.79843   5.81321   5.83824   8.01986   8.04201
 Alpha virt. eigenvalues --   17.28961  17.33374  17.49039  17.52128  17.57387
 Alpha virt. eigenvalues --   17.61798  23.48431  23.56314  23.71984  23.79367
 Alpha virt. eigenvalues --   23.81990  23.82324  23.83580  23.86433  23.86890
 Alpha virt. eigenvalues --   23.87791  23.88782  23.91398  23.92142  23.93846
 Alpha virt. eigenvalues --   23.94942  23.96045  23.96801  24.00204  24.01456
 Alpha virt. eigenvalues --   24.03125  24.03329  24.05622  24.12235  24.14205
 Alpha virt. eigenvalues --   24.14364  24.15394  35.55642  35.58154  49.96159
 Alpha virt. eigenvalues --   49.97470  50.01228  50.02932  50.05073  50.06390
 Alpha virt. eigenvalues --  189.19205 189.21964
          Condensed to atoms (all electrons):
 Mulliken charges:
               1
     1  C    0.459278
     2  C   -0.081352
     3  C    0.119750
     4  C    0.224648
     5  C    0.302687
     6  C   -0.470866
     7  C    0.191772
     8  C    0.234152
     9  C    0.517868
    10  C   -0.422665
    11  C    0.268399
    12  C    0.137820
    13  C   -0.475102
    14  C   -0.626387
    15  H    0.166809
    16  H    0.166716
    17  H    0.174036
    18  N   -0.067411
    19  N   -0.112758
    20  O   -0.342993
    21  O   -0.332317
    22  O   -0.345489
    23  O   -0.218789
    24  C   -0.206510
    25  H    0.181137
    26  H    0.190517
    27  H    0.180609
    28  C   -0.214467
    29  H    0.182592
    30  H    0.185165
    31  H    0.180316
    32  C    0.141880
    33  C   -0.460127
    34  S   -0.491179
    35  C   -0.201164
    36  H    0.157262
    37  C    0.644383
    38  O   -0.166126
    39  C    0.702094
    40  C   -0.239722
    41  C   -0.021438
    42  S   -0.246171
    43  H    0.176185
    44  H    0.165838
    45  H    0.162055
    46  C   -0.578479
    47  O   -0.163570
    48  C   -0.325546
    49  H    0.161732
    50  C   -0.251143
    51  H    0.189446
    52  H    0.160855
    53  H    0.173934
    54  H    0.161836
 Sum of Mulliken charges =  -0.00000
 Mulliken charges with hydrogens summed into heavy atoms:
               1
     1  C    0.459278
     2  C   -0.081352
     3  C    0.119750
     4  C    0.224648
     5  C    0.302687
     6  C   -0.296830
     7  C    0.191772
     8  C    0.234152
     9  C    0.517868
    10  C   -0.422665
    11  C    0.268399
    12  C    0.137820
    13  C   -0.308387
    14  C   -0.459578
    18  N   -0.067411
    19  N   -0.112758
    20  O   -0.342993
    21  O   -0.332317
    22  O   -0.345489
    23  O   -0.218789
    24  C    0.345752
    28  C    0.333606
    32  C    0.141880
    33  C   -0.302865
    34  S   -0.491179
    35  C   -0.201164
    37  C    0.644383
    38  O   -0.166126
    39  C    0.702094
    40  C    0.264356
    41  C   -0.021438
    42  S   -0.246171
    46  C   -0.416747
    47  O   -0.163570
    48  C   -0.136100
    50  C    0.245482
 Electronic spatial extent (au):  <R**2>=          22368.3241
 Charge=             -0.0000 electrons
 Dipole moment (field-independent basis, Debye):
    X=              2.8235    Y=             -0.3232    Z=              0.6984  Tot=              2.9265
 Quadrupole moment (field-independent basis, Debye-Ang):
   XX=           -216.3931   YY=           -219.6752   ZZ=           -208.9529
   XY=             -5.9336   XZ=             -7.3995   YZ=             20.6683
 Traceless Quadrupole moment (field-independent basis, Debye-Ang):
   XX=             -1.3860   YY=             -4.6682   ZZ=              6.0542
   XY=             -5.9336   XZ=             -7.3995   YZ=             20.6683
 Octapole moment (field-independent basis, Debye-Ang**2):
  XXX=            405.8291  YYY=            -21.6622  ZZZ=              5.5590  XYY=            106.8349
  XXY=            -99.5958  XXZ=            -58.4145  XZZ=             38.6239  YZZ=              0.5555
  YYZ=             -2.3377  XYZ=             64.6234
 Hexadecapole moment (field-independent basis, Debye-Ang**3):
 XXXX=         -20900.3257 YYYY=          -6920.2988 ZZZZ=          -1481.8608 XXXY=           -732.7470
 XXXZ=           -349.2634 YYYX=            406.8168 YYYZ=            186.3237 ZZZX=            -35.5303
 ZZZY=            126.2457 XXYY=          -4852.3354 XXZZ=          -3731.6586 YYZZ=          -1283.5096
 XXYZ=            390.3197 YYXZ=           -142.6274 ZZXY=              1.8245
 N-N= 4.085567856235D+03 E-N=-1.371142028060D+04  KE= 2.351997515406D+03
 Unable to Open any file for archive entry.
 1\1\GINC-CX3-6-11\FOpt\RB3LYP\6-311+G(d,p)\C26H18N2O6S2\NS5018\28-Oct-
 2021\0\\# opt=modredundant b3lyp/6-311+g(d,p) scrf=(pcm, solvent=water
 )\\NDI_60.pdb\\0,1\C,-2.6246313709,-2.8938977773,-0.7719329278\C,-2.30
 53398253,-1.4703429035,-0.4983635389\C,-3.3129569933,-0.5922695767,-0.
 0415630572\C,-4.628914134,-1.0556202991,0.1705715331\C,-4.9721005675,-
 2.477940568,-0.0883924375\C,-1.0184448103,-1.0141344781,-0.6618092915\
 C,-2.9856768255,0.7700701682,0.1949913519\C,-1.6610460155,1.2391244486
 ,-0.0246751319\C,-0.6544755843,0.3307860388,-0.3912544196\C,-1.4179507
 873,2.7062227912,0.0567535843\C,-3.7214446574,3.0636650457,0.918436307
 1\C,-4.0091615219,1.6349919244,0.6530958525\C,-5.292586662,1.157585663
 8,0.8633708464\C,-5.6073497576,-0.1857789296,0.620622942\H,-6.61247697
 96,-0.5522277088,0.7814038645\H,-6.0525921828,1.8409218157,1.218652687
 6\H,-0.2525297944,-1.7141083464,-0.9691893809\N,-2.4356272381,3.502202
 1821,0.6087358931\N,-3.9409964405,-3.3053965945,-0.5529342019\O,-1.789
 7278224,-3.6903219903,-1.1716322413\O,-6.0981434625,-2.9138556238,0.08
 95843328\O,-4.5646352635,3.8275416043,1.3661601104\O,-0.4036688096,3.2
 480505263,-0.3479877438\C,-2.1292745849,4.9326594018,0.7643399041\H,-1
 .1556414843,5.0414265601,1.2374055865\H,-2.106654748,5.4232135175,-0.2
 10085404\H,-2.9027822881,5.377190389,1.3813220581\C,-4.2378129888,-4.7
 198168082,-0.8289054945\H,-4.0018923184,-4.9472329763,-1.8679572933\H,
 -3.6349662595,-5.3560819421,-0.1809767057\H,-5.292303334,-4.8864202624
 ,-0.6386810869\C,0.77420096,0.6616791581,-0.479009721\C,1.5945611814,1
 .1205488284,0.5210354629\S,1.68595917,0.2753585206,-1.9166185793\C,2.9
 542320685,1.1907656577,0.1312670685\H,1.2276493005,1.3894184181,1.5006
 881956\C,3.1982964313,0.7795867855,-1.1764812185\O,3.992824971,1.60093
 24879,0.9063923882\C,4.4513942573,0.7655425413,-1.8850819397\C,3.69751
 95264,2.1007874715,2.2158469802\C,4.696058917,0.3152243021,-3.17764947
 17\S,5.9533758982,1.3654860069,-1.1850541604\H,4.6521495134,2.40560766
 18,2.6392184003\H,3.0269560194,2.9625867968,2.1618998673\H,3.253478277
 2,1.3210729257,2.8404966916\C,6.0512032287,0.4475282647,-3.5956997574\
 O,3.6726848722,-0.1901390381,-3.9146577461\C,6.8375201139,0.998087916,
 -2.6234756886\H,6.42469562,0.1489671968,-4.5642553217\C,3.9603778308,-
 0.6567912637,-5.2383333189\H,7.8958982441,1.2052427375,-2.6659425912\H
 ,4.6840795933,-1.4756799237,-5.2142665768\H,3.0147507073,-1.0170543167
 ,-5.6376159304\H,4.33693881,0.1560355726,-5.8648095308\\Version=ES64L-
 G16RevC.01\State=1-A\HF=-2359.3592225\RMSD=3.129e-09\RMSF=4.716e-04\Di
 pole=1.147898,-0.0578823,-0.0681839\Quadrupole=-3.4918317,-13.7742072,
 17.2660389,1.5798725,-3.5455696,6.1196625\PG=C01 [X(C26H18N2O6S2)]\\@
 The archive entry for this job was punched.


 THE WHOLE OF SCIENCE IS NOTHING MORE THAN A REFINEMENT OF EVERYDAY THINKING.
                                                              -- A. EINSTEIN
 Job cpu time:       2 days 21 hours 53 minutes 59.0 seconds.
 Elapsed time:       0 days  4 hours 25 minutes 50.0 seconds.
 File lengths (MBytes):  RWF=   1033 Int=      0 D2E=      0 Chk=     80 Scr=      1
 Normal termination of Gaussian 16 at Thu Oct 28 02:04:04 2021.
