 Entering Gaussian System, Link 0=g16
 Input=NDI_-20.gjf
 Output=NDI_-20.log
 Initial command:
 /apps/gaussian/g16-c01-avx/g16/l1.exe "/tmp/pbs.4768611[155].pbs/Gau-4044407.inp" -scrdir="/tmp/pbs.4768611[155].pbs/"
 Entering Link 1 = /apps/gaussian/g16-c01-avx/g16/l1.exe PID=   4044408.
  
 Copyright (c) 1988-2019, Gaussian, Inc.  All Rights Reserved.
  
 This is part of the Gaussian(R) 16 program.  It is based on
 the Gaussian(R) 09 system (copyright 2009, Gaussian, Inc.),
 the Gaussian(R) 03 system (copyright 2003, Gaussian, Inc.),
 the Gaussian(R) 98 system (copyright 1998, Gaussian, Inc.),
 the Gaussian(R) 94 system (copyright 1995, Gaussian, Inc.),
 the Gaussian 92(TM) system (copyright 1992, Gaussian, Inc.),
 the Gaussian 90(TM) system (copyright 1990, Gaussian, Inc.),
 the Gaussian 88(TM) system (copyright 1988, Gaussian, Inc.),
 the Gaussian 86(TM) system (copyright 1986, Carnegie Mellon
 University), and the Gaussian 82(TM) system (copyright 1983,
 Carnegie Mellon University). Gaussian is a federally registered
 trademark of Gaussian, Inc.
  
 This software contains proprietary and confidential information,
 including trade secrets, belonging to Gaussian, Inc.
  
 This software is provided under written license and may be
 used, copied, transmitted, or stored only in accord with that
 written license.
  
 The following legend is applicable only to US Government
 contracts under FAR:
  
                    RESTRICTED RIGHTS LEGEND
  
 Use, reproduction and disclosure by the US Government is
 subject to restrictions as set forth in subparagraphs (a)
 and (c) of the Commercial Computer Software - Restricted
 Rights clause in FAR 52.227-19.
  
 Gaussian, Inc.
 340 Quinnipiac St., Bldg. 40, Wallingford CT 06492
  
  
 ---------------------------------------------------------------
 Warning -- This program may not be used in any manner that
 competes with the business of Gaussian, Inc. or will provide
 assistance to any competitor of Gaussian, Inc.  The licensee
 of this program is prohibited from giving any competitor of
 Gaussian, Inc. access to this program.  By using this program,
 the user acknowledges that Gaussian, Inc. is engaged in the
 business of creating and licensing software in the field of
 computational chemistry and represents and warrants to the
 licensee that it is not a competitor of Gaussian, Inc. and that
 it will not use this program in any manner prohibited above.
 ---------------------------------------------------------------
  

 Cite this work as:
 Gaussian 16, Revision C.01,
 M. J. Frisch, G. W. Trucks, H. B. Schlegel, G. E. Scuseria, 
 M. A. Robb, J. R. Cheeseman, G. Scalmani, V. Barone, 
 G. A. Petersson, H. Nakatsuji, X. Li, M. Caricato, A. V. Marenich, 
 J. Bloino, B. G. Janesko, R. Gomperts, B. Mennucci, H. P. Hratchian, 
 J. V. Ortiz, A. F. Izmaylov, J. L. Sonnenberg, D. Williams-Young, 
 F. Ding, F. Lipparini, F. Egidi, J. Goings, B. Peng, A. Petrone, 
 T. Henderson, D. Ranasinghe, V. G. Zakrzewski, J. Gao, N. Rega, 
 G. Zheng, W. Liang, M. Hada, M. Ehara, K. Toyota, R. Fukuda, 
 J. Hasegawa, M. Ishida, T. Nakajima, Y. Honda, O. Kitao, H. Nakai, 
 T. Vreven, K. Throssell, J. A. Montgomery, Jr., J. E. Peralta, 
 F. Ogliaro, M. J. Bearpark, J. J. Heyd, E. N. Brothers, K. N. Kudin, 
 V. N. Staroverov, T. A. Keith, R. Kobayashi, J. Normand, 
 K. Raghavachari, A. P. Rendell, J. C. Burant, S. S. Iyengar, 
 J. Tomasi, M. Cossi, J. M. Millam, M. Klene, C. Adamo, R. Cammi, 
 J. W. Ochterski, R. L. Martin, K. Morokuma, O. Farkas, 
 J. B. Foresman, and D. J. Fox, Gaussian, Inc., Wallingford CT, 2019.
 
 ******************************************
 Gaussian 16:  ES64L-G16RevC.01  3-Jul-2019
                27-Oct-2021 
 ******************************************
 %mem=100GB
 %nprocshared=16
 Will use up to   16 processors via shared memory.
 ---------------------------------------------------------------
 # opt=modredundant b3lyp/6-311+g(d,p) scrf=(pcm, solvent=water)
 ---------------------------------------------------------------
 1/18=120,19=15,26=3,38=1/1,3;
 2/9=110,12=2,17=6,18=5,40=1/2;
 3/5=4,6=6,7=111,11=2,25=1,30=1,70=2201,71=1,72=1,74=-5/1,2,3;
 4//1;
 5/5=2,38=5,53=1/2;
 6/7=2,8=2,9=2,10=2,28=1/1;
 7//1,2,3,16;
 1/18=20,19=15,26=3/3(2);
 2/9=110/2;
 99//99;
 2/9=110/2;
 3/5=4,6=6,7=111,11=2,25=1,30=1,70=2205,71=1,72=1,74=-5/1,2,3;
 4/5=5,16=3,69=1/1;
 5/5=2,38=5,53=1/2;
 7//1,2,3,16;
 1/18=20,19=15,26=3/3(-5);
 2/9=110/2;
 6/7=2,8=2,9=2,10=2,19=2,28=1/1;
 99/9=1/99;
 -----------
 NDI_-20.pdb
 -----------
 Symbolic Z-matrix:
 Charge =  0 Multiplicity = 1
 C                    -2.563    -2.994    -0.409 
 C                    -2.257    -1.551    -0.224 
 C                    -3.301    -0.607    -0.083 
 C                    -4.65     -1.024    -0.115 
 C                    -4.992    -2.459    -0.304 
 C                    -0.949    -1.137    -0.215 
 C                    -2.962     0.764     0.102 
 C                    -1.595     1.188     0.123 
 C                    -0.561     0.232    -0.072 
 C                    -1.328     2.616     0.446 
 C                    -3.777     3.115     0.508 
 C                    -4.035     1.679     0.268 
 C                    -5.356     1.252     0.23 
 C                    -5.672    -0.098     0.036 
 H                    -6.699    -0.442     0.008 
 H                    -6.133     1.997     0.361 
 H                    -0.19     -1.895    -0.369 
 N                    -2.432     3.476     0.608 
 N                    -3.916    -3.353    -0.438 
 O                    -1.695    -3.847    -0.532 
 O                    -6.149    -2.85     -0.34 
 O                    -4.676     3.938     0.629 
 O                    -0.212     3.097     0.596 
 C                    -2.111     4.875     0.912 
 H                    -1.54      4.931     1.84 
 H                    -1.5       5.299     0.111 
 H                    -3.05      5.414     1.003 
 C                    -4.206    -4.779    -0.625 
 H                    -3.759    -5.126    -1.559 
 H                    -3.775    -5.355     0.196 
 H                    -5.286    -4.897    -0.649 
 C                     0.876     0.482    -0.178 
 C                     1.573     1.635    -0.482 
 S                     1.987    -0.883    -0.057 
 C                     2.962     1.437    -0.611 
 H                     1.093     2.594    -0.599 
 C                     3.379     0.118    -0.401 
 O                     3.89      2.384    -0.908 
 C                     4.721    -0.391    -0.419 
 C                     3.451     3.738    -0.974 
 C                     5.133    -1.709    -0.234 
 S                     6.132     0.628    -0.694 
 H                     4.347     4.336    -1.14 
 H                     2.754     3.889    -1.807 
 H                     2.97      4.044    -0.037 
 C                     6.543    -1.896    -0.31 
 O                     4.201    -2.67     -0.002 
 C                     7.201    -0.721    -0.553 
 H                     7.042    -2.848    -0.191 
 C                     4.649    -4.012     0.149 
 H                     8.267    -0.574    -0.661 
 H                     5.315    -4.115     1.015 
 H                     3.754    -4.612     0.31 
 H                     5.166    -4.362    -0.752 
 
 The following ModRedundant input section has been read:
 D       8       9      32      33 F                                           
 

 GradGradGradGradGradGradGradGradGradGradGradGradGradGradGradGradGradGrad
 Berny optimization.
 Initialization pass.
                           ----------------------------
                           !    Initial Parameters    !
                           ! (Angstroms and Degrees)  !
 --------------------------                            --------------------------
 ! Name  Definition              Value          Derivative Info.                !
 --------------------------------------------------------------------------------
 ! R1    R(1,2)                  1.4866         estimate D2E/DX2                !
 ! R2    R(1,19)                 1.4001         estimate D2E/DX2                !
 ! R3    R(1,20)                 1.2232         estimate D2E/DX2                !
 ! R4    R(2,3)                  1.4146         estimate D2E/DX2                !
 ! R5    R(2,6)                  1.372          estimate D2E/DX2                !
 ! R6    R(3,4)                  1.4123         estimate D2E/DX2                !
 ! R7    R(3,7)                  1.4244         estimate D2E/DX2                !
 ! R8    R(4,5)                  1.4872         estimate D2E/DX2                !
 ! R9    R(4,14)                 1.3874         estimate D2E/DX2                !
 ! R10   R(5,19)                 1.4053         estimate D2E/DX2                !
 ! R11   R(5,21)                 1.2218         estimate D2E/DX2                !
 ! R12   R(6,9)                  1.4301         estimate D2E/DX2                !
 ! R13   R(6,17)                 1.0837         estimate D2E/DX2                !
 ! R14   R(7,8)                  1.4314         estimate D2E/DX2                !
 ! R15   R(7,12)                 1.4199         estimate D2E/DX2                !
 ! R16   R(8,9)                  1.4217         estimate D2E/DX2                !
 ! R17   R(8,10)                 1.4882         estimate D2E/DX2                !
 ! R18   R(9,32)                 1.4624         estimate D2E/DX2                !
 ! R19   R(10,18)                1.4088         estimate D2E/DX2                !
 ! R20   R(10,23)                1.2245         estimate D2E/DX2                !
 ! R21   R(11,12)                1.4786         estimate D2E/DX2                !
 ! R22   R(11,18)                1.3962         estimate D2E/DX2                !
 ! R23   R(11,22)                1.2248         estimate D2E/DX2                !
 ! R24   R(12,13)                1.3888         estimate D2E/DX2                !
 ! R25   R(13,14)                1.4            estimate D2E/DX2                !
 ! R26   R(13,16)                1.0844         estimate D2E/DX2                !
 ! R27   R(14,15)                1.0834         estimate D2E/DX2                !
 ! R28   R(18,24)                1.4672         estimate D2E/DX2                !
 ! R29   R(19,28)                1.4672         estimate D2E/DX2                !
 ! R30   R(24,25)                1.091          estimate D2E/DX2                !
 ! R31   R(24,26)                1.093          estimate D2E/DX2                !
 ! R32   R(24,27)                1.0865         estimate D2E/DX2                !
 ! R33   R(28,29)                1.0921         estimate D2E/DX2                !
 ! R34   R(28,30)                1.0916         estimate D2E/DX2                !
 ! R35   R(28,31)                1.0867         estimate D2E/DX2                !
 ! R36   R(32,33)                1.3812         estimate D2E/DX2                !
 ! R37   R(32,34)                1.7641         estimate D2E/DX2                !
 ! R38   R(33,35)                1.409          estimate D2E/DX2                !
 ! R39   R(33,36)                1.0788         estimate D2E/DX2                !
 ! R40   R(34,37)                1.7487         estimate D2E/DX2                !
 ! R41   R(35,37)                1.3992         estimate D2E/DX2                !
 ! R42   R(35,38)                1.3588         estimate D2E/DX2                !
 ! R43   R(37,39)                1.4354         estimate D2E/DX2                !
 ! R44   R(38,40)                1.4249         estimate D2E/DX2                !
 ! R45   R(39,41)                1.3932         estimate D2E/DX2                !
 ! R46   R(39,42)                1.7621         estimate D2E/DX2                !
 ! R47   R(40,43)                1.0899         estimate D2E/DX2                !
 ! R48   R(40,44)                1.0966         estimate D2E/DX2                !
 ! R49   R(40,45)                1.0968         estimate D2E/DX2                !
 ! R50   R(41,46)                1.4244         estimate D2E/DX2                !
 ! R51   R(41,47)                1.3587         estimate D2E/DX2                !
 ! R52   R(42,48)                1.727          estimate D2E/DX2                !
 ! R53   R(46,48)                1.3684         estimate D2E/DX2                !
 ! R54   R(46,49)                1.0814         estimate D2E/DX2                !
 ! R55   R(47,50)                1.4228         estimate D2E/DX2                !
 ! R56   R(48,51)                1.0815         estimate D2E/DX2                !
 ! R57   R(50,52)                1.0973         estimate D2E/DX2                !
 ! R58   R(50,53)                1.0895         estimate D2E/DX2                !
 ! R59   R(50,54)                1.0962         estimate D2E/DX2                !
 ! A1    A(2,1,19)             116.767          estimate D2E/DX2                !
 ! A2    A(2,1,20)             122.9113         estimate D2E/DX2                !
 ! A3    A(19,1,20)            120.3217         estimate D2E/DX2                !
 ! A4    A(1,2,3)              120.5473         estimate D2E/DX2                !
 ! A5    A(1,2,6)              119.3369         estimate D2E/DX2                !
 ! A6    A(3,2,6)              120.1056         estimate D2E/DX2                !
 ! A7    A(2,3,4)              120.3743         estimate D2E/DX2                !
 ! A8    A(2,3,7)              118.662          estimate D2E/DX2                !
 ! A9    A(4,3,7)              120.9617         estimate D2E/DX2                !
 ! A10   A(3,4,5)              120.4909         estimate D2E/DX2                !
 ! A11   A(3,4,14)             120.2702         estimate D2E/DX2                !
 ! A12   A(5,4,14)             119.2382         estimate D2E/DX2                !
 ! A13   A(4,5,19)             116.7341         estimate D2E/DX2                !
 ! A14   A(4,5,21)             122.024          estimate D2E/DX2                !
 ! A15   A(19,5,21)            121.2418         estimate D2E/DX2                !
 ! A16   A(2,6,9)              123.2421         estimate D2E/DX2                !
 ! A17   A(2,6,17)             117.1119         estimate D2E/DX2                !
 ! A18   A(9,6,17)             119.589          estimate D2E/DX2                !
 ! A19   A(3,7,8)              120.9519         estimate D2E/DX2                !
 ! A20   A(3,7,12)             117.1037         estimate D2E/DX2                !
 ! A21   A(8,7,12)             121.944          estimate D2E/DX2                !
 ! A22   A(7,8,9)              119.5639         estimate D2E/DX2                !
 ! A23   A(7,8,10)             117.3064         estimate D2E/DX2                !
 ! A24   A(9,8,10)             122.9922         estimate D2E/DX2                !
 ! A25   A(6,9,8)              117.3944         estimate D2E/DX2                !
 ! A26   A(6,9,32)             115.0236         estimate D2E/DX2                !
 ! A27   A(8,9,32)             127.5648         estimate D2E/DX2                !
 ! A28   A(8,10,18)            118.042          estimate D2E/DX2                !
 ! A29   A(8,10,23)            124.5436         estimate D2E/DX2                !
 ! A30   A(18,10,23)           117.4097         estimate D2E/DX2                !
 ! A31   A(12,11,18)           115.5202         estimate D2E/DX2                !
 ! A32   A(12,11,22)           122.7205         estimate D2E/DX2                !
 ! A33   A(18,11,22)           121.7534         estimate D2E/DX2                !
 ! A34   A(7,12,11)            120.8614         estimate D2E/DX2                !
 ! A35   A(7,12,13)            121.162          estimate D2E/DX2                !
 ! A36   A(11,12,13)           117.9699         estimate D2E/DX2                !
 ! A37   A(12,13,14)           120.9948         estimate D2E/DX2                !
 ! A38   A(12,13,16)           117.8401         estimate D2E/DX2                !
 ! A39   A(14,13,16)           121.1642         estimate D2E/DX2                !
 ! A40   A(4,14,13)            119.5003         estimate D2E/DX2                !
 ! A41   A(4,14,15)            118.9169         estimate D2E/DX2                !
 ! A42   A(13,14,15)           121.5811         estimate D2E/DX2                !
 ! A43   A(10,18,11)           126.0753         estimate D2E/DX2                !
 ! A44   A(10,18,24)           115.7508         estimate D2E/DX2                !
 ! A45   A(11,18,24)           118.1737         estimate D2E/DX2                !
 ! A46   A(1,19,5)             125.0856         estimate D2E/DX2                !
 ! A47   A(1,19,28)            116.2868         estimate D2E/DX2                !
 ! A48   A(5,19,28)            118.6276         estimate D2E/DX2                !
 ! A49   A(18,24,25)           109.8574         estimate D2E/DX2                !
 ! A50   A(18,24,26)           109.8979         estimate D2E/DX2                !
 ! A51   A(18,24,27)           107.5355         estimate D2E/DX2                !
 ! A52   A(25,24,26)           108.1108         estimate D2E/DX2                !
 ! A53   A(25,24,27)           110.8301         estimate D2E/DX2                !
 ! A54   A(26,24,27)           110.6124         estimate D2E/DX2                !
 ! A55   A(19,28,29)           109.6906         estimate D2E/DX2                !
 ! A56   A(19,28,30)           109.8136         estimate D2E/DX2                !
 ! A57   A(19,28,31)           107.7461         estimate D2E/DX2                !
 ! A58   A(29,28,30)           108.2991         estimate D2E/DX2                !
 ! A59   A(29,28,31)           110.6959         estimate D2E/DX2                !
 ! A60   A(30,28,31)           110.5924         estimate D2E/DX2                !
 ! A61   A(9,32,33)            130.884          estimate D2E/DX2                !
 ! A62   A(9,32,34)            118.7883         estimate D2E/DX2                !
 ! A63   A(33,32,34)           110.0727         estimate D2E/DX2                !
 ! A64   A(32,33,35)           113.599          estimate D2E/DX2                !
 ! A65   A(32,33,36)           122.7817         estimate D2E/DX2                !
 ! A66   A(35,33,36)           123.617          estimate D2E/DX2                !
 ! A67   A(32,34,37)            92.5736         estimate D2E/DX2                !
 ! A68   A(33,35,37)           114.3645         estimate D2E/DX2                !
 ! A69   A(33,35,38)           126.5393         estimate D2E/DX2                !
 ! A70   A(37,35,38)           119.0961         estimate D2E/DX2                !
 ! A71   A(34,37,35)           109.3842         estimate D2E/DX2                !
 ! A72   A(34,37,39)           122.936          estimate D2E/DX2                !
 ! A73   A(35,37,39)           127.6644         estimate D2E/DX2                !
 ! A74   A(35,38,40)           117.5151         estimate D2E/DX2                !
 ! A75   A(37,39,41)           127.6088         estimate D2E/DX2                !
 ! A76   A(37,39,42)           123.0621         estimate D2E/DX2                !
 ! A77   A(41,39,42)           109.3292         estimate D2E/DX2                !
 ! A78   A(38,40,43)           105.97           estimate D2E/DX2                !
 ! A79   A(38,40,44)           111.2142         estimate D2E/DX2                !
 ! A80   A(38,40,45)           111.1401         estimate D2E/DX2                !
 ! A81   A(43,40,44)           109.3457         estimate D2E/DX2                !
 ! A82   A(43,40,45)           109.728          estimate D2E/DX2                !
 ! A83   A(44,40,45)           109.3776         estimate D2E/DX2                !
 ! A84   A(39,41,46)           114.1949         estimate D2E/DX2                !
 ! A85   A(39,41,47)           119.271          estimate D2E/DX2                !
 ! A86   A(46,41,47)           126.5337         estimate D2E/DX2                !
 ! A87   A(39,42,48)            91.7881         estimate D2E/DX2                !
 ! A88   A(41,46,48)           111.8843         estimate D2E/DX2                !
 ! A89   A(41,46,49)           124.5049         estimate D2E/DX2                !
 ! A90   A(48,46,49)           123.6108         estimate D2E/DX2                !
 ! A91   A(41,47,50)           117.9864         estimate D2E/DX2                !
 ! A92   A(42,48,46)           112.8035         estimate D2E/DX2                !
 ! A93   A(42,48,51)           119.7229         estimate D2E/DX2                !
 ! A94   A(46,48,51)           127.4733         estimate D2E/DX2                !
 ! A95   A(47,50,52)           111.3083         estimate D2E/DX2                !
 ! A96   A(47,50,53)           106.049          estimate D2E/DX2                !
 ! A97   A(47,50,54)           111.2492         estimate D2E/DX2                !
 ! A98   A(52,50,53)           109.2854         estimate D2E/DX2                !
 ! A99   A(52,50,54)           109.4178         estimate D2E/DX2                !
 ! A100  A(53,50,54)           109.4557         estimate D2E/DX2                !
 ! D1    D(19,1,2,3)             0.1578         estimate D2E/DX2                !
 ! D2    D(19,1,2,6)          -178.6792         estimate D2E/DX2                !
 ! D3    D(20,1,2,3)          -179.8231         estimate D2E/DX2                !
 ! D4    D(20,1,2,6)             1.3399         estimate D2E/DX2                !
 ! D5    D(2,1,19,5)            -0.124          estimate D2E/DX2                !
 ! D6    D(2,1,19,28)          179.8267         estimate D2E/DX2                !
 ! D7    D(20,1,19,5)          179.8575         estimate D2E/DX2                !
 ! D8    D(20,1,19,28)          -0.1919         estimate D2E/DX2                !
 ! D9    D(1,2,3,4)              0.0571         estimate D2E/DX2                !
 ! D10   D(1,2,3,7)            179.5453         estimate D2E/DX2                !
 ! D11   D(6,2,3,4)            178.8851         estimate D2E/DX2                !
 ! D12   D(6,2,3,7)             -1.6266         estimate D2E/DX2                !
 ! D13   D(1,2,6,9)            178.625          estimate D2E/DX2                !
 ! D14   D(1,2,6,17)             1.3881         estimate D2E/DX2                !
 ! D15   D(3,2,6,9)             -0.2173         estimate D2E/DX2                !
 ! D16   D(3,2,6,17)          -177.4541         estimate D2E/DX2                !
 ! D17   D(2,3,4,5)             -0.3074         estimate D2E/DX2                !
 ! D18   D(2,3,4,14)           179.3968         estimate D2E/DX2                !
 ! D19   D(7,3,4,5)           -179.7837         estimate D2E/DX2                !
 ! D20   D(7,3,4,14)            -0.0795         estimate D2E/DX2                !
 ! D21   D(2,3,7,8)              1.0523         estimate D2E/DX2                !
 ! D22   D(2,3,7,12)          -178.712          estimate D2E/DX2                !
 ! D23   D(4,3,7,8)           -179.4626         estimate D2E/DX2                !
 ! D24   D(4,3,7,12)             0.7731         estimate D2E/DX2                !
 ! D25   D(3,4,5,19)             0.3343         estimate D2E/DX2                !
 ! D26   D(3,4,5,21)          -179.7799         estimate D2E/DX2                !
 ! D27   D(14,4,5,19)         -179.3729         estimate D2E/DX2                !
 ! D28   D(14,4,5,21)            0.5129         estimate D2E/DX2                !
 ! D29   D(3,4,14,13)           -0.4559         estimate D2E/DX2                !
 ! D30   D(3,4,14,15)         -179.9937         estimate D2E/DX2                !
 ! D31   D(5,4,14,13)          179.252          estimate D2E/DX2                !
 ! D32   D(5,4,14,15)           -0.2858         estimate D2E/DX2                !
 ! D33   D(4,5,19,1)            -0.1141         estimate D2E/DX2                !
 ! D34   D(4,5,19,28)          179.9364         estimate D2E/DX2                !
 ! D35   D(21,5,19,1)          179.9992         estimate D2E/DX2                !
 ! D36   D(21,5,19,28)           0.0496         estimate D2E/DX2                !
 ! D37   D(2,6,9,8)              2.5984         estimate D2E/DX2                !
 ! D38   D(2,6,9,32)          -176.0103         estimate D2E/DX2                !
 ! D39   D(17,6,9,8)           179.77           estimate D2E/DX2                !
 ! D40   D(17,6,9,32)            1.1613         estimate D2E/DX2                !
 ! D41   D(3,7,8,9)              1.3551         estimate D2E/DX2                !
 ! D42   D(3,7,8,10)          -174.5099         estimate D2E/DX2                !
 ! D43   D(12,7,8,9)          -178.8921         estimate D2E/DX2                !
 ! D44   D(12,7,8,10)            5.2428         estimate D2E/DX2                !
 ! D45   D(3,7,12,11)          178.0768         estimate D2E/DX2                !
 ! D46   D(3,7,12,13)           -0.9621         estimate D2E/DX2                !
 ! D47   D(8,7,12,11)           -1.685          estimate D2E/DX2                !
 ! D48   D(8,7,12,13)          179.2761         estimate D2E/DX2                !
 ! D49   D(7,8,9,6)             -3.0809         estimate D2E/DX2                !
 ! D50   D(7,8,9,32)           175.3285         estimate D2E/DX2                !
 ! D51   D(10,8,9,6)           172.5381         estimate D2E/DX2                !
 ! D52   D(10,8,9,32)           -9.0525         estimate D2E/DX2                !
 ! D53   D(7,8,10,18)           -4.7549         estimate D2E/DX2                !
 ! D54   D(7,8,10,23)          174.4235         estimate D2E/DX2                !
 ! D55   D(9,8,10,18)          179.5335         estimate D2E/DX2                !
 ! D56   D(9,8,10,23)           -1.2882         estimate D2E/DX2                !
 ! D57   D(6,9,32,33)          158.4508         estimate D2E/DX2                !
 ! D58   D(6,9,32,34)          -15.1121         estimate D2E/DX2                !
 ! D59   D(8,9,32,33)          -19.9908         Frozen                          !
 ! D60   D(8,9,32,34)          166.4464         estimate D2E/DX2                !
 ! D61   D(8,10,18,11)           0.7189         estimate D2E/DX2                !
 ! D62   D(8,10,18,24)        -179.4089         estimate D2E/DX2                !
 ! D63   D(23,10,18,11)       -178.5188         estimate D2E/DX2                !
 ! D64   D(23,10,18,24)          1.3535         estimate D2E/DX2                !
 ! D65   D(18,11,12,7)          -2.3856         estimate D2E/DX2                !
 ! D66   D(18,11,12,13)        176.6833         estimate D2E/DX2                !
 ! D67   D(22,11,12,7)         178.4862         estimate D2E/DX2                !
 ! D68   D(22,11,12,13)         -2.445          estimate D2E/DX2                !
 ! D69   D(12,11,18,10)          2.8444         estimate D2E/DX2                !
 ! D70   D(12,11,18,24)       -177.0251         estimate D2E/DX2                !
 ! D71   D(22,11,18,10)       -178.0181         estimate D2E/DX2                !
 ! D72   D(22,11,18,24)          2.1124         estimate D2E/DX2                !
 ! D73   D(7,12,13,14)           0.461          estimate D2E/DX2                !
 ! D74   D(7,12,13,16)        -179.8781         estimate D2E/DX2                !
 ! D75   D(11,12,13,14)       -178.6049         estimate D2E/DX2                !
 ! D76   D(11,12,13,16)          1.056          estimate D2E/DX2                !
 ! D77   D(12,13,14,4)           0.2708         estimate D2E/DX2                !
 ! D78   D(12,13,14,15)        179.7958         estimate D2E/DX2                !
 ! D79   D(16,13,14,4)        -179.3788         estimate D2E/DX2                !
 ! D80   D(16,13,14,15)          0.1463         estimate D2E/DX2                !
 ! D81   D(10,18,24,25)        -59.609          estimate D2E/DX2                !
 ! D82   D(10,18,24,26)         59.2209         estimate D2E/DX2                !
 ! D83   D(10,18,24,27)        179.6858         estimate D2E/DX2                !
 ! D84   D(11,18,24,25)        120.2739         estimate D2E/DX2                !
 ! D85   D(11,18,24,26)       -120.8962         estimate D2E/DX2                !
 ! D86   D(11,18,24,27)         -0.4313         estimate D2E/DX2                !
 ! D87   D(1,19,28,29)         -58.1407         estimate D2E/DX2                !
 ! D88   D(1,19,28,30)          60.7668         estimate D2E/DX2                !
 ! D89   D(1,19,28,31)        -178.7139         estimate D2E/DX2                !
 ! D90   D(5,19,28,29)         121.8132         estimate D2E/DX2                !
 ! D91   D(5,19,28,30)        -119.2792         estimate D2E/DX2                !
 ! D92   D(5,19,28,31)           1.2401         estimate D2E/DX2                !
 ! D93   D(9,32,33,35)        -174.2094         estimate D2E/DX2                !
 ! D94   D(9,32,33,36)           6.3187         estimate D2E/DX2                !
 ! D95   D(34,32,33,35)         -0.2142         estimate D2E/DX2                !
 ! D96   D(34,32,33,36)       -179.6861         estimate D2E/DX2                !
 ! D97   D(9,32,34,37)         175.3667         estimate D2E/DX2                !
 ! D98   D(33,32,34,37)          0.5444         estimate D2E/DX2                !
 ! D99   D(32,33,35,37)         -0.3545         estimate D2E/DX2                !
 ! D100  D(32,33,35,38)        179.7639         estimate D2E/DX2                !
 ! D101  D(36,33,35,37)        179.1124         estimate D2E/DX2                !
 ! D102  D(36,33,35,38)         -0.7693         estimate D2E/DX2                !
 ! D103  D(32,34,37,35)         -0.7268         estimate D2E/DX2                !
 ! D104  D(32,34,37,39)        177.9452         estimate D2E/DX2                !
 ! D105  D(33,35,37,34)          0.7489         estimate D2E/DX2                !
 ! D106  D(33,35,37,39)       -177.843          estimate D2E/DX2                !
 ! D107  D(38,35,37,34)       -179.3599         estimate D2E/DX2                !
 ! D108  D(38,35,37,39)          2.0481         estimate D2E/DX2                !
 ! D109  D(33,35,38,40)          6.442          estimate D2E/DX2                !
 ! D110  D(37,35,38,40)       -173.4346         estimate D2E/DX2                !
 ! D111  D(34,37,39,41)          2.8663         estimate D2E/DX2                !
 ! D112  D(34,37,39,42)       -177.1791         estimate D2E/DX2                !
 ! D113  D(35,37,39,41)       -178.7164         estimate D2E/DX2                !
 ! D114  D(35,37,39,42)          1.2383         estimate D2E/DX2                !
 ! D115  D(35,38,40,43)        175.4954         estimate D2E/DX2                !
 ! D116  D(35,38,40,44)        -65.7737         estimate D2E/DX2                !
 ! D117  D(35,38,40,45)         56.3455         estimate D2E/DX2                !
 ! D118  D(37,39,41,46)        179.9978         estimate D2E/DX2                !
 ! D119  D(37,39,41,47)         -0.1865         estimate D2E/DX2                !
 ! D120  D(42,39,41,46)          0.0381         estimate D2E/DX2                !
 ! D121  D(42,39,41,47)        179.8538         estimate D2E/DX2                !
 ! D122  D(37,39,42,48)       -179.9959         estimate D2E/DX2                !
 ! D123  D(41,39,42,48)         -0.034          estimate D2E/DX2                !
 ! D124  D(39,41,46,48)         -0.0224         estimate D2E/DX2                !
 ! D125  D(39,41,46,49)        179.9614         estimate D2E/DX2                !
 ! D126  D(47,41,46,48)       -179.8223         estimate D2E/DX2                !
 ! D127  D(47,41,46,49)          0.1615         estimate D2E/DX2                !
 ! D128  D(39,41,47,50)        178.4243         estimate D2E/DX2                !
 ! D129  D(46,41,47,50)         -1.785          estimate D2E/DX2                !
 ! D130  D(39,42,48,46)          0.0226         estimate D2E/DX2                !
 ! D131  D(39,42,48,51)        179.8303         estimate D2E/DX2                !
 ! D132  D(41,46,48,42)         -0.0048         estimate D2E/DX2                !
 ! D133  D(41,46,48,51)       -179.7945         estimate D2E/DX2                !
 ! D134  D(49,46,48,42)       -179.9888         estimate D2E/DX2                !
 ! D135  D(49,46,48,51)          0.2215         estimate D2E/DX2                !
 ! D136  D(41,47,50,52)         62.0413         estimate D2E/DX2                !
 ! D137  D(41,47,50,53)       -179.2019         estimate D2E/DX2                !
 ! D138  D(41,47,50,54)        -60.2725         estimate D2E/DX2                !
 --------------------------------------------------------------------------------
 Trust Radius=3.00D-01 FncErr=1.00D-07 GrdErr=1.00D-06 EigMax=2.50D+02 EigMin=1.00D-04
 Number of steps in this run=    307 maximum allowed number of steps=    324.
 GradGradGradGradGradGradGradGradGradGradGradGradGradGradGradGradGradGrad

 Stoichiometry    C26H18N2O6S2
 Framework group  C1[X(C26H18N2O6S2)]
 Deg. of freedom   156
 Full point group                 C1      NOp   1
 Largest Abelian subgroup         C1      NOp   1
 Largest concise Abelian subgroup C1      NOp   1
                         Standard orientation:                         
 ---------------------------------------------------------------------
 Center     Atomic      Atomic             Coordinates (Angstroms)
 Number     Number       Type             X           Y           Z
 ---------------------------------------------------------------------
      1          6           0        2.494212   -3.030508    0.169545
      2          6           0        2.219826   -1.572392    0.076165
      3          6           0        3.283813   -0.640478    0.055638
      4          6           0        4.623034   -1.084022    0.122499
      5          6           0        4.933294   -2.535128    0.222199
      6          6           0        0.920358   -1.134278    0.033987
      7          6           0        2.975375    0.746462   -0.044623
      8          6           0        1.617737    1.196527   -0.100889
      9          6           0        0.560863    0.248546   -0.026964
     10          6           0        1.388947    2.648951   -0.330938
     11          6           0        3.845310    3.104940   -0.237117
     12          6           0        4.069127    1.650723   -0.090770
     13          6           0        5.379934    1.197300   -0.020026
     14          6           0        5.665275   -0.168918    0.089622
     15          1           0        6.684244   -0.533315    0.142203
     16          1           0        6.173754    1.935074   -0.058153
     17          1           0        0.143169   -1.887022    0.094947
     18          7           0        2.512620    3.497493   -0.375626
     19          7           0        3.838461   -3.416073    0.237864
     20          8           0        1.608270   -3.873687    0.187365
     21          8           0        6.080972   -2.949420    0.285621
     22          8           0        4.761654    3.917474   -0.253637
     23          8           0        0.289265    3.160479   -0.499329
     24          6           0        2.228514    4.920638   -0.591499
     25          1           0        1.705391    5.054474   -1.539544
     26          1           0        1.584884    5.296909    0.207787
     27          1           0        3.178983    5.447042   -0.597008
     28          6           0        4.097028   -4.857080    0.333704
     29          1           0        3.598803   -5.262370    1.216929
     30          1           0        3.698756   -5.363860   -0.547279
     31          1           0        5.172567   -4.996819    0.401442
     32          6           0       -0.875659    0.517215    0.027123
     33          6           0       -1.569301    1.658072    0.380591
     34         16           0       -1.999910   -0.814272   -0.247450
     35          6           0       -2.965858    1.477429    0.427083
     36          1           0       -1.081177    2.596867    0.590757
     37          6           0       -3.391916    0.185197    0.100950
     38          8           0       -3.892975    2.417720    0.747253
     39          6           0       -4.740742   -0.298415    0.016359
     40          6           0       -3.437237    3.754873    0.933579
     41          6           0       -5.163037   -1.591555   -0.284555
     42         16           0       -6.148009    0.724361    0.296422
     43          1           0       -4.331184    4.356034    1.099230
     44          1           0       -2.780398    3.831968    1.808289
     45          1           0       -2.905534    4.118855    0.046012
     46          6           0       -6.577757   -1.756994   -0.291072
     47          8           0       -4.235379   -2.550592   -0.540810
     48          6           0       -7.229077   -0.590513    0.005140
     49          1           0       -7.084649   -2.688306   -0.503641
     50          6           0       -4.695685   -3.869451   -0.811363
     51          1           0       -8.296772   -0.431683    0.071697
     52          1           0       -5.319191   -3.896873   -1.713921
     53          1           0       -3.803016   -4.472949   -0.972229
     54          1           0       -5.262216   -4.274023    0.035368
 ---------------------------------------------------------------------
 Rotational constants (GHZ):           0.1528230           0.0602113           0.0437569
 Standard basis: 6-311+G(d,p) (5D, 7F)
 There are   952 symmetry adapted cartesian basis functions of A   symmetry.
 There are   916 symmetry adapted basis functions of A   symmetry.
   916 basis functions,  1468 primitive gaussians,   952 cartesian basis functions
   134 alpha electrons      134 beta electrons
       nuclear repulsion energy      4089.0190627528 Hartrees.
 NAtoms=   54 NActive=   54 NUniq=   54 SFac= 1.00D+00 NAtFMM=   60 NAOKFM=F Big=F
 Integral buffers will be    131072 words long.
 Raffenetti 2 integral format.
 Two-electron integral symmetry is turned on.
 ------------------------------------------------------------------------------
 Polarizable Continuum Model (PCM)
 =================================
 Model                : PCM.
 Atomic radii         : UFF (Universal Force Field).
 Polarization charges : Total charges.
 Charge compensation  : None.
 Solution method      : On-the-fly selection.
 Cavity type          : Scaled VdW (van der Waals Surface) (Alpha=1.100).
 Cavity algorithm     : GePol (No added spheres)
                        Default sphere list used, NSphG=   54.
                        Lebedev-Laikov grids with approx.  5.0 points / Ang**2.
                        Smoothing algorithm: York/Karplus (Gamma=1.0000).
                        Polarization charges: spherical gaussians, with
                                              point-specific exponents (IZeta= 3).
                        Self-potential: point-specific (ISelfS= 7).
                        Self-field    : sphere-specific E.n sum rule (ISelfD= 2).
 1st derivatives      : Analytical E(r).r(x)/FMM algorithm (CHGder, D1EAlg=3).
                        Cavity 1st derivative terms included.
 Solvent              : Water, Eps=  78.355300 Eps(inf)=   1.777849
 ------------------------------------------------------------------------------
 One-electron integrals computed using PRISM.
 NBasis=   916 RedAO= T EigKep=  1.48D-06  NBF=   916
 NBsUse=   901 1.00D-06 EigRej=  8.61D-07 NBFU=   901
 ExpMin= 4.05D-02 ExpMax= 9.34D+04 ExpMxC= 3.17D+03 IAcc=3 IRadAn=         5 AccDes= 0.00D+00
 Harris functional with IExCor=  402 and IRadAn=       5 diagonalized for initial guess.
 HarFok:  IExCor=  402 AccDes= 0.00D+00 IRadAn=         5 IDoV= 1 UseB2=F ITyADJ=14
 ICtDFT=  3500011 ScaDFX=  1.000000  1.000000  1.000000  1.000000
 FoFCou: FMM=F IPFlag=           0 FMFlag=      100000 FMFlg1=           0
         NFxFlg=           0 DoJE=T BraDBF=F KetDBF=T FulRan=T
         wScrn=  0.000000 ICntrl=       500 IOpCl=  0 I1Cent=   200000004 NGrid=           0
         NMat0=    1 NMatS0=      1 NMatT0=    0 NMatD0=    1 NMtDS0=    0 NMtDT0=    0
 Petite list used in FoFCou.
 Requested convergence on RMS density matrix=1.00D-08 within 128 cycles.
 Requested convergence on MAX density matrix=1.00D-06.
 Requested convergence on             energy=1.00D-06.
 No special actions if energy rises.
 Inv3:  Mode=1 IEnd=    52894803.
 Iteration    1 A*A^-1 deviation from unit magnitude is 7.55D-15 for   4181.
 Iteration    1 A*A^-1 deviation from orthogonality  is 6.18D-15 for   4186   3284.
 Iteration    1 A^-1*A deviation from unit magnitude is 7.33D-15 for   4181.
 Iteration    1 A^-1*A deviation from orthogonality  is 7.33D-15 for   4175   1597.
 Error on total polarization charges =  0.02315
 SCF Done:  E(RB3LYP) =  -2359.35256787     A.U. after   17 cycles
            NFock= 17  Conv=0.25D-08     -V/T= 2.0032

 **********************************************************************

            Population analysis using the SCF Density.

 **********************************************************************

 Orbital symmetries:
       Occupied  (A) (A) (A) (A) (A) (A) (A) (A) (A) (A) (A) (A)
                 (A) (A) (A) (A) (A) (A) (A) (A) (A) (A) (A) (A)
                 (A) (A) (A) (A) (A) (A) (A) (A) (A) (A) (A) (A)
                 (A) (A) (A) (A) (A) (A) (A) (A) (A) (A) (A) (A)
                 (A) (A) (A) (A) (A) (A) (A) (A) (A) (A) (A) (A)
                 (A) (A) (A) (A) (A) (A) (A) (A) (A) (A) (A) (A)
                 (A) (A) (A) (A) (A) (A) (A) (A) (A) (A) (A) (A)
                 (A) (A) (A) (A) (A) (A) (A) (A) (A) (A) (A) (A)
                 (A) (A) (A) (A) (A) (A) (A) (A) (A) (A) (A) (A)
                 (A) (A) (A) (A) (A) (A) (A) (A) (A) (A) (A) (A)
                 (A) (A) (A) (A) (A) (A) (A) (A) (A) (A) (A) (A)
                 (A) (A)
       Virtual   (A) (A) (A) (A) (A) (A) (A) (A) (A) (A) (A) (A)
                 (A) (A) (A) (A) (A) (A) (A) (A) (A) (A) (A) (A)
                 (A) (A) (A) (A) (A) (A) (A) (A) (A) (A) (A) (A)
                 (A) (A) (A) (A) (A) (A) (A) (A) (A) (A) (A) (A)
                 (A) (A) (A) (A) (A) (A) (A) (A) (A) (A) (A) (A)
                 (A) (A) (A) (A) (A) (A) (A) (A) (A) (A) (A) (A)
                 (A) (A) (A) (A) (A) (A) (A) (A) (A) (A) (A) (A)
                 (A) (A) (A) (A) (A) (A) (A) (A) (A) (A) (A) (A)
                 (A) (A) (A) (A) (A) (A) (A) (A) (A) (A) (A) (A)
                 (A) (A) (A) (A) (A) (A) (A) (A) (A) (A) (A) (A)
                 (A) (A) (A) (A) (A) (A) (A) (A) (A) (A) (A) (A)
                 (A) (A) (A) (A) (A) (A) (A) (A) (A) (A) (A) (A)
                 (A) (A) (A) (A) (A) (A) (A) (A) (A) (A) (A) (A)
                 (A) (A) (A) (A) (A) (A) (A) (A) (A) (A) (A) (A)
                 (A) (A) (A) (A) (A) (A) (A) (A) (A) (A) (A) (A)
                 (A) (A) (A) (A) (A) (A) (A) (A) (A) (A) (A) (A)
                 (A) (A) (A) (A) (A) (A) (A) (A) (A) (A) (A) (A)
                 (A) (A) (A) (A) (A) (A) (A) (A) (A) (A) (A) (A)
                 (A) (A) (A) (A) (A) (A) (A) (A) (A) (A) (A) (A)
                 (A) (A) (A) (A) (A) (A) (A) (A) (A) (A) (A) (A)
                 (A) (A) (A) (A) (A) (A) (A) (A) (A) (A) (A) (A)
                 (A) (A) (A) (A) (A) (A) (A) (A) (A) (A) (A) (A)
                 (A) (A) (A) (A) (A) (A) (A) (A) (A) (A) (A) (A)
                 (A) (A) (A) (A) (A) (A) (A) (A) (A) (A) (A) (A)
                 (A) (A) (A) (A) (A) (A) (A) (A) (A) (A) (A) (A)
                 (A) (A) (A) (A) (A) (A) (A) (A) (A) (A) (A) (A)
                 (A) (A) (A) (A) (A) (A) (A) (A) (A) (A) (A) (A)
                 (A) (A) (A) (A) (A) (A) (A) (A) (A) (A) (A) (A)
                 (A) (A) (A) (A) (A) (A) (A) (A) (A) (A) (A) (A)
                 (A) (A) (A) (A) (A) (A) (A) (A) (A) (A) (A) (A)
                 (A) (A) (A) (A) (A) (A) (A) (A) (A) (A) (A) (A)
                 (A) (A) (A) (A) (A) (A) (A) (A) (A) (A) (A) (A)
                 (A) (A) (A) (A) (A) (A) (A) (A) (A) (A) (A) (A)
                 (A) (A) (A) (A) (A) (A) (A) (A) (A) (A) (A) (A)
                 (A) (A) (A) (A) (A) (A) (A) (A) (A) (A) (A) (A)
                 (A) (A) (A) (A) (A) (A) (A) (A) (A) (A) (A) (A)
                 (A) (A) (A) (A) (A) (A) (A) (A) (A) (A) (A) (A)
                 (A) (A) (A) (A) (A) (A) (A) (A) (A) (A) (A) (A)
                 (A) (A) (A) (A) (A) (A) (A) (A) (A) (A) (A) (A)
                 (A) (A) (A) (A) (A) (A) (A) (A) (A) (A) (A) (A)
                 (A) (A) (A) (A) (A) (A) (A) (A) (A) (A) (A) (A)
                 (A) (A) (A) (A) (A) (A) (A) (A) (A) (A) (A) (A)
                 (A) (A) (A) (A) (A) (A) (A) (A) (A) (A) (A) (A)
                 (A) (A) (A) (A) (A) (A) (A) (A) (A) (A) (A) (A)
                 (A) (A) (A) (A) (A) (A) (A) (A) (A) (A) (A) (A)
                 (A) (A) (A) (A) (A) (A) (A) (A) (A) (A) (A) (A)
                 (A) (A) (A) (A) (A) (A) (A) (A) (A) (A) (A) (A)
                 (A) (A) (A) (A) (A) (A) (A) (A) (A) (A) (A) (A)
                 (A) (A) (A) (A) (A) (A) (A) (A) (A) (A) (A) (A)
                 (A) (A) (A) (A) (A) (A) (A) (A) (A) (A) (A) (A)
                 (A) (A) (A) (A) (A) (A) (A) (A) (A) (A) (A) (A)
                 (A) (A) (A) (A) (A) (A) (A) (A) (A) (A) (A) (A)
                 (A) (A) (A) (A) (A) (A) (A) (A) (A) (A) (A) (A)
                 (A) (A) (A) (A) (A) (A) (A) (A) (A) (A) (A) (A)
                 (A) (A) (A) (A) (A) (A) (A) (A) (A) (A) (A) (A)
                 (A) (A) (A) (A) (A) (A) (A) (A) (A) (A) (A) (A)
                 (A) (A) (A) (A) (A) (A) (A) (A) (A) (A) (A) (A)
                 (A) (A) (A) (A) (A) (A) (A) (A) (A) (A) (A) (A)
                 (A) (A) (A) (A) (A) (A) (A) (A) (A) (A) (A) (A)
                 (A) (A) (A) (A) (A) (A) (A) (A) (A) (A) (A) (A)
                 (A) (A) (A) (A) (A) (A) (A) (A) (A) (A) (A) (A)
                 (A) (A) (A) (A) (A) (A) (A) (A) (A) (A) (A) (A)
                 (A) (A) (A) (A) (A) (A) (A) (A) (A) (A) (A) (A)
                 (A) (A) (A) (A) (A) (A) (A) (A) (A) (A) (A)
 The electronic state is 1-A.
 Alpha  occ. eigenvalues --  -88.88932 -88.88841 -19.17395 -19.17082 -19.12981
 Alpha  occ. eigenvalues --  -19.12979 -19.12235 -19.12063 -14.38879 -14.38342
 Alpha  occ. eigenvalues --  -10.31531 -10.31413 -10.31031 -10.30750 -10.25377
 Alpha  occ. eigenvalues --  -10.24969 -10.24101 -10.23229 -10.22926 -10.22838
 Alpha  occ. eigenvalues --  -10.22798 -10.22562 -10.22520 -10.22366 -10.22268
 Alpha  occ. eigenvalues --  -10.22244 -10.22158 -10.21831 -10.21604 -10.21339
 Alpha  occ. eigenvalues --  -10.20908 -10.20896 -10.20799 -10.20575 -10.19093
 Alpha  occ. eigenvalues --  -10.18651  -7.97514  -7.97395  -5.93834  -5.93705
 Alpha  occ. eigenvalues --   -5.93444  -5.93317  -5.93054  -5.92963  -1.08908
 Alpha  occ. eigenvalues --   -1.08889  -1.08624  -1.08498  -1.07140  -1.06624
 Alpha  occ. eigenvalues --   -0.96453  -0.95857  -0.92237  -0.90719  -0.89065
 Alpha  occ. eigenvalues --   -0.86562  -0.84080  -0.80558  -0.78399  -0.77859
 Alpha  occ. eigenvalues --   -0.76430  -0.75417  -0.75105  -0.73409  -0.72319
 Alpha  occ. eigenvalues --   -0.71829  -0.70178  -0.68854  -0.67335  -0.65736
 Alpha  occ. eigenvalues --   -0.65622  -0.64748  -0.61350  -0.59944  -0.58679
 Alpha  occ. eigenvalues --   -0.57356  -0.56740  -0.56332  -0.55373  -0.54958
 Alpha  occ. eigenvalues --   -0.53392  -0.51745  -0.50752  -0.50090  -0.49869
 Alpha  occ. eigenvalues --   -0.49485  -0.49069  -0.48522  -0.48438  -0.48088
 Alpha  occ. eigenvalues --   -0.48006  -0.47510  -0.46824  -0.46492  -0.46113
 Alpha  occ. eigenvalues --   -0.45450  -0.45400  -0.44652  -0.44028  -0.43236
 Alpha  occ. eigenvalues --   -0.42972  -0.42920  -0.42350  -0.42193  -0.41802
 Alpha  occ. eigenvalues --   -0.41697  -0.41169  -0.41111  -0.40558  -0.39986
 Alpha  occ. eigenvalues --   -0.39583  -0.39184  -0.38794  -0.37945  -0.37386
 Alpha  occ. eigenvalues --   -0.36379  -0.36252  -0.34449  -0.34174  -0.33711
 Alpha  occ. eigenvalues --   -0.33603  -0.32113  -0.31492  -0.30804  -0.30221
 Alpha  occ. eigenvalues --   -0.29677  -0.29386  -0.28986  -0.28474  -0.27386
 Alpha  occ. eigenvalues --   -0.26309  -0.25086  -0.25038  -0.19879
 Alpha virt. eigenvalues --   -0.13200  -0.08055  -0.06654  -0.04840  -0.03623
 Alpha virt. eigenvalues --   -0.00640  -0.00514   0.00158   0.00333   0.00514
 Alpha virt. eigenvalues --    0.00800   0.01225   0.01453   0.01566   0.01989
 Alpha virt. eigenvalues --    0.02194   0.02699   0.02809   0.02945   0.03329
 Alpha virt. eigenvalues --    0.03592   0.03851   0.03944   0.04327   0.04623
 Alpha virt. eigenvalues --    0.04814   0.04943   0.05309   0.05658   0.05955
 Alpha virt. eigenvalues --    0.06201   0.06260   0.06678   0.06949   0.07293
 Alpha virt. eigenvalues --    0.07352   0.07687   0.07805   0.07851   0.08319
 Alpha virt. eigenvalues --    0.08566   0.08671   0.08839   0.09336   0.09606
 Alpha virt. eigenvalues --    0.09750   0.09884   0.10059   0.10423   0.10708
 Alpha virt. eigenvalues --    0.10927   0.11272   0.11530   0.11868   0.12153
 Alpha virt. eigenvalues --    0.12367   0.12845   0.13121   0.13498   0.13550
 Alpha virt. eigenvalues --    0.13628   0.13752   0.13973   0.14189   0.14266
 Alpha virt. eigenvalues --    0.14611   0.14942   0.15239   0.15337   0.15461
 Alpha virt. eigenvalues --    0.15593   0.15800   0.15929   0.16356   0.16508
 Alpha virt. eigenvalues --    0.16677   0.16974   0.17341   0.17508   0.17839
 Alpha virt. eigenvalues --    0.17893   0.18170   0.18368   0.18563   0.18660
 Alpha virt. eigenvalues --    0.18869   0.19097   0.19532   0.19580   0.19743
 Alpha virt. eigenvalues --    0.20051   0.20138   0.20227   0.20289   0.20540
 Alpha virt. eigenvalues --    0.20656   0.20806   0.21205   0.21481   0.21687
 Alpha virt. eigenvalues --    0.21848   0.21980   0.22094   0.22520   0.22563
 Alpha virt. eigenvalues --    0.22646   0.23125   0.23182   0.23557   0.23613
 Alpha virt. eigenvalues --    0.23766   0.23889   0.24260   0.24358   0.24383
 Alpha virt. eigenvalues --    0.24603   0.24741   0.24880   0.25356   0.25567
 Alpha virt. eigenvalues --    0.25650   0.25862   0.25998   0.26211   0.26460
 Alpha virt. eigenvalues --    0.26513   0.26725   0.26918   0.27067   0.27268
 Alpha virt. eigenvalues --    0.27434   0.27637   0.27751   0.28431   0.28477
 Alpha virt. eigenvalues --    0.28589   0.28755   0.28834   0.29023   0.29266
 Alpha virt. eigenvalues --    0.29336   0.29513   0.30007   0.30254   0.30284
 Alpha virt. eigenvalues --    0.31105   0.31223   0.31570   0.31873   0.32033
 Alpha virt. eigenvalues --    0.32207   0.32394   0.32721   0.32859   0.33371
 Alpha virt. eigenvalues --    0.33602   0.33803   0.33972   0.34221   0.34601
 Alpha virt. eigenvalues --    0.34896   0.35116   0.35267   0.35562   0.36096
 Alpha virt. eigenvalues --    0.36751   0.36986   0.37305   0.37480   0.37845
 Alpha virt. eigenvalues --    0.38018   0.38434   0.38794   0.39193   0.39274
 Alpha virt. eigenvalues --    0.40184   0.40443   0.40752   0.41184   0.41757
 Alpha virt. eigenvalues --    0.42339   0.42605   0.42892   0.43356   0.43494
 Alpha virt. eigenvalues --    0.43765   0.43854   0.44786   0.44862   0.45567
 Alpha virt. eigenvalues --    0.45736   0.46078   0.46453   0.46809   0.47135
 Alpha virt. eigenvalues --    0.47551   0.47745   0.48647   0.49014   0.49418
 Alpha virt. eigenvalues --    0.49558   0.50051   0.50481   0.50862   0.51421
 Alpha virt. eigenvalues --    0.51757   0.52411   0.52985   0.53570   0.53622
 Alpha virt. eigenvalues --    0.54178   0.54746   0.55069   0.55348   0.55757
 Alpha virt. eigenvalues --    0.56356   0.56509   0.56773   0.56856   0.57278
 Alpha virt. eigenvalues --    0.57950   0.58145   0.58587   0.59107   0.59615
 Alpha virt. eigenvalues --    0.59687   0.60186   0.60764   0.60955   0.61191
 Alpha virt. eigenvalues --    0.61467   0.61677   0.62177   0.62621   0.63331
 Alpha virt. eigenvalues --    0.63502   0.64040   0.64513   0.64746   0.64887
 Alpha virt. eigenvalues --    0.65229   0.65497   0.65725   0.65888   0.66069
 Alpha virt. eigenvalues --    0.66548   0.66927   0.67570   0.67683   0.68490
 Alpha virt. eigenvalues --    0.68773   0.69212   0.69607   0.69895   0.70254
 Alpha virt. eigenvalues --    0.70500   0.71379   0.71733   0.72160   0.72248
 Alpha virt. eigenvalues --    0.72623   0.73277   0.73515   0.73829   0.74187
 Alpha virt. eigenvalues --    0.74692   0.74731   0.75095   0.75454   0.75709
 Alpha virt. eigenvalues --    0.76190   0.76356   0.76768   0.77304   0.77726
 Alpha virt. eigenvalues --    0.77851   0.78338   0.78592   0.79120   0.79637
 Alpha virt. eigenvalues --    0.80136   0.80536   0.81172   0.82458   0.82761
 Alpha virt. eigenvalues --    0.83482   0.84050   0.84435   0.85356   0.85705
 Alpha virt. eigenvalues --    0.86501   0.87426   0.87691   0.88653   0.88908
 Alpha virt. eigenvalues --    0.88997   0.89359   0.90675   0.91009   0.91264
 Alpha virt. eigenvalues --    0.91602   0.92521   0.92667   0.92994   0.93341
 Alpha virt. eigenvalues --    0.93541   0.93799   0.94432   0.94886   0.95176
 Alpha virt. eigenvalues --    0.95629   0.95951   0.96423   0.96769   0.97091
 Alpha virt. eigenvalues --    0.97644   0.98084   0.99045   0.99786   1.00462
 Alpha virt. eigenvalues --    1.00977   1.01387   1.01574   1.01622   1.02169
 Alpha virt. eigenvalues --    1.02621   1.03447   1.03692   1.04257   1.04455
 Alpha virt. eigenvalues --    1.04835   1.05078   1.05601   1.06240   1.06380
 Alpha virt. eigenvalues --    1.06904   1.07031   1.07434   1.07814   1.08286
 Alpha virt. eigenvalues --    1.08701   1.09285   1.09567   1.09652   1.10482
 Alpha virt. eigenvalues --    1.11684   1.11786   1.13068   1.14561   1.14814
 Alpha virt. eigenvalues --    1.15061   1.15461   1.16307   1.17270   1.17431
 Alpha virt. eigenvalues --    1.17725   1.18659   1.19155   1.20359   1.21032
 Alpha virt. eigenvalues --    1.21512   1.22034   1.22841   1.24239   1.24690
 Alpha virt. eigenvalues --    1.25074   1.25551   1.26110   1.26408   1.27348
 Alpha virt. eigenvalues --    1.28655   1.29004   1.29601   1.30371   1.31121
 Alpha virt. eigenvalues --    1.31351   1.32644   1.32879   1.33953   1.34626
 Alpha virt. eigenvalues --    1.35036   1.35895   1.37492   1.38081   1.39032
 Alpha virt. eigenvalues --    1.40096   1.41271   1.42083   1.42293   1.42735
 Alpha virt. eigenvalues --    1.43274   1.43314   1.43715   1.44162   1.44518
 Alpha virt. eigenvalues --    1.44901   1.45481   1.45838   1.45986   1.46187
 Alpha virt. eigenvalues --    1.46911   1.47487   1.47626   1.48795   1.48820
 Alpha virt. eigenvalues --    1.49470   1.50813   1.51414   1.51765   1.52629
 Alpha virt. eigenvalues --    1.53596   1.54120   1.54163   1.55044   1.55118
 Alpha virt. eigenvalues --    1.55434   1.55830   1.55871   1.56529   1.56931
 Alpha virt. eigenvalues --    1.57360   1.58618   1.60020   1.60679   1.61536
 Alpha virt. eigenvalues --    1.62419   1.62901   1.63419   1.63740   1.64071
 Alpha virt. eigenvalues --    1.65040   1.66045   1.66533   1.67309   1.67595
 Alpha virt. eigenvalues --    1.68065   1.68989   1.69317   1.69554   1.69856
 Alpha virt. eigenvalues --    1.70216   1.70833   1.71344   1.71647   1.71751
 Alpha virt. eigenvalues --    1.72770   1.73554   1.74115   1.75163   1.75643
 Alpha virt. eigenvalues --    1.76073   1.77052   1.77689   1.78319   1.78903
 Alpha virt. eigenvalues --    1.79107   1.79301   1.79987   1.81205   1.82023
 Alpha virt. eigenvalues --    1.84004   1.84776   1.85035   1.85340   1.86330
 Alpha virt. eigenvalues --    1.86463   1.86947   1.87343   1.88259   1.88553
 Alpha virt. eigenvalues --    1.89335   1.89857   1.90432   1.91075   1.92174
 Alpha virt. eigenvalues --    1.92351   1.93178   1.93674   1.94554   1.95185
 Alpha virt. eigenvalues --    1.96076   1.96876   1.97251   1.98422   1.99054
 Alpha virt. eigenvalues --    1.99503   2.00197   2.01244   2.02007   2.02168
 Alpha virt. eigenvalues --    2.02996   2.03190   2.04148   2.04725   2.04867
 Alpha virt. eigenvalues --    2.05821   2.06302   2.06808   2.07553   2.08028
 Alpha virt. eigenvalues --    2.08816   2.09623   2.10593   2.11141   2.12292
 Alpha virt. eigenvalues --    2.12581   2.13752   2.14117   2.15027   2.15110
 Alpha virt. eigenvalues --    2.16254   2.16516   2.18492   2.18936   2.19043
 Alpha virt. eigenvalues --    2.20022   2.20665   2.21231   2.22366   2.23071
 Alpha virt. eigenvalues --    2.24492   2.25667   2.26407   2.26824   2.29194
 Alpha virt. eigenvalues --    2.31390   2.32639   2.33426   2.35198   2.37099
 Alpha virt. eigenvalues --    2.38116   2.39298   2.40008   2.41879   2.42796
 Alpha virt. eigenvalues --    2.43680   2.43990   2.44389   2.45045   2.46472
 Alpha virt. eigenvalues --    2.46937   2.47506   2.48247   2.49340   2.49705
 Alpha virt. eigenvalues --    2.50277   2.51584   2.52518   2.52694   2.53181
 Alpha virt. eigenvalues --    2.53422   2.53822   2.54391   2.55043   2.56236
 Alpha virt. eigenvalues --    2.57022   2.57730   2.58564   2.59057   2.60578
 Alpha virt. eigenvalues --    2.62758   2.63328   2.63927   2.64930   2.66770
 Alpha virt. eigenvalues --    2.66941   2.67218   2.67788   2.68298   2.68588
 Alpha virt. eigenvalues --    2.69413   2.69960   2.70235   2.70921   2.71361
 Alpha virt. eigenvalues --    2.71953   2.72984   2.73844   2.74543   2.75573
 Alpha virt. eigenvalues --    2.75857   2.76430   2.77589   2.78698   2.80863
 Alpha virt. eigenvalues --    2.81222   2.82012   2.82666   2.83900   2.84128
 Alpha virt. eigenvalues --    2.84314   2.84445   2.85326   2.85640   2.86207
 Alpha virt. eigenvalues --    2.87942   2.88110   2.88557   2.88991   2.89868
 Alpha virt. eigenvalues --    2.90931   2.91820   2.92383   2.92861   2.93983
 Alpha virt. eigenvalues --    2.94450   2.95105   2.95974   2.97273   2.99780
 Alpha virt. eigenvalues --    3.01463   3.03167   3.03912   3.04179   3.04809
 Alpha virt. eigenvalues --    3.06092   3.06643   3.08883   3.09070   3.11566
 Alpha virt. eigenvalues --    3.12429   3.13462   3.14172   3.14828   3.15394
 Alpha virt. eigenvalues --    3.16139   3.18058   3.18374   3.20399   3.21494
 Alpha virt. eigenvalues --    3.22996   3.23477   3.23818   3.25068   3.26167
 Alpha virt. eigenvalues --    3.28306   3.28841   3.30389   3.31839   3.33202
 Alpha virt. eigenvalues --    3.33732   3.34134   3.34835   3.35309   3.37225
 Alpha virt. eigenvalues --    3.38632   3.39689   3.40954   3.42064   3.43827
 Alpha virt. eigenvalues --    3.44163   3.45355   3.45821   3.48436   3.48761
 Alpha virt. eigenvalues --    3.51299   3.53275   3.55553   3.57505   3.59344
 Alpha virt. eigenvalues --    3.60166   3.61838   3.64892   3.66097   3.66663
 Alpha virt. eigenvalues --    3.69544   3.69900   3.72214   3.72911   3.75640
 Alpha virt. eigenvalues --    3.76864   3.77160   3.80809   3.82981   3.84840
 Alpha virt. eigenvalues --    3.85374   3.86263   3.89777   3.91086   3.92710
 Alpha virt. eigenvalues --    3.93090   3.94470   3.96689   4.01279   4.02719
 Alpha virt. eigenvalues --    4.04346   4.08172   4.10341   4.12706   4.14150
 Alpha virt. eigenvalues --    4.19887   4.23608   4.25038   4.27337   4.35111
 Alpha virt. eigenvalues --    4.40011   4.40545   4.53079   4.71245   4.84371
 Alpha virt. eigenvalues --    4.86595   4.87397   4.90376   5.00941   5.02401
 Alpha virt. eigenvalues --    5.03144   5.04686   5.05270   5.09065   5.10960
 Alpha virt. eigenvalues --    5.12884   5.24336   5.26346   5.28809   5.32889
 Alpha virt. eigenvalues --    5.41987   5.43233   5.75081   5.76487   5.79473
 Alpha virt. eigenvalues --    5.80192   5.81452   5.84603   8.02028   8.04512
 Alpha virt. eigenvalues --   17.28489  17.30481  17.49189  17.51987  17.57626
 Alpha virt. eigenvalues --   17.63206  23.48604  23.56254  23.71113  23.78154
 Alpha virt. eigenvalues --   23.81679  23.82139  23.83583  23.86219  23.86397
 Alpha virt. eigenvalues --   23.87910  23.88651  23.90839  23.91719  23.92915
 Alpha virt. eigenvalues --   23.94731  23.95275  23.96145  23.98244  24.00623
 Alpha virt. eigenvalues --   24.00653  24.02016  24.05129  24.12049  24.13175
 Alpha virt. eigenvalues --   24.14128  24.14182  35.55860  35.58762  49.95841
 Alpha virt. eigenvalues --   49.97582  50.01468  50.03477  50.05194  50.06934
 Alpha virt. eigenvalues --  189.19356 189.22493
          Condensed to atoms (all electrons):
 Mulliken charges:
               1
     1  C    0.326599
     2  C    0.006806
     3  C    0.184177
     4  C    0.194513
     5  C    0.315469
     6  C    0.059064
     7  C    0.218372
     8  C    0.369822
     9  C    0.241440
    10  C   -0.395419
    11  C    0.302181
    12  C    0.117634
    13  C   -0.516008
    14  C   -0.668117
    15  H    0.164411
    16  H    0.166034
    17  H    0.164411
    18  N   -0.119595
    19  N   -0.103694
    20  O   -0.348404
    21  O   -0.330218
    22  O   -0.347639
    23  O   -0.283159
    24  C   -0.195790
    25  H    0.185008
    26  H    0.183943
    27  H    0.179225
    28  C   -0.213412
    29  H    0.181441
    30  H    0.183459
    31  H    0.180153
    32  C   -0.004647
    33  C   -0.299892
    34  S   -0.681041
    35  C   -0.333198
    36  H    0.175609
    37  C    0.576336
    38  O   -0.151519
    39  C    0.798657
    40  C   -0.255739
    41  C   -0.003030
    42  S   -0.232766
    43  H    0.176635
    44  H    0.161943
    45  H    0.166607
    46  C   -0.620448
    47  O   -0.146488
    48  C   -0.333217
    49  H    0.165265
    50  C   -0.255861
    51  H    0.194114
    52  H    0.161959
    53  H    0.175630
    54  H    0.162384
 Sum of Mulliken charges =  -0.00000
 Mulliken charges with hydrogens summed into heavy atoms:
               1
     1  C    0.326599
     2  C    0.006806
     3  C    0.184177
     4  C    0.194513
     5  C    0.315469
     6  C    0.223475
     7  C    0.218372
     8  C    0.369822
     9  C    0.241440
    10  C   -0.395419
    11  C    0.302181
    12  C    0.117634
    13  C   -0.349975
    14  C   -0.503706
    18  N   -0.119595
    19  N   -0.103694
    20  O   -0.348404
    21  O   -0.330218
    22  O   -0.347639
    23  O   -0.283159
    24  C    0.352387
    28  C    0.331641
    32  C   -0.004647
    33  C   -0.124283
    34  S   -0.681041
    35  C   -0.333198
    37  C    0.576336
    38  O   -0.151519
    39  C    0.798657
    40  C    0.249446
    41  C   -0.003030
    42  S   -0.232766
    46  C   -0.455183
    47  O   -0.146488
    48  C   -0.139103
    50  C    0.244112
 Electronic spatial extent (au):  <R**2>=          22445.9690
 Charge=              0.0000 electrons
 Dipole moment (field-independent basis, Debye):
    X=             -6.5431    Y=             -0.9502    Z=              0.2727  Tot=              6.6174
 Quadrupole moment (field-independent basis, Debye-Ang):
   XX=           -212.8571   YY=           -207.9212   ZZ=           -222.1821
   XY=              7.4342   XZ=              1.6694   YZ=              8.4686
 Traceless Quadrupole moment (field-independent basis, Debye-Ang):
   XX=              1.4630   YY=              6.3989   ZZ=             -7.8619
   XY=              7.4342   XZ=              1.6694   YZ=              8.4686
 Octapole moment (field-independent basis, Debye-Ang**2):
  XXX=           -518.8413  YYY=            -23.7823  ZZZ=             -1.4025  XYY=           -179.8050
  XXY=           -122.0306  XXZ=            -23.4716  XZZ=             11.0442  YZZ=             -0.7997
  YYZ=              0.9650  XYZ=            -27.0386
 Hexadecapole moment (field-independent basis, Debye-Ang**3):
 XXXX=         -20427.0459 YYYY=          -7863.3891 ZZZZ=           -448.0783 XXXY=            780.9920
 XXXZ=             72.6219 YYYX=           -242.3726 YYYZ=            108.8758 ZZZX=              4.2330
 ZZZY=              0.8630 XXYY=          -4978.8112 XXZZ=          -3770.6503 YYZZ=          -1428.2443
 XXYZ=            180.6087 YYXZ=             28.0032 ZZXY=            -15.5304
 N-N= 4.089019062753D+03 E-N=-1.371814675411D+04  KE= 2.351899266815D+03
 D1PCM: PCM CHGder 1st derivatives, ID1Alg=3 FixD1E=F DoIter=F DoCFld=F I1PDM=0.
 Calling FoFJK, ICntrl=      2127 FMM=F ISym2X=0 I1Cent= 0 IOpClX= 0 NMat=1 NMatS=1 NMatT=0.
 ***** Axes restored to original set *****
 -------------------------------------------------------------------
 Center     Atomic                   Forces (Hartrees/Bohr)
 Number     Number              X              Y              Z
 -------------------------------------------------------------------
      1        6          -0.001693554   -0.000024315    0.000135468
      2        6           0.004223882   -0.000010636   -0.000084091
      3        6          -0.002078269    0.000131885   -0.000187876
      4        6           0.001868252    0.001055260    0.000248540
      5        6           0.002107208    0.000626924    0.000177580
      6        6          -0.004841412   -0.000287122   -0.001471545
      7        6          -0.000202801   -0.000034298    0.000206370
      8        6          -0.000424497    0.003378347    0.002483965
      9        6           0.006557748    0.000096850   -0.000227885
     10        6          -0.006190444   -0.003033851   -0.000293943
     11        6           0.003717405   -0.002055581   -0.000480536
     12        6           0.000749591    0.000747658    0.000362926
     13        6          -0.000906031   -0.001624932   -0.000308367
     14        6           0.000262548    0.001294476    0.000217138
     15        1           0.000623765    0.001812461    0.000204502
     16        1           0.000125623   -0.002170218   -0.000331085
     17        1          -0.001985457    0.000777996    0.000596035
     18        7          -0.001948234   -0.001896919   -0.000580499
     19        7           0.001186935    0.001822705    0.000114581
     20        8          -0.002710903    0.002492489    0.000338605
     21        8           0.002748620    0.000009168   -0.000077187
     22        8           0.001306674   -0.000569832   -0.000089066
     23        8          -0.013079473    0.004852344    0.008467136
     24        6           0.001549675    0.002489540   -0.000632208
     25        1          -0.001383458    0.000122320   -0.000093110
     26        1          -0.001938587   -0.000356856    0.000947794
     27        1           0.001981073    0.000371403    0.000201681
     28        6           0.000113853   -0.002474135   -0.000692095
     29        1          -0.001505118    0.000615826    0.000699392
     30        1          -0.001232905    0.000568432   -0.000171541
     31        1           0.001703881   -0.001086582   -0.000152870
     32        6          -0.007225136   -0.000290265   -0.000859616
     33        6           0.011335072    0.001842973   -0.006951794
     34       16           0.003414633    0.000222623    0.000852127
     35        6          -0.001648980   -0.003040289   -0.000168582
     36        1           0.006509783   -0.006906615   -0.003054811
     37        6           0.001530223    0.000560901    0.000311593
     38        8          -0.001224931   -0.004318681    0.001186273
     39        6          -0.001532114   -0.000203320    0.000015000
     40        6          -0.002114933    0.006731947   -0.000777256
     41        6          -0.001108568   -0.001707548    0.000632755
     42       16           0.000994170   -0.000079963   -0.000177621
     43        1          -0.001044403   -0.000587391    0.000303332
     44        1           0.001371801   -0.000704816    0.001150496
     45        1           0.001534102   -0.000800215   -0.001571027
     46        6          -0.000874951    0.000230172    0.000052000
     47        8           0.001924347    0.006885289   -0.001302615
     48        6           0.000142760   -0.001088349    0.000153552
     49        1          -0.000255055    0.001045651   -0.000205321
     50        6           0.003188223   -0.007992605    0.001575817
     51        1          -0.001445156    0.000158628    0.000148903
     52        1          -0.001690709    0.000857369   -0.001591440
     53        1           0.000721053    0.000615462   -0.000250287
     54        1          -0.001206822    0.000928236    0.001000712
 -------------------------------------------------------------------
 Cartesian Forces:  Max     0.013079473 RMS     0.002653154

 GradGradGradGradGradGradGradGradGradGradGradGradGradGradGradGradGradGrad
 Berny optimization.
 FormGI is forming the generalized inverse of G from B-inverse, IUseBI=4.
 Internal  Forces:  Max     0.043230312 RMS     0.005280603
 Search for a local minimum.
 Step number   1 out of a maximum of  307
 All quantities printed in internal units (Hartrees-Bohrs-Radians)
 Mixed Optimization -- RFO/linear search
 Second derivative matrix not updated -- first step.
 ITU=  0
     Eigenvalues ---    0.00803   0.00803   0.01176   0.01203   0.01245
     Eigenvalues ---    0.01292   0.01308   0.01311   0.01362   0.01390
     Eigenvalues ---    0.01419   0.01429   0.01456   0.01496   0.01515
     Eigenvalues ---    0.01568   0.01573   0.01577   0.01621   0.01652
     Eigenvalues ---    0.01694   0.01708   0.01711   0.01719   0.01754
     Eigenvalues ---    0.01783   0.01803   0.01847   0.01962   0.02040
     Eigenvalues ---    0.02042   0.02067   0.02076   0.02083   0.02135
     Eigenvalues ---    0.02149   0.02163   0.02178   0.02197   0.02237
     Eigenvalues ---    0.02239   0.02251   0.07556   0.07572   0.07690
     Eigenvalues ---    0.07700   0.10060   0.10074   0.10634   0.10635
     Eigenvalues ---    0.15983   0.15999   0.15999   0.16000   0.16000
     Eigenvalues ---    0.16000   0.16000   0.16000   0.16000   0.16000
     Eigenvalues ---    0.16000   0.16000   0.16000   0.16000   0.16000
     Eigenvalues ---    0.16000   0.16000   0.16000   0.22530   0.22583
     Eigenvalues ---    0.23518   0.23581   0.24516   0.24747   0.24866
     Eigenvalues ---    0.24931   0.24952   0.24985   0.24987   0.24988
     Eigenvalues ---    0.24992   0.24994   0.24997   0.24997   0.24998
     Eigenvalues ---    0.24998   0.25000   0.25000   0.25000   0.25000
     Eigenvalues ---    0.25000   0.25000   0.25000   0.25000   0.25000
     Eigenvalues ---    0.25000   0.28803   0.28855   0.30069   0.32079
     Eigenvalues ---    0.32582   0.32774   0.33111   0.33787   0.33980
     Eigenvalues ---    0.34039   0.34063   0.34109   0.34354   0.34466
     Eigenvalues ---    0.34577   0.34629   0.34693   0.34819   0.34874
     Eigenvalues ---    0.35198   0.35218   0.35468   0.35553   0.35582
     Eigenvalues ---    0.35814   0.35823   0.36078   0.36083   0.36142
     Eigenvalues ---    0.36396   0.36662   0.39352   0.40194   0.40223
     Eigenvalues ---    0.40634   0.40651   0.41524   0.41728   0.42036
     Eigenvalues ---    0.42300   0.42692   0.43455   0.43829   0.44092
     Eigenvalues ---    0.44594   0.44672   0.45014   0.45406   0.46251
     Eigenvalues ---    0.47305   0.47610   0.49310   0.49653   0.53201
     Eigenvalues ---    0.53218   0.93281   0.93432   0.93989   0.94585
     Eigenvalues --- 1000.000001000.000001000.000001000.000001000.00000
     Eigenvalues --- 1000.000001000.000001000.000001000.000001000.00000
     Eigenvalues --- 1000.000001000.000001000.000001000.000001000.00000
     Eigenvalues --- 1000.000001000.000001000.000001000.000001000.00000
     Eigenvalues --- 1000.000001000.000001000.000001000.000001000.00000
     Eigenvalues --- 1000.000001000.000001000.000001000.000001000.00000
     Eigenvalues --- 1000.000001000.000001000.000001000.000001000.00000
     Eigenvalues --- 1000.000001000.000001000.000001000.000001000.00000
     Eigenvalues --- 1000.000001000.000001000.000001000.000001000.00000
     Eigenvalues --- 1000.000001000.000001000.000001000.000001000.00000
     Eigenvalues --- 1000.000001000.000001000.000001000.000001000.00000
     Eigenvalues --- 1000.000001000.000001000.000001000.000001000.00000
     Eigenvalues --- 1000.000001000.000001000.000001000.000001000.00000
     Eigenvalues --- 1000.000001000.000001000.000001000.000001000.00000
     Eigenvalues --- 1000.000001000.000001000.000001000.000001000.00000
     Eigenvalues --- 1000.000001000.000001000.000001000.000001000.00000
     Eigenvalues --- 1000.000001000.000001000.000001000.000001000.00000
     Eigenvalues --- 1000.000001000.000001000.000001000.000001000.00000
     Eigenvalues --- 1000.000001000.000001000.000001000.000001000.00000
     Eigenvalues --- 1000.000001000.000001000.000001000.000001000.00000
     Eigenvalues --- 1000.000001000.000001000.000001000.000001000.00000
     Eigenvalues --- 1000.000001000.000001000.000001000.000001000.00000
     Eigenvalues --- 1000.000001000.000001000.000001000.000001000.00000
     Eigenvalues --- 1000.000001000.000001000.000001000.000001000.00000
     Eigenvalues --- 1000.000001000.000001000.000001000.000001000.00000
     Eigenvalues --- 1000.000001000.000001000.000001000.000001000.00000
     Eigenvalues --- 1000.000001000.000001000.000001000.000001000.00000
     Eigenvalues --- 1000.000001000.000001000.000001000.000001000.00000
     Eigenvalues --- 1000.000001000.00000
 RFO step:  Lambda=-3.30477432D-02 EMin= 8.02933640D-03
 Linear search not attempted -- first point.
 Iteration  1 RMS(Cart)=  0.35101885 RMS(Int)=  0.00962601
 Iteration  2 RMS(Cart)=  0.05202037 RMS(Int)=  0.00101898
 Iteration  3 RMS(Cart)=  0.00091921 RMS(Int)=  0.00100589
 Iteration  4 RMS(Cart)=  0.00000080 RMS(Int)=  0.00100589
 Iteration  1 RMS(Cart)=  0.00014389 RMS(Int)=  0.00002564
 Iteration  2 RMS(Cart)=  0.00008155 RMS(Int)=  0.00002861
 Iteration  3 RMS(Cart)=  0.00004622 RMS(Int)=  0.00003246
 Iteration  4 RMS(Cart)=  0.00002619 RMS(Int)=  0.00003511
 Iteration  5 RMS(Cart)=  0.00001484 RMS(Int)=  0.00003673
 Iteration  6 RMS(Cart)=  0.00000841 RMS(Int)=  0.00003768
 Iteration  7 RMS(Cart)=  0.00000477 RMS(Int)=  0.00003823
 Iteration  8 RMS(Cart)=  0.00000270 RMS(Int)=  0.00003854
 Iteration  9 RMS(Cart)=  0.00000153 RMS(Int)=  0.00003872
 Iteration 10 RMS(Cart)=  0.00000087 RMS(Int)=  0.00003882
 Variable       Old X    -DE/DX   Delta X   Delta X   Delta X     New X
                                 (Linear)    (Quad)   (Total)
    R1        2.80935  -0.00144   0.00000  -0.00435  -0.00434   2.80501
    R2        2.64584  -0.00497   0.00000  -0.01034  -0.01028   2.63556
    R3        2.31147  -0.00370   0.00000  -0.00380  -0.00380   2.30767
    R4        2.67311  -0.00600   0.00000  -0.01547  -0.01582   2.65729
    R5        2.59267  -0.00969   0.00000  -0.02053  -0.02050   2.57217
    R6        2.66894  -0.00150   0.00000  -0.00314  -0.00323   2.66571
    R7        2.69164  -0.00003   0.00000   0.00150   0.00125   2.69289
    R8        2.81049  -0.00122   0.00000  -0.00281  -0.00282   2.80767
    R9        2.62173  -0.00329   0.00000  -0.00743  -0.00739   2.61433
   R10        2.65570  -0.00444   0.00000  -0.00908  -0.00902   2.64668
   R11        2.30889  -0.00260   0.00000  -0.00266  -0.00266   2.30623
   R12        2.70248   0.00023   0.00000  -0.00021   0.00009   2.70256
   R13        2.04786  -0.00202   0.00000  -0.00520  -0.00520   2.04266
   R14        2.70495   0.00977   0.00000   0.02751   0.02747   2.73243
   R15        2.68322   0.00192   0.00000   0.00648   0.00632   2.68954
   R16        2.68655   0.02329   0.00000   0.05365   0.05376   2.74031
   R17        2.81233   0.00588   0.00000   0.01712   0.01724   2.82957
   R18        2.76359   0.01048   0.00000   0.02622   0.02622   2.78981
   R19        2.66221  -0.00346   0.00000  -0.00850  -0.00838   2.65383
   R20        2.31391  -0.00898   0.00000  -0.00928  -0.00928   2.30463
   R21        2.79415  -0.00716   0.00000  -0.01997  -0.02005   2.77411
   R22        2.63842  -0.01035   0.00000  -0.02290  -0.02287   2.61554
   R23        2.31456  -0.00135   0.00000  -0.00140  -0.00140   2.31317
   R24        2.62448  -0.00059   0.00000  -0.00105  -0.00102   2.62346
   R25        2.64561  -0.00720   0.00000  -0.01563  -0.01556   2.63005
   R26        2.04921  -0.00162   0.00000  -0.00418  -0.00418   2.04503
   R27        2.04741  -0.00117   0.00000  -0.00301  -0.00301   2.04440
   R28        2.77259   0.00264   0.00000   0.00670   0.00670   2.77930
   R29        2.77252   0.00253   0.00000   0.00642   0.00642   2.77895
   R30        2.06176  -0.00080   0.00000  -0.00210  -0.00210   2.05966
   R31        2.06551  -0.00191   0.00000  -0.00507  -0.00507   2.06045
   R32        2.05322  -0.00151   0.00000  -0.00392  -0.00392   2.04930
   R33        2.06368  -0.00141   0.00000  -0.00373  -0.00373   2.05995
   R34        2.06281  -0.00092   0.00000  -0.00241  -0.00241   2.06040
   R35        2.05355  -0.00157   0.00000  -0.00408  -0.00408   2.04947
   R36        2.61004   0.00784   0.00000   0.01552   0.01562   2.62566
   R37        3.33374   0.00452   0.00000   0.01466   0.01474   3.34848
   R38        2.66255  -0.00154   0.00000  -0.00333  -0.00333   2.65922
   R39        2.03860  -0.00871   0.00000  -0.02207  -0.02207   2.01653
   R40        3.30459  -0.00371   0.00000  -0.01150  -0.01158   3.29301
   R41        2.64410  -0.00376   0.00000  -0.00826  -0.00836   2.63574
   R42        2.56767  -0.00085   0.00000  -0.00150  -0.00150   2.56616
   R43        2.71251  -0.00094   0.00000  -0.00217  -0.00217   2.71034
   R44        2.69271   0.00452   0.00000   0.01004   0.01004   2.70275
   R45        2.63283   0.00045   0.00000   0.00101   0.00101   2.63384
   R46        3.32984   0.00031   0.00000   0.00125   0.00125   3.33109
   R47        2.05969  -0.00123   0.00000  -0.00322  -0.00322   2.05648
   R48        2.07225  -0.00184   0.00000  -0.00493  -0.00493   2.06731
   R49        2.07265  -0.00224   0.00000  -0.00600  -0.00600   2.06665
   R50        2.69168  -0.00163   0.00000  -0.00372  -0.00372   2.68796
   R51        2.56750  -0.00302   0.00000  -0.00534  -0.00534   2.56216
   R52        3.26351  -0.00073   0.00000  -0.00210  -0.00210   3.26141
   R53        2.58598  -0.00136   0.00000  -0.00267  -0.00267   2.58332
   R54        2.04358  -0.00106   0.00000  -0.00271  -0.00271   2.04088
   R55        2.68877   0.00567   0.00000   0.01251   0.01251   2.70129
   R56        2.04373  -0.00142   0.00000  -0.00363  -0.00363   2.04010
   R57        2.07364  -0.00236   0.00000  -0.00633  -0.00633   2.06731
   R58        2.05880  -0.00097   0.00000  -0.00253  -0.00253   2.05627
   R59        2.07146  -0.00169   0.00000  -0.00452  -0.00452   2.06694
    A1        2.03797   0.00174   0.00000   0.00447   0.00444   2.04240
    A2        2.14521  -0.00072   0.00000  -0.00173  -0.00171   2.14350
    A3        2.10001  -0.00101   0.00000  -0.00275  -0.00273   2.09728
    A4        2.10395   0.00184   0.00000   0.00871   0.00869   2.11264
    A5        2.08282  -0.00289   0.00000  -0.00549  -0.00536   2.07746
    A6        2.09624   0.00104   0.00000  -0.00352  -0.00373   2.09251
    A7        2.10093  -0.00315   0.00000  -0.01208  -0.01188   2.08905
    A8        2.07104  -0.00012   0.00000  -0.00339  -0.00371   2.06733
    A9        2.11118   0.00327   0.00000   0.01543   0.01554   2.12672
   A10        2.10296   0.00094   0.00000   0.00407   0.00398   2.10694
   A11        2.09911   0.00117   0.00000   0.00312   0.00303   2.10214
   A12        2.08110  -0.00211   0.00000  -0.00719  -0.00700   2.07409
   A13        2.03739   0.00147   0.00000   0.00551   0.00545   2.04284
   A14        2.12972   0.00028   0.00000   0.00085   0.00088   2.13060
   A15        2.11607  -0.00176   0.00000  -0.00636  -0.00633   2.10974
   A16        2.15098   0.01040   0.00000   0.03554   0.03583   2.18681
   A17        2.04399  -0.00614   0.00000  -0.02323  -0.02330   2.02069
   A18        2.08722  -0.00432   0.00000  -0.01349  -0.01396   2.07327
   A19        2.11101   0.00404   0.00000   0.01545   0.01558   2.12658
   A20        2.04385  -0.00751   0.00000  -0.02889  -0.02879   2.01506
   A21        2.12832   0.00347   0.00000   0.01343   0.01320   2.14153
   A22        2.08678  -0.00744   0.00000  -0.02020  -0.02035   2.06643
   A23        2.04738  -0.01479   0.00000  -0.05134  -0.05138   1.99600
   A24        2.14662   0.02212   0.00000   0.06872   0.06823   2.21485
   A25        2.04892  -0.00808   0.00000  -0.02557  -0.02594   2.02298
[...]
 Alpha  occ. eigenvalues --   -0.53519  -0.51745  -0.50459  -0.50045  -0.49952
 Alpha  occ. eigenvalues --   -0.49446  -0.49125  -0.48588  -0.48508  -0.48103
 Alpha  occ. eigenvalues --   -0.48059  -0.47191  -0.46917  -0.46541  -0.46066
 Alpha  occ. eigenvalues --   -0.45434  -0.45361  -0.44913  -0.44070  -0.43671
 Alpha  occ. eigenvalues --   -0.42935  -0.42772  -0.42428  -0.42189  -0.41989
 Alpha  occ. eigenvalues --   -0.41838  -0.41314  -0.41097  -0.40657  -0.40066
 Alpha  occ. eigenvalues --   -0.39683  -0.39266  -0.39135  -0.38029  -0.37459
 Alpha  occ. eigenvalues --   -0.36556  -0.36279  -0.34464  -0.34207  -0.33884
 Alpha  occ. eigenvalues --   -0.33782  -0.32141  -0.31508  -0.30805  -0.30090
 Alpha  occ. eigenvalues --   -0.29724  -0.29298  -0.29083  -0.28515  -0.27451
 Alpha  occ. eigenvalues --   -0.26195  -0.25224  -0.24990  -0.19766
 Alpha virt. eigenvalues --   -0.13241  -0.08042  -0.06501  -0.04733  -0.03822
 Alpha virt. eigenvalues --   -0.00628  -0.00562   0.00146   0.00297   0.00466
 Alpha virt. eigenvalues --    0.00803   0.01047   0.01422   0.01545   0.02001
 Alpha virt. eigenvalues --    0.02244   0.02592   0.02787   0.02897   0.03194
 Alpha virt. eigenvalues --    0.03571   0.03830   0.03901   0.04347   0.04641
 Alpha virt. eigenvalues --    0.04818   0.04934   0.05276   0.05679   0.05889
 Alpha virt. eigenvalues --    0.06230   0.06244   0.06617   0.06922   0.07122
 Alpha virt. eigenvalues --    0.07282   0.07682   0.07733   0.07799   0.08240
 Alpha virt. eigenvalues --    0.08580   0.08685   0.08895   0.09120   0.09426
 Alpha virt. eigenvalues --    0.09504   0.09870   0.10090   0.10183   0.10521
 Alpha virt. eigenvalues --    0.10740   0.11061   0.11410   0.11707   0.12023
 Alpha virt. eigenvalues --    0.12405   0.12620   0.12890   0.13366   0.13601
 Alpha virt. eigenvalues --    0.13616   0.13783   0.13879   0.14043   0.14240
 Alpha virt. eigenvalues --    0.14637   0.14861   0.15083   0.15213   0.15329
 Alpha virt. eigenvalues --    0.15596   0.15775   0.16125   0.16248   0.16343
 Alpha virt. eigenvalues --    0.16494   0.16841   0.17174   0.17396   0.17647
 Alpha virt. eigenvalues --    0.17757   0.18167   0.18337   0.18565   0.18738
 Alpha virt. eigenvalues --    0.18834   0.19006   0.19299   0.19501   0.19779
 Alpha virt. eigenvalues --    0.19974   0.20029   0.20127   0.20258   0.20650
 Alpha virt. eigenvalues --    0.20777   0.20842   0.21086   0.21216   0.21393
 Alpha virt. eigenvalues --    0.21829   0.21952   0.22061   0.22226   0.22324
 Alpha virt. eigenvalues --    0.22559   0.23093   0.23345   0.23515   0.23716
 Alpha virt. eigenvalues --    0.23891   0.24110   0.24193   0.24286   0.24358
 Alpha virt. eigenvalues --    0.24481   0.24747   0.24762   0.25274   0.25498
 Alpha virt. eigenvalues --    0.25560   0.25766   0.25992   0.26077   0.26397
 Alpha virt. eigenvalues --    0.26625   0.26888   0.27076   0.27261   0.27450
 Alpha virt. eigenvalues --    0.27478   0.27657   0.27803   0.28095   0.28287
 Alpha virt. eigenvalues --    0.28440   0.28841   0.28956   0.29103   0.29195
 Alpha virt. eigenvalues --    0.29399   0.29735   0.30154   0.30421   0.30722
 Alpha virt. eigenvalues --    0.31008   0.31127   0.31399   0.31653   0.31868
 Alpha virt. eigenvalues --    0.32081   0.32271   0.32519   0.33019   0.33307
 Alpha virt. eigenvalues --    0.33451   0.33607   0.33762   0.34178   0.34364
 Alpha virt. eigenvalues --    0.34618   0.34932   0.35259   0.35525   0.35930
 Alpha virt. eigenvalues --    0.36182   0.36753   0.37138   0.37458   0.37828
 Alpha virt. eigenvalues --    0.37990   0.38076   0.38414   0.38788   0.39255
 Alpha virt. eigenvalues --    0.39683   0.40177   0.40586   0.40659   0.41338
 Alpha virt. eigenvalues --    0.41874   0.42312   0.42666   0.42966   0.43331
 Alpha virt. eigenvalues --    0.43715   0.44034   0.44114   0.44322   0.45021
 Alpha virt. eigenvalues --    0.45491   0.45979   0.46343   0.46876   0.47192
 Alpha virt. eigenvalues --    0.47562   0.47878   0.48358   0.48747   0.48925
 Alpha virt. eigenvalues --    0.49347   0.49815   0.50085   0.50570   0.51314
 Alpha virt. eigenvalues --    0.51794   0.51950   0.52542   0.53072   0.53268
 Alpha virt. eigenvalues --    0.54196   0.54536   0.54983   0.55078   0.55604
 Alpha virt. eigenvalues --    0.55955   0.56313   0.56413   0.56736   0.57198
 Alpha virt. eigenvalues --    0.57562   0.57969   0.58130   0.58371   0.58860
 Alpha virt. eigenvalues --    0.59600   0.60200   0.60523   0.60943   0.61233
 Alpha virt. eigenvalues --    0.61641   0.61956   0.62053   0.62618   0.63286
 Alpha virt. eigenvalues --    0.63374   0.63797   0.63940   0.64870   0.65147
 Alpha virt. eigenvalues --    0.65324   0.65763   0.65816   0.66520   0.66724
 Alpha virt. eigenvalues --    0.67160   0.67653   0.67812   0.68323   0.68788
 Alpha virt. eigenvalues --    0.69229   0.69499   0.69825   0.70160   0.70347
 Alpha virt. eigenvalues --    0.70575   0.70758   0.71821   0.72101   0.72261
 Alpha virt. eigenvalues --    0.72440   0.73075   0.73349   0.73764   0.74149
 Alpha virt. eigenvalues --    0.74308   0.74431   0.74650   0.75034   0.75230
 Alpha virt. eigenvalues --    0.75763   0.76282   0.76358   0.76658   0.76898
 Alpha virt. eigenvalues --    0.77197   0.78030   0.78186   0.78454   0.78836
 Alpha virt. eigenvalues --    0.79831   0.80181   0.80864   0.81258   0.81913
 Alpha virt. eigenvalues --    0.82469   0.83606   0.84030   0.84215   0.85134
 Alpha virt. eigenvalues --    0.85848   0.86168   0.87080   0.88041   0.88232
 Alpha virt. eigenvalues --    0.88483   0.89527   0.89684   0.90071   0.91095
 Alpha virt. eigenvalues --    0.91512   0.91770   0.92344   0.92647   0.92734
 Alpha virt. eigenvalues --    0.93599   0.94038   0.94191   0.94324   0.95197
 Alpha virt. eigenvalues --    0.95330   0.95710   0.95884   0.96332   0.97399
 Alpha virt. eigenvalues --    0.97547   0.98127   0.98759   0.99058   0.99721
 Alpha virt. eigenvalues --    1.00514   1.00926   1.01248   1.01649   1.02403
 Alpha virt. eigenvalues --    1.02605   1.03216   1.03730   1.04048   1.04500
 Alpha virt. eigenvalues --    1.04879   1.04925   1.05472   1.05705   1.06323
 Alpha virt. eigenvalues --    1.06920   1.07022   1.07308   1.08108   1.08231
 Alpha virt. eigenvalues --    1.09026   1.09281   1.09383   1.10200   1.10882
 Alpha virt. eigenvalues --    1.11416   1.12263   1.12657   1.14232   1.14547
 Alpha virt. eigenvalues --    1.15152   1.15616   1.16925   1.17451   1.17805
 Alpha virt. eigenvalues --    1.18025   1.18891   1.19119   1.20336   1.21248
 Alpha virt. eigenvalues --    1.21460   1.22047   1.23530   1.24064   1.24175
 Alpha virt. eigenvalues --    1.25119   1.25803   1.26445   1.26675   1.27025
 Alpha virt. eigenvalues --    1.28255   1.29107   1.29913   1.30304   1.30866
 Alpha virt. eigenvalues --    1.31482   1.32543   1.32999   1.33806   1.34433
 Alpha virt. eigenvalues --    1.35108   1.35647   1.36710   1.36918   1.37916
 Alpha virt. eigenvalues --    1.39739   1.40031   1.41319   1.41916   1.42826
 Alpha virt. eigenvalues --    1.42918   1.43337   1.43780   1.44447   1.44574
 Alpha virt. eigenvalues --    1.44774   1.45267   1.45553   1.45818   1.46186
 Alpha virt. eigenvalues --    1.46591   1.47197   1.48221   1.49037   1.49659
 Alpha virt. eigenvalues --    1.50024   1.50937   1.51335   1.52043   1.52667
 Alpha virt. eigenvalues --    1.53156   1.53731   1.54378   1.54608   1.54849
 Alpha virt. eigenvalues --    1.55268   1.55650   1.56270   1.56648   1.57023
 Alpha virt. eigenvalues --    1.57806   1.59030   1.59287   1.59977   1.60689
 Alpha virt. eigenvalues --    1.61851   1.62401   1.63135   1.63837   1.64205
 Alpha virt. eigenvalues --    1.65132   1.65688   1.66591   1.66799   1.67550
 Alpha virt. eigenvalues --    1.68252   1.69143   1.69385   1.69661   1.70045
 Alpha virt. eigenvalues --    1.70143   1.71445   1.71542   1.71975   1.72105
 Alpha virt. eigenvalues --    1.73240   1.73979   1.74274   1.74608   1.75735
 Alpha virt. eigenvalues --    1.75925   1.76412   1.77434   1.78164   1.78807
 Alpha virt. eigenvalues --    1.78988   1.79213   1.79846   1.80749   1.82166
 Alpha virt. eigenvalues --    1.82734   1.83115   1.84553   1.85339   1.85583
 Alpha virt. eigenvalues --    1.86629   1.86981   1.87150   1.87895   1.88841
 Alpha virt. eigenvalues --    1.89006   1.89864   1.90347   1.90515   1.91341
 Alpha virt. eigenvalues --    1.91726   1.92978   1.93436   1.94609   1.95113
 Alpha virt. eigenvalues --    1.96741   1.97160   1.97971   1.98093   1.98502
 Alpha virt. eigenvalues --    1.99652   2.00375   2.01293   2.01499   2.02033
 Alpha virt. eigenvalues --    2.02449   2.03078   2.03758   2.03900   2.05073
 Alpha virt. eigenvalues --    2.05731   2.06619   2.06936   2.07354   2.07712
 Alpha virt. eigenvalues --    2.08343   2.09432   2.09654   2.11002   2.11780
 Alpha virt. eigenvalues --    2.12501   2.13611   2.13796   2.14518   2.15303
 Alpha virt. eigenvalues --    2.16020   2.16503   2.17269   2.17945   2.18999
 Alpha virt. eigenvalues --    2.19313   2.20066   2.21306   2.21918   2.22343
 Alpha virt. eigenvalues --    2.22890   2.24084   2.25938   2.26164   2.28726
 Alpha virt. eigenvalues --    2.31608   2.31965   2.33923   2.35304   2.37365
 Alpha virt. eigenvalues --    2.38637   2.39040   2.40122   2.41603   2.43006
 Alpha virt. eigenvalues --    2.43268   2.44233   2.44515   2.45586   2.46131
 Alpha virt. eigenvalues --    2.47043   2.47686   2.48046   2.49419   2.49963
 Alpha virt. eigenvalues --    2.50381   2.51696   2.52510   2.52556   2.52979
 Alpha virt. eigenvalues --    2.53646   2.54175   2.55133   2.55535   2.56364
 Alpha virt. eigenvalues --    2.57449   2.57953   2.58909   2.59366   2.61345
 Alpha virt. eigenvalues --    2.62559   2.63257   2.63794   2.64880   2.66280
 Alpha virt. eigenvalues --    2.67195   2.67343   2.67508   2.68501   2.68608
 Alpha virt. eigenvalues --    2.69895   2.70013   2.70790   2.71501   2.71711
 Alpha virt. eigenvalues --    2.72484   2.73159   2.74066   2.74584   2.75273
 Alpha virt. eigenvalues --    2.76577   2.77691   2.78299   2.78656   2.80792
 Alpha virt. eigenvalues --    2.81597   2.82360   2.82968   2.83243   2.83480
 Alpha virt. eigenvalues --    2.83748   2.84282   2.84768   2.85631   2.86545
 Alpha virt. eigenvalues --    2.87353   2.88000   2.88585   2.89648   2.90272
 Alpha virt. eigenvalues --    2.90997   2.91856   2.92725   2.93128   2.94777
 Alpha virt. eigenvalues --    2.94913   2.95300   2.96262   2.97962   2.98689
 Alpha virt. eigenvalues --    3.00611   3.02529   3.02754   3.03373   3.04233
 Alpha virt. eigenvalues --    3.05362   3.06488   3.07193   3.08646   3.09156
 Alpha virt. eigenvalues --    3.11773   3.12588   3.14028   3.14688   3.15094
 Alpha virt. eigenvalues --    3.16781   3.17285   3.18762   3.20750   3.21296
 Alpha virt. eigenvalues --    3.22917   3.23438   3.23833   3.25149   3.26323
 Alpha virt. eigenvalues --    3.28925   3.29067   3.30553   3.31884   3.33490
 Alpha virt. eigenvalues --    3.34011   3.34362   3.35270   3.36277   3.37003
 Alpha virt. eigenvalues --    3.38553   3.40224   3.40808   3.42550   3.42812
 Alpha virt. eigenvalues --    3.43989   3.44944   3.45665   3.48243   3.48784
 Alpha virt. eigenvalues --    3.51049   3.53477   3.55577   3.57795   3.59647
 Alpha virt. eigenvalues --    3.60488   3.61339   3.64465   3.65701   3.66574
 Alpha virt. eigenvalues --    3.68331   3.69748   3.73274   3.74968   3.75669
 Alpha virt. eigenvalues --    3.77704   3.77854   3.80684   3.83195   3.84601
 Alpha virt. eigenvalues --    3.85047   3.85218   3.89608   3.90986   3.92609
 Alpha virt. eigenvalues --    3.93431   3.95003   3.96903   4.01158   4.02600
 Alpha virt. eigenvalues --    4.03446   4.07838   4.10042   4.12085   4.13874
 Alpha virt. eigenvalues --    4.19671   4.23246   4.25034   4.27061   4.34853
 Alpha virt. eigenvalues --    4.38948   4.40327   4.52391   4.70004   4.84517
 Alpha virt. eigenvalues --    4.84859   4.87113   4.89610   5.01063   5.02190
 Alpha virt. eigenvalues --    5.03319   5.04893   5.05938   5.09951   5.11861
 Alpha virt. eigenvalues --    5.12333   5.23985   5.25254   5.26184   5.28227
 Alpha virt. eigenvalues --    5.41219   5.42486   5.75063   5.76234   5.78395
 Alpha virt. eigenvalues --    5.79981   5.81481   5.82020   8.01922   8.04153
 Alpha virt. eigenvalues --   17.28525  17.30808  17.49094  17.51951  17.57192
 Alpha virt. eigenvalues --   17.62557  23.48511  23.56468  23.71350  23.79191
 Alpha virt. eigenvalues --   23.82371  23.82751  23.84332  23.86855  23.86919
 Alpha virt. eigenvalues --   23.88282  23.88896  23.91229  23.92171  23.93615
 Alpha virt. eigenvalues --   23.94904  23.95891  23.96159  23.99260  24.00383
 Alpha virt. eigenvalues --   24.01560  24.02125  24.05385  24.12000  24.13535
 Alpha virt. eigenvalues --   24.14703  24.14899  35.55447  35.57837  49.95893
 Alpha virt. eigenvalues --   49.97545  50.01529  50.03083  50.05053  50.06184
 Alpha virt. eigenvalues --  189.19195 189.22065
          Condensed to atoms (all electrons):
 Mulliken charges:
               1
     1  C    0.361756
     2  C   -0.065458
     3  C    0.218900
     4  C    0.213492
     5  C    0.294705
     6  C    0.116305
     7  C    0.222802
     8  C    0.610233
     9  C    0.185201
    10  C   -0.872591
    11  C    0.279995
    12  C    0.119966
    13  C   -0.492058
    14  C   -0.617880
    15  H    0.164106
    16  H    0.164786
    17  H    0.164991
    18  N    0.024728
    19  N   -0.108232
    20  O   -0.352119
    21  O   -0.334477
    22  O   -0.360337
    23  O   -0.291131
    24  C   -0.189972
    25  H    0.190009
    26  H    0.179636
    27  H    0.179063
    28  C   -0.216613
    29  H    0.185501
    30  H    0.181280
    31  H    0.179554
    32  C   -0.116626
    33  C   -0.461096
    34  S   -0.655193
    35  C   -0.315359
    36  H    0.171220
    37  C    0.721281
    38  O   -0.149371
    39  C    0.871563
    40  C   -0.246602
    41  C    0.044932
    42  S   -0.209518
    43  H    0.179838
    44  H    0.165179
    45  H    0.167018
    46  C   -0.637761
    47  O   -0.153992
    48  C   -0.321614
    49  H    0.164813
    50  C   -0.253515
    51  H    0.193713
    52  H    0.163855
    53  H    0.176794
    54  H    0.164301
 Sum of Mulliken charges =  -0.00000
 Mulliken charges with hydrogens summed into heavy atoms:
               1
     1  C    0.361756
     2  C   -0.065458
     3  C    0.218900
     4  C    0.213492
     5  C    0.294705
     6  C    0.281296
     7  C    0.222802
     8  C    0.610233
     9  C    0.185201
    10  C   -0.872591
    11  C    0.279995
    12  C    0.119966
    13  C   -0.327272
    14  C   -0.453773
    18  N    0.024728
    19  N   -0.108232
    20  O   -0.352119
    21  O   -0.334477
    22  O   -0.360337
    23  O   -0.291131
    24  C    0.358736
    28  C    0.329722
    32  C   -0.116626
    33  C   -0.289876
    34  S   -0.655193
    35  C   -0.315359
    37  C    0.721281
    38  O   -0.149371
    39  C    0.871563
    40  C    0.265434
    41  C    0.044932
    42  S   -0.209518
    46  C   -0.472948
    47  O   -0.153992
    48  C   -0.127901
    50  C    0.251435
 Electronic spatial extent (au):  <R**2>=          22405.8507
 Charge=              0.0000 electrons
 Dipole moment (field-independent basis, Debye):
    X=             -6.7019    Y=             -0.8386    Z=              1.0919  Tot=              6.8419
 Quadrupole moment (field-independent basis, Debye-Ang):
   XX=           -210.1552   YY=           -208.5307   ZZ=           -221.7856
   XY=              7.4753   XZ=             -0.6110   YZ=             13.7053
 Traceless Quadrupole moment (field-independent basis, Debye-Ang):
   XX=              3.3352   YY=              4.9598   ZZ=             -8.2951
   XY=              7.4753   XZ=             -0.6110   YZ=             13.7053
 Octapole moment (field-independent basis, Debye-Ang**2):
  XXX=           -515.6042  YYY=            -21.8733  ZZZ=              0.3521  XYY=           -174.4957
  XXY=           -126.4305  XXZ=            -37.6116  XZZ=              3.0511  YZZ=             -4.3439
  YYZ=              3.0709  XYZ=            -45.2960
 Hexadecapole moment (field-independent basis, Debye-Ang**3):
 XXXX=         -20367.3888 YYYY=          -7645.6103 ZZZZ=           -672.0223 XXXY=            850.1217
 XXXZ=             12.8350 YYYX=           -306.4791 YYYZ=            138.1073 ZZZX=              8.1061
 ZZZY=             22.4880 XXYY=          -4885.9060 XXZZ=          -3763.8881 YYZZ=          -1395.3989
 XXYZ=            258.7887 YYXZ=             11.2431 ZZXY=             -6.7163
 N-N= 4.089029681295D+03 E-N=-1.371823717266D+04  KE= 2.352001268175D+03
 Unable to Open any file for archive entry.
 1\1\GINC-CX3-5-23\FOpt\RB3LYP\6-311+G(d,p)\C26H18N2O6S2\NS5018\27-Oct-
 2021\0\\# opt=modredundant b3lyp/6-311+g(d,p) scrf=(pcm, solvent=water
 )\\NDI_-20.pdb\\0,1\C,-2.66669946,-3.0112371821,-0.4676006763\C,-2.306
 7479197,-1.5917619817,-0.2278499029\C,-3.3191173835,-0.6130998593,-0.0
 97041285\C,-4.6775481129,-0.965532948,-0.2122308375\C,-5.0642519277,-2
 .3770051978,-0.4656466343\C,-0.9873881256,-1.2250914978,-0.185394256\C
 ,-2.9367951977,0.7307443857,0.1630232044\C,-1.5621919927,1.0873361103,
 0.283267373\C,-0.5581305211,0.1197328656,0.0247249803\C,-1.268368277,2
 .4307307658,0.8405676798\C,-3.6393730979,3.1098594378,0.5654633162\C,-
 3.9675503827,1.6951674909,0.2911137817\C,-5.3002486282,1.331176796,0.1
 57341363\C,-5.6621231481,0.0037791967,-0.0898001733\H,-6.7026564367,-0
 .2764538207,-0.1845667028\H,-6.0594506623,2.0965131413,0.2513879235\H,
 -0.2510685937,-1.9978801385,-0.3636563573\N,-2.2985587301,3.3885283005
 ,0.8105412295\N,-4.0260878066,-3.3141385232,-0.5643598353\O,-1.8301765
 188,-3.8945794333,-0.5792098784\O,-6.231031649,-2.717751729,-0.5802859
 64\O,-4.4903074215,3.9894718074,0.6071067574\O,-0.2009371598,2.7405330
 061,1.3479236787\C,-1.9420525556,4.7531429421,1.2272545769\H,-1.898628
 8031,4.8232687415,2.3160094896\H,-0.9674814783,5.0057749645,0.81759213
 99\H,-2.7017166018,5.430393772,0.8503035067\C,-4.3660516686,-4.7257616
 378,-0.8015177997\H,-3.959135021,-5.0482623278,-1.7600967567\H,-3.9395
 395104,-5.3415073497,-0.0105202628\H,-5.4466651959,-4.81633447,-0.8067
 091489\C,0.8549292157,0.3832185819,-0.1980665474\C,1.4980069892,1.5462
 913901,-0.576026292\S,2.0284918657,-0.9139025976,0.0148817385\C,2.8886
 34729,1.3996154295,-0.7196901769\H,0.9799045546,2.4703158978,-0.769466
 4762\C,3.3684199818,0.1175893516,-0.4247414523\O,3.7664418011,2.357629
 1465,-1.1061503983\C,4.7259158273,-0.3422265589,-0.4565263271\C,3.2547
 163943,3.6662531854,-1.3898894683\C,5.1981679918,-1.6224346844,-0.1708
 729709\S,6.0848558171,0.6988252485,-0.8796933394\H,4.1182823962,4.2689
 607225,-1.6618475924\H,2.5503695918,3.6348210809,-2.225220494\H,2.7703
 498101,4.0930687288,-0.5078418846\C,6.6089680989,-1.7618968487,-0.2892
 363656\O,4.3213274762,-2.5912658986,0.1828309568\C,7.2095089856,-0.592
 3132023,-0.6630441601\H,7.15109616,-2.6782089219,-0.1081048742\C,4.835
 6100005,-3.8985297704,0.4742037561\H,8.2613905267,-0.414007511,-0.8273
 728829\H,5.5234906649,-3.863629853,1.3225572764\H,3.9702007979,-4.5061
 125032,0.72865053\H,5.3380003117,-4.3208160408,-0.3994670843\\Version=
 ES64L-G16RevC.01\State=1-A\HF=-2359.3586723\RMSD=3.552e-09\RMSF=8.858e
 -04\Dipole=2.6112922,-0.2984802,-0.5813055\Quadrupole=2.3242144,5.5088
 306,-7.833045,-5.9031749,-1.4784943,-8.844463\PG=C01 [X(C26H18N2O6S2)]
 \\@
 The archive entry for this job was punched.


 A successful marriage requires falling in love
 many times, always with the same person.
                           -- Mignon McLaughlin
 Job cpu time:       4 days  8 hours 22 minutes 59.5 seconds.
 Elapsed time:       0 days  6 hours 39 minutes 26.5 seconds.
 File lengths (MBytes):  RWF=   1027 Int=      0 D2E=      0 Chk=     65 Scr=      1
 Normal termination of Gaussian 16 at Wed Oct 27 23:46:14 2021.
