 Entering Gaussian System, Link 0=g16
 Input=NDI_-25.gjf
 Output=NDI_-25.log
 Initial command:
 /apps/gaussian/g16-c01-avx/g16/l1.exe "/tmp/pbs.4768611[150].pbs/Gau-396678.inp" -scrdir="/tmp/pbs.4768611[150].pbs/"
 Entering Link 1 = /apps/gaussian/g16-c01-avx/g16/l1.exe PID=    396680.
  
 Copyright (c) 1988-2019, Gaussian, Inc.  All Rights Reserved.
  
 This is part of the Gaussian(R) 16 program.  It is based on
 the Gaussian(R) 09 system (copyright 2009, Gaussian, Inc.),
 the Gaussian(R) 03 system (copyright 2003, Gaussian, Inc.),
 the Gaussian(R) 98 system (copyright 1998, Gaussian, Inc.),
 the Gaussian(R) 94 system (copyright 1995, Gaussian, Inc.),
 the Gaussian 92(TM) system (copyright 1992, Gaussian, Inc.),
 the Gaussian 90(TM) system (copyright 1990, Gaussian, Inc.),
 the Gaussian 88(TM) system (copyright 1988, Gaussian, Inc.),
 the Gaussian 86(TM) system (copyright 1986, Carnegie Mellon
 University), and the Gaussian 82(TM) system (copyright 1983,
 Carnegie Mellon University). Gaussian is a federally registered
 trademark of Gaussian, Inc.
  
 This software contains proprietary and confidential information,
 including trade secrets, belonging to Gaussian, Inc.
  
 This software is provided under written license and may be
 used, copied, transmitted, or stored only in accord with that
 written license.
  
 The following legend is applicable only to US Government
 contracts under FAR:
  
                    RESTRICTED RIGHTS LEGEND
  
 Use, reproduction and disclosure by the US Government is
 subject to restrictions as set forth in subparagraphs (a)
 and (c) of the Commercial Computer Software - Restricted
 Rights clause in FAR 52.227-19.
  
 Gaussian, Inc.
 340 Quinnipiac St., Bldg. 40, Wallingford CT 06492
  
  
 ---------------------------------------------------------------
 Warning -- This program may not be used in any manner that
 competes with the business of Gaussian, Inc. or will provide
 assistance to any competitor of Gaussian, Inc.  The licensee
 of this program is prohibited from giving any competitor of
 Gaussian, Inc. access to this program.  By using this program,
 the user acknowledges that Gaussian, Inc. is engaged in the
 business of creating and licensing software in the field of
 computational chemistry and represents and warrants to the
 licensee that it is not a competitor of Gaussian, Inc. and that
 it will not use this program in any manner prohibited above.
 ---------------------------------------------------------------
  

 Cite this work as:
 Gaussian 16, Revision C.01,
 M. J. Frisch, G. W. Trucks, H. B. Schlegel, G. E. Scuseria, 
 M. A. Robb, J. R. Cheeseman, G. Scalmani, V. Barone, 
 G. A. Petersson, H. Nakatsuji, X. Li, M. Caricato, A. V. Marenich, 
 J. Bloino, B. G. Janesko, R. Gomperts, B. Mennucci, H. P. Hratchian, 
 J. V. Ortiz, A. F. Izmaylov, J. L. Sonnenberg, D. Williams-Young, 
 F. Ding, F. Lipparini, F. Egidi, J. Goings, B. Peng, A. Petrone, 
 T. Henderson, D. Ranasinghe, V. G. Zakrzewski, J. Gao, N. Rega, 
 G. Zheng, W. Liang, M. Hada, M. Ehara, K. Toyota, R. Fukuda, 
 J. Hasegawa, M. Ishida, T. Nakajima, Y. Honda, O. Kitao, H. Nakai, 
 T. Vreven, K. Throssell, J. A. Montgomery, Jr., J. E. Peralta, 
 F. Ogliaro, M. J. Bearpark, J. J. Heyd, E. N. Brothers, K. N. Kudin, 
 V. N. Staroverov, T. A. Keith, R. Kobayashi, J. Normand, 
 K. Raghavachari, A. P. Rendell, J. C. Burant, S. S. Iyengar, 
 J. Tomasi, M. Cossi, J. M. Millam, M. Klene, C. Adamo, R. Cammi, 
 J. W. Ochterski, R. L. Martin, K. Morokuma, O. Farkas, 
 J. B. Foresman, and D. J. Fox, Gaussian, Inc., Wallingford CT, 2019.
 
 ******************************************
 Gaussian 16:  ES64L-G16RevC.01  3-Jul-2019
                27-Oct-2021 
 ******************************************
 %mem=100GB
 %nprocshared=16
 Will use up to   16 processors via shared memory.
 ---------------------------------------------------------------
 # opt=modredundant b3lyp/6-311+g(d,p) scrf=(pcm, solvent=water)
 ---------------------------------------------------------------
 1/18=120,19=15,26=3,38=1/1,3;
 2/9=110,12=2,17=6,18=5,40=1/2;
 3/5=4,6=6,7=111,11=2,25=1,30=1,70=2201,71=1,72=1,74=-5/1,2,3;
 4//1;
 5/5=2,38=5,53=1/2;
 6/7=2,8=2,9=2,10=2,28=1/1;
 7//1,2,3,16;
 1/18=20,19=15,26=3/3(2);
 2/9=110/2;
 99//99;
 2/9=110/2;
 3/5=4,6=6,7=111,11=2,25=1,30=1,70=2205,71=1,72=1,74=-5/1,2,3;
 4/5=5,16=3,69=1/1;
 5/5=2,38=5,53=1/2;
 7//1,2,3,16;
 1/18=20,19=15,26=3/3(-5);
 2/9=110/2;
 6/7=2,8=2,9=2,10=2,19=2,28=1/1;
 99/9=1/99;
 -----------
 NDI_-25.pdb
 -----------
 Symbolic Z-matrix:
 Charge =  0 Multiplicity = 1
 C                    -2.563    -2.994    -0.409 
 C                    -2.257    -1.551    -0.224 
 C                    -3.301    -0.607    -0.083 
 C                    -4.65     -1.024    -0.115 
 C                    -4.992    -2.459    -0.304 
 C                    -0.949    -1.137    -0.215 
 C                    -2.962     0.764     0.102 
 C                    -1.595     1.188     0.123 
 C                    -0.561     0.232    -0.072 
 C                    -1.328     2.616     0.446 
 C                    -3.777     3.115     0.508 
 C                    -4.035     1.679     0.268 
 C                    -5.356     1.252     0.23 
 C                    -5.672    -0.098     0.036 
 H                    -6.699    -0.442     0.008 
 H                    -6.133     1.997     0.361 
 H                    -0.19     -1.895    -0.369 
 N                    -2.432     3.476     0.608 
 N                    -3.916    -3.353    -0.438 
 O                    -1.695    -3.847    -0.532 
 O                    -6.149    -2.85     -0.34 
 O                    -4.676     3.938     0.629 
 O                    -0.212     3.097     0.596 
 C                    -2.111     4.875     0.912 
 H                    -1.54      4.931     1.84 
 H                    -1.5       5.299     0.111 
 H                    -3.05      5.414     1.003 
 C                    -4.206    -4.779    -0.625 
 H                    -3.759    -5.126    -1.559 
 H                    -3.775    -5.355     0.196 
 H                    -5.286    -4.897    -0.649 
 C                     0.876     0.482    -0.178 
 C                     1.571     1.61     -0.57 
 S                     1.993    -0.859     0.075 
 C                     2.962     1.41     -0.66 
 H                     1.088     2.551    -0.776 
 C                     3.384     0.118    -0.333 
 O                     3.89      2.335    -1.024 
 C                     4.729    -0.381    -0.288 
 C                     3.444     3.676    -1.212 
 C                     5.146    -1.676     0.016 
 S                     6.138     0.62     -0.628 
 H                     4.339     4.264    -1.416 
 H                     2.759     3.75     -2.065 
 H                     2.948     4.058    -0.312 
 C                     6.557    -1.859    -0.023 
 O                     4.216    -2.62      0.317 
 C                     7.213    -0.704    -0.356 
 H                     7.06     -2.794     0.184 
 C                     4.669    -3.941     0.588 
 H                     8.279    -0.56     -0.46 
 H                     5.323    -3.965     1.469 
 H                     3.775    -4.531     0.786 
 H                     5.201    -4.364    -0.272 
 
 The following ModRedundant input section has been read:
 D       8       9      32      33 F                                           
 

 GradGradGradGradGradGradGradGradGradGradGradGradGradGradGradGradGradGrad
 Berny optimization.
 Initialization pass.
                           ----------------------------
                           !    Initial Parameters    !
                           ! (Angstroms and Degrees)  !
 --------------------------                            --------------------------
 ! Name  Definition              Value          Derivative Info.                !
 --------------------------------------------------------------------------------
 ! R1    R(1,2)                  1.4866         estimate D2E/DX2                !
 ! R2    R(1,19)                 1.4001         estimate D2E/DX2                !
 ! R3    R(1,20)                 1.2232         estimate D2E/DX2                !
 ! R4    R(2,3)                  1.4146         estimate D2E/DX2                !
 ! R5    R(2,6)                  1.372          estimate D2E/DX2                !
 ! R6    R(3,4)                  1.4123         estimate D2E/DX2                !
 ! R7    R(3,7)                  1.4244         estimate D2E/DX2                !
 ! R8    R(4,5)                  1.4872         estimate D2E/DX2                !
 ! R9    R(4,14)                 1.3874         estimate D2E/DX2                !
 ! R10   R(5,19)                 1.4053         estimate D2E/DX2                !
 ! R11   R(5,21)                 1.2218         estimate D2E/DX2                !
 ! R12   R(6,9)                  1.4301         estimate D2E/DX2                !
 ! R13   R(6,17)                 1.0837         estimate D2E/DX2                !
 ! R14   R(7,8)                  1.4314         estimate D2E/DX2                !
 ! R15   R(7,12)                 1.4199         estimate D2E/DX2                !
 ! R16   R(8,9)                  1.4217         estimate D2E/DX2                !
 ! R17   R(8,10)                 1.4882         estimate D2E/DX2                !
 ! R18   R(9,32)                 1.4624         estimate D2E/DX2                !
 ! R19   R(10,18)                1.4088         estimate D2E/DX2                !
 ! R20   R(10,23)                1.2245         estimate D2E/DX2                !
 ! R21   R(11,12)                1.4786         estimate D2E/DX2                !
 ! R22   R(11,18)                1.3962         estimate D2E/DX2                !
 ! R23   R(11,22)                1.2248         estimate D2E/DX2                !
 ! R24   R(12,13)                1.3888         estimate D2E/DX2                !
 ! R25   R(13,14)                1.4            estimate D2E/DX2                !
 ! R26   R(13,16)                1.0844         estimate D2E/DX2                !
 ! R27   R(14,15)                1.0834         estimate D2E/DX2                !
 ! R28   R(18,24)                1.4672         estimate D2E/DX2                !
 ! R29   R(19,28)                1.4672         estimate D2E/DX2                !
 ! R30   R(24,25)                1.091          estimate D2E/DX2                !
 ! R31   R(24,26)                1.093          estimate D2E/DX2                !
 ! R32   R(24,27)                1.0865         estimate D2E/DX2                !
 ! R33   R(28,29)                1.0921         estimate D2E/DX2                !
 ! R34   R(28,30)                1.0916         estimate D2E/DX2                !
 ! R35   R(28,31)                1.0867         estimate D2E/DX2                !
 ! R36   R(32,33)                1.3817         estimate D2E/DX2                !
 ! R37   R(32,34)                1.7635         estimate D2E/DX2                !
 ! R38   R(33,35)                1.4082         estimate D2E/DX2                !
 ! R39   R(33,36)                1.0776         estimate D2E/DX2                !
 ! R40   R(34,37)                1.7481         estimate D2E/DX2                !
 ! R41   R(35,37)                1.398          estimate D2E/DX2                !
 ! R42   R(35,38)                1.3599         estimate D2E/DX2                !
 ! R43   R(37,39)                1.4353         estimate D2E/DX2                !
 ! R44   R(38,40)                1.4257         estimate D2E/DX2                !
 ! R45   R(39,41)                1.394          estimate D2E/DX2                !
 ! R46   R(39,42)                1.7615         estimate D2E/DX2                !
 ! R47   R(40,43)                1.0901         estimate D2E/DX2                !
 ! R48   R(40,44)                1.0965         estimate D2E/DX2                !
 ! R49   R(40,45)                1.0963         estimate D2E/DX2                !
 ! R50   R(41,46)                1.4234         estimate D2E/DX2                !
 ! R51   R(41,47)                1.3589         estimate D2E/DX2                !
 ! R52   R(42,48)                1.727          estimate D2E/DX2                !
 ! R53   R(46,48)                1.3694         estimate D2E/DX2                !
 ! R54   R(46,49)                1.0817         estimate D2E/DX2                !
 ! R55   R(47,50)                1.4226         estimate D2E/DX2                !
 ! R56   R(48,51)                1.0807         estimate D2E/DX2                !
 ! R57   R(50,52)                1.0975         estimate D2E/DX2                !
 ! R58   R(50,53)                1.0893         estimate D2E/DX2                !
 ! R59   R(50,54)                1.0962         estimate D2E/DX2                !
 ! A1    A(2,1,19)             116.767          estimate D2E/DX2                !
 ! A2    A(2,1,20)             122.9113         estimate D2E/DX2                !
 ! A3    A(19,1,20)            120.3217         estimate D2E/DX2                !
 ! A4    A(1,2,3)              120.5473         estimate D2E/DX2                !
 ! A5    A(1,2,6)              119.3369         estimate D2E/DX2                !
 ! A6    A(3,2,6)              120.1056         estimate D2E/DX2                !
 ! A7    A(2,3,4)              120.3743         estimate D2E/DX2                !
 ! A8    A(2,3,7)              118.662          estimate D2E/DX2                !
 ! A9    A(4,3,7)              120.9617         estimate D2E/DX2                !
 ! A10   A(3,4,5)              120.4909         estimate D2E/DX2                !
 ! A11   A(3,4,14)             120.2702         estimate D2E/DX2                !
 ! A12   A(5,4,14)             119.2382         estimate D2E/DX2                !
 ! A13   A(4,5,19)             116.7341         estimate D2E/DX2                !
 ! A14   A(4,5,21)             122.024          estimate D2E/DX2                !
 ! A15   A(19,5,21)            121.2418         estimate D2E/DX2                !
 ! A16   A(2,6,9)              123.2421         estimate D2E/DX2                !
 ! A17   A(2,6,17)             117.1119         estimate D2E/DX2                !
 ! A18   A(9,6,17)             119.589          estimate D2E/DX2                !
 ! A19   A(3,7,8)              120.9519         estimate D2E/DX2                !
 ! A20   A(3,7,12)             117.1037         estimate D2E/DX2                !
 ! A21   A(8,7,12)             121.944          estimate D2E/DX2                !
 ! A22   A(7,8,9)              119.5639         estimate D2E/DX2                !
 ! A23   A(7,8,10)             117.3064         estimate D2E/DX2                !
 ! A24   A(9,8,10)             122.9922         estimate D2E/DX2                !
 ! A25   A(6,9,8)              117.3944         estimate D2E/DX2                !
 ! A26   A(6,9,32)             115.0236         estimate D2E/DX2                !
 ! A27   A(8,9,32)             127.5648         estimate D2E/DX2                !
 ! A28   A(8,10,18)            118.042          estimate D2E/DX2                !
 ! A29   A(8,10,23)            124.5436         estimate D2E/DX2                !
 ! A30   A(18,10,23)           117.4097         estimate D2E/DX2                !
 ! A31   A(12,11,18)           115.5202         estimate D2E/DX2                !
 ! A32   A(12,11,22)           122.7205         estimate D2E/DX2                !
 ! A33   A(18,11,22)           121.7534         estimate D2E/DX2                !
 ! A34   A(7,12,11)            120.8614         estimate D2E/DX2                !
 ! A35   A(7,12,13)            121.162          estimate D2E/DX2                !
 ! A36   A(11,12,13)           117.9699         estimate D2E/DX2                !
 ! A37   A(12,13,14)           120.9948         estimate D2E/DX2                !
 ! A38   A(12,13,16)           117.8401         estimate D2E/DX2                !
 ! A39   A(14,13,16)           121.1642         estimate D2E/DX2                !
 ! A40   A(4,14,13)            119.5003         estimate D2E/DX2                !
 ! A41   A(4,14,15)            118.9169         estimate D2E/DX2                !
 ! A42   A(13,14,15)           121.5811         estimate D2E/DX2                !
 ! A43   A(10,18,11)           126.0753         estimate D2E/DX2                !
 ! A44   A(10,18,24)           115.7508         estimate D2E/DX2                !
 ! A45   A(11,18,24)           118.1737         estimate D2E/DX2                !
 ! A46   A(1,19,5)             125.0856         estimate D2E/DX2                !
 ! A47   A(1,19,28)            116.2868         estimate D2E/DX2                !
 ! A48   A(5,19,28)            118.6276         estimate D2E/DX2                !
 ! A49   A(18,24,25)           109.8574         estimate D2E/DX2                !
 ! A50   A(18,24,26)           109.8979         estimate D2E/DX2                !
 ! A51   A(18,24,27)           107.5355         estimate D2E/DX2                !
 ! A52   A(25,24,26)           108.1108         estimate D2E/DX2                !
 ! A53   A(25,24,27)           110.8301         estimate D2E/DX2                !
 ! A54   A(26,24,27)           110.6124         estimate D2E/DX2                !
 ! A55   A(19,28,29)           109.6906         estimate D2E/DX2                !
 ! A56   A(19,28,30)           109.8136         estimate D2E/DX2                !
 ! A57   A(19,28,31)           107.7461         estimate D2E/DX2                !
 ! A58   A(29,28,30)           108.2991         estimate D2E/DX2                !
 ! A59   A(29,28,31)           110.6959         estimate D2E/DX2                !
 ! A60   A(30,28,31)           110.5924         estimate D2E/DX2                !
 ! A61   A(9,32,33)            130.8729         estimate D2E/DX2                !
 ! A62   A(9,32,34)            118.8155         estimate D2E/DX2                !
 ! A63   A(33,32,34)           110.0534         estimate D2E/DX2                !
 ! A64   A(32,33,35)           113.5189         estimate D2E/DX2                !
 ! A65   A(32,33,36)           122.7984         estimate D2E/DX2                !
 ! A66   A(35,33,36)           123.6803         estimate D2E/DX2                !
 ! A67   A(32,34,37)            92.6097         estimate D2E/DX2                !
 ! A68   A(33,35,37)           114.4877         estimate D2E/DX2                !
 ! A69   A(33,35,38)           126.4827         estimate D2E/DX2                !
 ! A70   A(37,35,38)           119.0295         estimate D2E/DX2                !
 ! A71   A(34,37,35)           109.3247         estimate D2E/DX2                !
 ! A72   A(34,37,39)           122.959          estimate D2E/DX2                !
 ! A73   A(35,37,39)           127.7001         estimate D2E/DX2                !
 ! A74   A(35,38,40)           117.4917         estimate D2E/DX2                !
 ! A75   A(37,39,41)           127.5981         estimate D2E/DX2                !
 ! A76   A(37,39,42)           123.0897         estimate D2E/DX2                !
 ! A77   A(41,39,42)           109.3122         estimate D2E/DX2                !
 ! A78   A(38,40,43)           105.9733         estimate D2E/DX2                !
 ! A79   A(38,40,44)           111.1921         estimate D2E/DX2                !
 ! A80   A(38,40,45)           111.1629         estimate D2E/DX2                !
 ! A81   A(43,40,44)           109.3243         estimate D2E/DX2                !
 ! A82   A(43,40,45)           109.7014         estimate D2E/DX2                !
 ! A83   A(44,40,45)           109.4188         estimate D2E/DX2                !
 ! A84   A(39,41,46)           114.2046         estimate D2E/DX2                !
 ! A85   A(39,41,47)           119.2689         estimate D2E/DX2                !
 ! A86   A(46,41,47)           126.526          estimate D2E/DX2                !
 ! A87   A(39,42,48)            91.8248         estimate D2E/DX2                !
 ! A88   A(41,46,48)           111.9074         estimate D2E/DX2                !
 ! A89   A(41,46,49)           124.5316         estimate D2E/DX2                !
 ! A90   A(48,46,49)           123.5609         estimate D2E/DX2                !
 ! A91   A(41,47,50)           117.9917         estimate D2E/DX2                !
 ! A92   A(42,48,46)           112.7509         estimate D2E/DX2                !
 ! A93   A(42,48,51)           119.781          estimate D2E/DX2                !
 ! A94   A(46,48,51)           127.4677         estimate D2E/DX2                !
 ! A95   A(47,50,52)           111.2842         estimate D2E/DX2                !
 ! A96   A(47,50,53)           106.0363         estimate D2E/DX2                !
 ! A97   A(47,50,54)           111.3112         estimate D2E/DX2                !
 ! A98   A(52,50,53)           109.3488         estimate D2E/DX2                !
 ! A99   A(52,50,54)           109.3995         estimate D2E/DX2                !
 ! A100  A(53,50,54)           109.3852         estimate D2E/DX2                !
 ! D1    D(19,1,2,3)             0.1578         estimate D2E/DX2                !
 ! D2    D(19,1,2,6)          -178.6792         estimate D2E/DX2                !
 ! D3    D(20,1,2,3)          -179.8231         estimate D2E/DX2                !
 ! D4    D(20,1,2,6)             1.3399         estimate D2E/DX2                !
 ! D5    D(2,1,19,5)            -0.124          estimate D2E/DX2                !
 ! D6    D(2,1,19,28)          179.8267         estimate D2E/DX2                !
 ! D7    D(20,1,19,5)          179.8575         estimate D2E/DX2                !
 ! D8    D(20,1,19,28)          -0.1919         estimate D2E/DX2                !
 ! D9    D(1,2,3,4)              0.0571         estimate D2E/DX2                !
 ! D10   D(1,2,3,7)            179.5453         estimate D2E/DX2                !
 ! D11   D(6,2,3,4)            178.8851         estimate D2E/DX2                !
 ! D12   D(6,2,3,7)             -1.6266         estimate D2E/DX2                !
 ! D13   D(1,2,6,9)            178.625          estimate D2E/DX2                !
 ! D14   D(1,2,6,17)             1.3881         estimate D2E/DX2                !
 ! D15   D(3,2,6,9)             -0.2173         estimate D2E/DX2                !
 ! D16   D(3,2,6,17)          -177.4541         estimate D2E/DX2                !
 ! D17   D(2,3,4,5)             -0.3074         estimate D2E/DX2                !
 ! D18   D(2,3,4,14)           179.3968         estimate D2E/DX2                !
 ! D19   D(7,3,4,5)           -179.7837         estimate D2E/DX2                !
 ! D20   D(7,3,4,14)            -0.0795         estimate D2E/DX2                !
 ! D21   D(2,3,7,8)              1.0523         estimate D2E/DX2                !
 ! D22   D(2,3,7,12)          -178.712          estimate D2E/DX2                !
 ! D23   D(4,3,7,8)           -179.4626         estimate D2E/DX2                !
 ! D24   D(4,3,7,12)             0.7731         estimate D2E/DX2                !
 ! D25   D(3,4,5,19)             0.3343         estimate D2E/DX2                !
 ! D26   D(3,4,5,21)          -179.7799         estimate D2E/DX2                !
 ! D27   D(14,4,5,19)         -179.3729         estimate D2E/DX2                !
 ! D28   D(14,4,5,21)            0.5129         estimate D2E/DX2                !
 ! D29   D(3,4,14,13)           -0.4559         estimate D2E/DX2                !
 ! D30   D(3,4,14,15)         -179.9937         estimate D2E/DX2                !
 ! D31   D(5,4,14,13)          179.252          estimate D2E/DX2                !
 ! D32   D(5,4,14,15)           -0.2858         estimate D2E/DX2                !
 ! D33   D(4,5,19,1)            -0.1141         estimate D2E/DX2                !
 ! D34   D(4,5,19,28)          179.9364         estimate D2E/DX2                !
 ! D35   D(21,5,19,1)          179.9992         estimate D2E/DX2                !
 ! D36   D(21,5,19,28)           0.0496         estimate D2E/DX2                !
 ! D37   D(2,6,9,8)              2.5984         estimate D2E/DX2                !
 ! D38   D(2,6,9,32)          -176.0103         estimate D2E/DX2                !
 ! D39   D(17,6,9,8)           179.77           estimate D2E/DX2                !
 ! D40   D(17,6,9,32)            1.1613         estimate D2E/DX2                !
 ! D41   D(3,7,8,9)              1.3551         estimate D2E/DX2                !
 ! D42   D(3,7,8,10)          -174.5099         estimate D2E/DX2                !
 ! D43   D(12,7,8,9)          -178.8921         estimate D2E/DX2                !
 ! D44   D(12,7,8,10)            5.2428         estimate D2E/DX2                !
 ! D45   D(3,7,12,11)          178.0768         estimate D2E/DX2                !
 ! D46   D(3,7,12,13)           -0.9621         estimate D2E/DX2                !
 ! D47   D(8,7,12,11)           -1.685          estimate D2E/DX2                !
 ! D48   D(8,7,12,13)          179.2761         estimate D2E/DX2                !
 ! D49   D(7,8,9,6)             -3.0809         estimate D2E/DX2                !
 ! D50   D(7,8,9,32)           175.3285         estimate D2E/DX2                !
 ! D51   D(10,8,9,6)           172.5381         estimate D2E/DX2                !
 ! D52   D(10,8,9,32)           -9.0525         estimate D2E/DX2                !
 ! D53   D(7,8,10,18)           -4.7549         estimate D2E/DX2                !
 ! D54   D(7,8,10,23)          174.4235         estimate D2E/DX2                !
 ! D55   D(9,8,10,18)          179.5335         estimate D2E/DX2                !
 ! D56   D(9,8,10,23)           -1.2882         estimate D2E/DX2                !
 ! D57   D(6,9,32,33)          153.4298         estimate D2E/DX2                !
 ! D58   D(6,9,32,34)          -20.0919         estimate D2E/DX2                !
 ! D59   D(8,9,32,33)          -25.0117         Frozen                          !
 ! D60   D(8,9,32,34)          161.4666         estimate D2E/DX2                !
 ! D61   D(8,10,18,11)           0.7189         estimate D2E/DX2                !
 ! D62   D(8,10,18,24)        -179.4089         estimate D2E/DX2                !
 ! D63   D(23,10,18,11)       -178.5188         estimate D2E/DX2                !
 ! D64   D(23,10,18,24)          1.3535         estimate D2E/DX2                !
 ! D65   D(18,11,12,7)          -2.3856         estimate D2E/DX2                !
 ! D66   D(18,11,12,13)        176.6833         estimate D2E/DX2                !
 ! D67   D(22,11,12,7)         178.4862         estimate D2E/DX2                !
 ! D68   D(22,11,12,13)         -2.445          estimate D2E/DX2                !
 ! D69   D(12,11,18,10)          2.8444         estimate D2E/DX2                !
 ! D70   D(12,11,18,24)       -177.0251         estimate D2E/DX2                !
 ! D71   D(22,11,18,10)       -178.0181         estimate D2E/DX2                !
 ! D72   D(22,11,18,24)          2.1124         estimate D2E/DX2                !
 ! D73   D(7,12,13,14)           0.461          estimate D2E/DX2                !
 ! D74   D(7,12,13,16)        -179.8781         estimate D2E/DX2                !
 ! D75   D(11,12,13,14)       -178.6049         estimate D2E/DX2                !
 ! D76   D(11,12,13,16)          1.056          estimate D2E/DX2                !
 ! D77   D(12,13,14,4)           0.2708         estimate D2E/DX2                !
 ! D78   D(12,13,14,15)        179.7958         estimate D2E/DX2                !
 ! D79   D(16,13,14,4)        -179.3788         estimate D2E/DX2                !
 ! D80   D(16,13,14,15)          0.1463         estimate D2E/DX2                !
 ! D81   D(10,18,24,25)        -59.609          estimate D2E/DX2                !
 ! D82   D(10,18,24,26)         59.2209         estimate D2E/DX2                !
 ! D83   D(10,18,24,27)        179.6858         estimate D2E/DX2                !
 ! D84   D(11,18,24,25)        120.2739         estimate D2E/DX2                !
 ! D85   D(11,18,24,26)       -120.8962         estimate D2E/DX2                !
 ! D86   D(11,18,24,27)         -0.4313         estimate D2E/DX2                !
 ! D87   D(1,19,28,29)         -58.1407         estimate D2E/DX2                !
 ! D88   D(1,19,28,30)          60.7668         estimate D2E/DX2                !
 ! D89   D(1,19,28,31)        -178.7139         estimate D2E/DX2                !
 ! D90   D(5,19,28,29)         121.8132         estimate D2E/DX2                !
 ! D91   D(5,19,28,30)        -119.2792         estimate D2E/DX2                !
 ! D92   D(5,19,28,31)           1.2401         estimate D2E/DX2                !
 ! D93   D(9,32,33,35)        -174.235          estimate D2E/DX2                !
 ! D94   D(9,32,33,36)           6.314          estimate D2E/DX2                !
 ! D95   D(34,32,33,35)         -0.2757         estimate D2E/DX2                !
 ! D96   D(34,32,33,36)       -179.7268         estimate D2E/DX2                !
 ! D97   D(9,32,34,37)         175.3553         estimate D2E/DX2                !
 ! D98   D(33,32,34,37)          0.5662         estimate D2E/DX2                !
 ! D99   D(32,33,35,37)         -0.2722         estimate D2E/DX2                !
 ! D100  D(32,33,35,38)        179.7578         estimate D2E/DX2                !
 ! D101  D(36,33,35,37)        179.1733         estimate D2E/DX2                !
 ! D102  D(36,33,35,38)         -0.7967         estimate D2E/DX2                !
 ! D103  D(32,34,37,35)         -0.7038         estimate D2E/DX2                !
 ! D104  D(32,34,37,39)        177.9378         estimate D2E/DX2                !
 ! D105  D(33,35,37,34)          0.6865         estimate D2E/DX2                !
 ! D106  D(33,35,37,39)       -177.873          estimate D2E/DX2                !
 ! D107  D(38,35,37,34)       -179.3411         estimate D2E/DX2                !
 ! D108  D(38,35,37,39)          2.0994         estimate D2E/DX2                !
 ! D109  D(33,35,38,40)          6.5047         estimate D2E/DX2                !
 ! D110  D(37,35,38,40)       -173.4641         estimate D2E/DX2                !
 ! D111  D(34,37,39,41)          2.8263         estimate D2E/DX2                !
 ! D112  D(34,37,39,42)       -177.157          estimate D2E/DX2                !
 ! D113  D(35,37,39,41)       -178.7938         estimate D2E/DX2                !
 ! D114  D(35,37,39,42)          1.2229         estimate D2E/DX2                !
 ! D115  D(35,38,40,43)        175.5055         estimate D2E/DX2                !
 ! D116  D(35,38,40,44)        -65.7993         estimate D2E/DX2                !
 ! D117  D(35,38,40,45)         56.3732         estimate D2E/DX2                !
 ! D118  D(37,39,41,46)       -179.983          estimate D2E/DX2                !
 ! D119  D(37,39,41,47)         -0.1979         estimate D2E/DX2                !
 ! D120  D(42,39,41,46)          0.0023         estimate D2E/DX2                !
 ! D121  D(42,39,41,47)        179.7873         estimate D2E/DX2                !
 ! D122  D(37,39,42,48)        179.9687         estimate D2E/DX2                !
 ! D123  D(41,39,42,48)         -0.0173         estimate D2E/DX2                !
 ! D124  D(39,41,46,48)          0.0194         estimate D2E/DX2                !
 ! D125  D(39,41,46,49)       -179.9844         estimate D2E/DX2                !
 ! D126  D(47,41,46,48)       -179.7473         estimate D2E/DX2                !
 ! D127  D(47,41,46,49)          0.2489         estimate D2E/DX2                !
 ! D128  D(39,41,47,50)        178.3534         estimate D2E/DX2                !
 ! D129  D(46,41,47,50)         -1.8905         estimate D2E/DX2                !
 ! D130  D(39,42,48,46)          0.0291         estimate D2E/DX2                !
 ! D131  D(39,42,48,51)        179.8297         estimate D2E/DX2                !
 ! D132  D(41,46,48,42)         -0.0326         estimate D2E/DX2                !
 ! D133  D(41,46,48,51)       -179.8146         estimate D2E/DX2                !
 ! D134  D(49,46,48,42)        179.9712         estimate D2E/DX2                !
 ! D135  D(49,46,48,51)          0.1892         estimate D2E/DX2                !
 ! D136  D(41,47,50,52)         62.0853         estimate D2E/DX2                !
 ! D137  D(41,47,50,53)       -179.1025         estimate D2E/DX2                !
 ! D138  D(41,47,50,54)        -60.2317         estimate D2E/DX2                !
 --------------------------------------------------------------------------------
 Trust Radius=3.00D-01 FncErr=1.00D-07 GrdErr=1.00D-06 EigMax=2.50D+02 EigMin=1.00D-04
 Number of steps in this run=    307 maximum allowed number of steps=    324.
 GradGradGradGradGradGradGradGradGradGradGradGradGradGradGradGradGradGrad

 Stoichiometry    C26H18N2O6S2
 Framework group  C1[X(C26H18N2O6S2)]
 Deg. of freedom   156
 Full point group                 C1      NOp   1
 Largest Abelian subgroup         C1      NOp   1
 Largest concise Abelian subgroup C1      NOp   1
                         Standard orientation:                         
 ---------------------------------------------------------------------
 Center     Atomic      Atomic             Coordinates (Angstroms)
 Number     Number       Type             X           Y           Z
 ---------------------------------------------------------------------
      1          6           0        2.508459   -3.022328    0.246641
      2          6           0        2.227538   -1.567679    0.123398
      3          6           0        3.287785   -0.633097    0.065212
      4          6           0        4.629420   -1.070668    0.122338
      5          6           0        4.946280   -2.518046    0.251198
      6          6           0        0.926038   -1.134833    0.090476
      7          6           0        2.972967    0.750125   -0.062740
      8          6           0        1.613052    1.194404   -0.109151
      9          6           0        0.560768    0.245031    0.002680
     10          6           0        1.375706    2.640314   -0.369561
     11          6           0        3.831559    3.106233   -0.323193
     12          6           0        4.062692    1.656558   -0.146337
     13          6           0        5.376009    1.209110   -0.084672
     14          6           0        5.667800   -0.153251    0.052525
     15          1           0        6.688727   -0.513055    0.098326
     16          1           0        6.166549    1.948330   -0.151878
     17          1           0        0.152521   -1.888430    0.180606
     18          7           0        2.495568    3.491173   -0.450848
     19          7           0        3.854936   -3.401885    0.303797
     20          8           0        1.625879   -3.867692    0.297385
     21          8           0        6.096239   -2.927066    0.307073
     22          8           0        4.744665    3.921089   -0.372378
     23          8           0        0.271828    3.144244   -0.533351
     24          6           0        2.203228    4.907966   -0.695575
     25          1           0        1.665570    5.017931   -1.638545
     26          1           0        1.570243    5.300754    0.104265
     27          1           0        3.151635    5.437138   -0.727593
     28          6           0        4.120016   -4.839423    0.429337
     29          1           0        3.636444   -5.225551    1.329136
     30          1           0        3.710467   -5.367928   -0.433524
     31          1           0        5.196934   -4.974097    0.484203
     32          6           0       -0.875734    0.510291    0.071990
     33          6           0       -1.569457    1.627536    0.495764
     34         16           0       -2.000320   -0.800277   -0.285358
     35          6           0       -2.965186    1.443513    0.528266
     36          1           0       -1.081917    2.550135    0.764690
     37          6           0       -3.392052    0.175461    0.123164
     38          8           0       -3.893372    2.362783    0.906049
     39          6           0       -4.740945   -0.301174    0.007592
     40          6           0       -3.437069    3.686277    1.175662
     41          6           0       -5.163651   -1.573429   -0.374531
     42         16           0       -6.147996    0.702147    0.348820
     43          1           0       -4.331026    4.276405    1.378082
     44          1           0       -2.781222    3.708188    2.054123
     45          1           0       -2.905264    4.104972    0.313213
     46          6           0       -6.577378   -1.737669   -0.392771
     47          8           0       -4.235898   -2.514810   -0.690306
     48          6           0       -7.229733   -0.591115   -0.025216
     49          1           0       -7.084793   -2.653937   -0.663077
     50          6           0       -4.696058   -3.814136   -1.042010
     51          1           0       -8.296775   -0.436991    0.049456
     52          1           0       -5.319314   -3.785181   -1.944876
     53          1           0       -3.803334   -4.406542   -1.238575
     54          1           0       -5.262973   -4.271282   -0.222756
 ---------------------------------------------------------------------
 Rotational constants (GHZ):           0.1529771           0.0599158           0.0438941
 Standard basis: 6-311+G(d,p) (5D, 7F)
 There are   952 symmetry adapted cartesian basis functions of A   symmetry.
 There are   916 symmetry adapted basis functions of A   symmetry.
   916 basis functions,  1468 primitive gaussians,   952 cartesian basis functions
   134 alpha electrons      134 beta electrons
       nuclear repulsion energy      4087.5778932100 Hartrees.
 NAtoms=   54 NActive=   54 NUniq=   54 SFac= 1.00D+00 NAtFMM=   60 NAOKFM=F Big=F
 Integral buffers will be    131072 words long.
 Raffenetti 2 integral format.
 Two-electron integral symmetry is turned on.
 ------------------------------------------------------------------------------
 Polarizable Continuum Model (PCM)
 =================================
 Model                : PCM.
 Atomic radii         : UFF (Universal Force Field).
 Polarization charges : Total charges.
 Charge compensation  : None.
 Solution method      : On-the-fly selection.
 Cavity type          : Scaled VdW (van der Waals Surface) (Alpha=1.100).
 Cavity algorithm     : GePol (No added spheres)
                        Default sphere list used, NSphG=   54.
                        Lebedev-Laikov grids with approx.  5.0 points / Ang**2.
                        Smoothing algorithm: York/Karplus (Gamma=1.0000).
                        Polarization charges: spherical gaussians, with
                                              point-specific exponents (IZeta= 3).
                        Self-potential: point-specific (ISelfS= 7).
                        Self-field    : sphere-specific E.n sum rule (ISelfD= 2).
 1st derivatives      : Analytical E(r).r(x)/FMM algorithm (CHGder, D1EAlg=3).
                        Cavity 1st derivative terms included.
 Solvent              : Water, Eps=  78.355300 Eps(inf)=   1.777849
 ------------------------------------------------------------------------------
 One-electron integrals computed using PRISM.
 NBasis=   916 RedAO= T EigKep=  1.51D-06  NBF=   916
 NBsUse=   901 1.00D-06 EigRej=  8.76D-07 NBFU=   901
 ExpMin= 4.05D-02 ExpMax= 9.34D+04 ExpMxC= 3.17D+03 IAcc=3 IRadAn=         5 AccDes= 0.00D+00
 Harris functional with IExCor=  402 and IRadAn=       5 diagonalized for initial guess.
 HarFok:  IExCor=  402 AccDes= 0.00D+00 IRadAn=         5 IDoV= 1 UseB2=F ITyADJ=14
 ICtDFT=  3500011 ScaDFX=  1.000000  1.000000  1.000000  1.000000
 FoFCou: FMM=F IPFlag=           0 FMFlag=      100000 FMFlg1=           0
         NFxFlg=           0 DoJE=T BraDBF=F KetDBF=T FulRan=T
         wScrn=  0.000000 ICntrl=       500 IOpCl=  0 I1Cent=   200000004 NGrid=           0
         NMat0=    1 NMatS0=      1 NMatT0=    0 NMatD0=    1 NMtDS0=    0 NMtDT0=    0
 Petite list used in FoFCou.
 Requested convergence on RMS density matrix=1.00D-08 within 128 cycles.
 Requested convergence on MAX density matrix=1.00D-06.
 Requested convergence on             energy=1.00D-06.
 No special actions if energy rises.
 Inv3:  Mode=1 IEnd=    52970412.
 Iteration    1 A*A^-1 deviation from unit magnitude is 6.00D-15 for   4177.
 Iteration    1 A*A^-1 deviation from orthogonality  is 2.30D-15 for   2436    492.
 Iteration    1 A^-1*A deviation from unit magnitude is 6.00D-15 for   4177.
 Iteration    1 A^-1*A deviation from orthogonality  is 3.43D-15 for   1613   1608.
 Error on total polarization charges =  0.02315
 SCF Done:  E(RB3LYP) =  -2359.35519658     A.U. after   17 cycles
            NFock= 17  Conv=0.23D-08     -V/T= 2.0032

 **********************************************************************

            Population analysis using the SCF Density.

 **********************************************************************

 Orbital symmetries:
       Occupied  (A) (A) (A) (A) (A) (A) (A) (A) (A) (A) (A) (A)
                 (A) (A) (A) (A) (A) (A) (A) (A) (A) (A) (A) (A)
                 (A) (A) (A) (A) (A) (A) (A) (A) (A) (A) (A) (A)
                 (A) (A) (A) (A) (A) (A) (A) (A) (A) (A) (A) (A)
                 (A) (A) (A) (A) (A) (A) (A) (A) (A) (A) (A) (A)
                 (A) (A) (A) (A) (A) (A) (A) (A) (A) (A) (A) (A)
                 (A) (A) (A) (A) (A) (A) (A) (A) (A) (A) (A) (A)
                 (A) (A) (A) (A) (A) (A) (A) (A) (A) (A) (A) (A)
                 (A) (A) (A) (A) (A) (A) (A) (A) (A) (A) (A) (A)
                 (A) (A) (A) (A) (A) (A) (A) (A) (A) (A) (A) (A)
                 (A) (A) (A) (A) (A) (A) (A) (A) (A) (A) (A) (A)
                 (A) (A)
       Virtual   (A) (A) (A) (A) (A) (A) (A) (A) (A) (A) (A) (A)
                 (A) (A) (A) (A) (A) (A) (A) (A) (A) (A) (A) (A)
                 (A) (A) (A) (A) (A) (A) (A) (A) (A) (A) (A) (A)
                 (A) (A) (A) (A) (A) (A) (A) (A) (A) (A) (A) (A)
                 (A) (A) (A) (A) (A) (A) (A) (A) (A) (A) (A) (A)
                 (A) (A) (A) (A) (A) (A) (A) (A) (A) (A) (A) (A)
                 (A) (A) (A) (A) (A) (A) (A) (A) (A) (A) (A) (A)
                 (A) (A) (A) (A) (A) (A) (A) (A) (A) (A) (A) (A)
                 (A) (A) (A) (A) (A) (A) (A) (A) (A) (A) (A) (A)
                 (A) (A) (A) (A) (A) (A) (A) (A) (A) (A) (A) (A)
                 (A) (A) (A) (A) (A) (A) (A) (A) (A) (A) (A) (A)
                 (A) (A) (A) (A) (A) (A) (A) (A) (A) (A) (A) (A)
                 (A) (A) (A) (A) (A) (A) (A) (A) (A) (A) (A) (A)
                 (A) (A) (A) (A) (A) (A) (A) (A) (A) (A) (A) (A)
                 (A) (A) (A) (A) (A) (A) (A) (A) (A) (A) (A) (A)
                 (A) (A) (A) (A) (A) (A) (A) (A) (A) (A) (A) (A)
                 (A) (A) (A) (A) (A) (A) (A) (A) (A) (A) (A) (A)
                 (A) (A) (A) (A) (A) (A) (A) (A) (A) (A) (A) (A)
                 (A) (A) (A) (A) (A) (A) (A) (A) (A) (A) (A) (A)
                 (A) (A) (A) (A) (A) (A) (A) (A) (A) (A) (A) (A)
                 (A) (A) (A) (A) (A) (A) (A) (A) (A) (A) (A) (A)
                 (A) (A) (A) (A) (A) (A) (A) (A) (A) (A) (A) (A)
                 (A) (A) (A) (A) (A) (A) (A) (A) (A) (A) (A) (A)
                 (A) (A) (A) (A) (A) (A) (A) (A) (A) (A) (A) (A)
                 (A) (A) (A) (A) (A) (A) (A) (A) (A) (A) (A) (A)
                 (A) (A) (A) (A) (A) (A) (A) (A) (A) (A) (A) (A)
                 (A) (A) (A) (A) (A) (A) (A) (A) (A) (A) (A) (A)
                 (A) (A) (A) (A) (A) (A) (A) (A) (A) (A) (A) (A)
                 (A) (A) (A) (A) (A) (A) (A) (A) (A) (A) (A) (A)
                 (A) (A) (A) (A) (A) (A) (A) (A) (A) (A) (A) (A)
                 (A) (A) (A) (A) (A) (A) (A) (A) (A) (A) (A) (A)
                 (A) (A) (A) (A) (A) (A) (A) (A) (A) (A) (A) (A)
                 (A) (A) (A) (A) (A) (A) (A) (A) (A) (A) (A) (A)
                 (A) (A) (A) (A) (A) (A) (A) (A) (A) (A) (A) (A)
                 (A) (A) (A) (A) (A) (A) (A) (A) (A) (A) (A) (A)
                 (A) (A) (A) (A) (A) (A) (A) (A) (A) (A) (A) (A)
                 (A) (A) (A) (A) (A) (A) (A) (A) (A) (A) (A) (A)
                 (A) (A) (A) (A) (A) (A) (A) (A) (A) (A) (A) (A)
                 (A) (A) (A) (A) (A) (A) (A) (A) (A) (A) (A) (A)
                 (A) (A) (A) (A) (A) (A) (A) (A) (A) (A) (A) (A)
                 (A) (A) (A) (A) (A) (A) (A) (A) (A) (A) (A) (A)
                 (A) (A) (A) (A) (A) (A) (A) (A) (A) (A) (A) (A)
                 (A) (A) (A) (A) (A) (A) (A) (A) (A) (A) (A) (A)
                 (A) (A) (A) (A) (A) (A) (A) (A) (A) (A) (A) (A)
                 (A) (A) (A) (A) (A) (A) (A) (A) (A) (A) (A) (A)
                 (A) (A) (A) (A) (A) (A) (A) (A) (A) (A) (A) (A)
                 (A) (A) (A) (A) (A) (A) (A) (A) (A) (A) (A) (A)
                 (A) (A) (A) (A) (A) (A) (A) (A) (A) (A) (A) (A)
                 (A) (A) (A) (A) (A) (A) (A) (A) (A) (A) (A) (A)
                 (A) (A) (A) (A) (A) (A) (A) (A) (A) (A) (A) (A)
                 (A) (A) (A) (A) (A) (A) (A) (A) (A) (A) (A) (A)
                 (A) (A) (A) (A) (A) (A) (A) (A) (A) (A) (A) (A)
                 (A) (A) (A) (A) (A) (A) (A) (A) (A) (A) (A) (A)
                 (A) (A) (A) (A) (A) (A) (A) (A) (A) (A) (A) (A)
                 (A) (A) (A) (A) (A) (A) (A) (A) (A) (A) (A) (A)
                 (A) (A) (A) (A) (A) (A) (A) (A) (A) (A) (A) (A)
                 (A) (A) (A) (A) (A) (A) (A) (A) (A) (A) (A) (A)
                 (A) (A) (A) (A) (A) (A) (A) (A) (A) (A) (A) (A)
                 (A) (A) (A) (A) (A) (A) (A) (A) (A) (A) (A) (A)
                 (A) (A) (A) (A) (A) (A) (A) (A) (A) (A) (A) (A)
                 (A) (A) (A) (A) (A) (A) (A) (A) (A) (A) (A) (A)
                 (A) (A) (A) (A) (A) (A) (A) (A) (A) (A) (A) (A)
                 (A) (A) (A) (A) (A) (A) (A) (A) (A) (A) (A) (A)
                 (A) (A) (A) (A) (A) (A) (A) (A) (A) (A) (A)
 The electronic state is 1-A.
 Alpha  occ. eigenvalues --  -88.88952 -88.88832 -19.17375 -19.17076 -19.12982
 Alpha  occ. eigenvalues --  -19.12981 -19.12252 -19.12032 -14.38879 -14.38326
 Alpha  occ. eigenvalues --  -10.31534 -10.31413 -10.30984 -10.30763 -10.25347
 Alpha  occ. eigenvalues --  -10.25004 -10.24087 -10.23189 -10.22916 -10.22847
 Alpha  occ. eigenvalues --  -10.22810 -10.22552 -10.22550 -10.22380 -10.22263
 Alpha  occ. eigenvalues --  -10.22238 -10.22170 -10.21855 -10.21576 -10.21313
 Alpha  occ. eigenvalues --  -10.20928 -10.20897 -10.20825 -10.20570 -10.19080
 Alpha  occ. eigenvalues --  -10.18899  -7.97531  -7.97386  -5.93849  -5.93696
 Alpha  occ. eigenvalues --   -5.93460  -5.93308  -5.93073  -5.92955  -1.08909
 Alpha  occ. eigenvalues --   -1.08869  -1.08579  -1.08432  -1.07141  -1.06570
 Alpha  occ. eigenvalues --   -0.96454  -0.95823  -0.92240  -0.90733  -0.89063
 Alpha  occ. eigenvalues --   -0.86570  -0.84087  -0.80560  -0.78400  -0.77856
 Alpha  occ. eigenvalues --   -0.76429  -0.75429  -0.75106  -0.73392  -0.72323
 Alpha  occ. eigenvalues --   -0.71835  -0.70166  -0.68858  -0.67318  -0.65737
 Alpha  occ. eigenvalues --   -0.65611  -0.64734  -0.61349  -0.59964  -0.58669
 Alpha  occ. eigenvalues --   -0.57354  -0.56727  -0.56304  -0.55352  -0.54931
 Alpha  occ. eigenvalues --   -0.53396  -0.51748  -0.50555  -0.50072  -0.49891
 Alpha  occ. eigenvalues --   -0.49461  -0.49079  -0.48520  -0.48429  -0.48080
 Alpha  occ. eigenvalues --   -0.48002  -0.47389  -0.46834  -0.46501  -0.46096
 Alpha  occ. eigenvalues --   -0.45464  -0.45382  -0.44692  -0.44021  -0.43340
 Alpha  occ. eigenvalues --   -0.42926  -0.42884  -0.42360  -0.42205  -0.41797
 Alpha  occ. eigenvalues --   -0.41732  -0.41165  -0.41127  -0.40546  -0.39979
 Alpha  occ. eigenvalues --   -0.39595  -0.39172  -0.38875  -0.37976  -0.37418
 Alpha  occ. eigenvalues --   -0.36374  -0.36210  -0.34444  -0.34155  -0.33764
 Alpha  occ. eigenvalues --   -0.33596  -0.32105  -0.31514  -0.30810  -0.30211
 Alpha  occ. eigenvalues --   -0.29682  -0.29386  -0.28986  -0.28520  -0.27396
 Alpha  occ. eigenvalues --   -0.26286  -0.25093  -0.25026  -0.19866
 Alpha virt. eigenvalues --   -0.13227  -0.07998  -0.06645  -0.04830  -0.03706
 Alpha virt. eigenvalues --   -0.00655  -0.00513   0.00153   0.00346   0.00511
 Alpha virt. eigenvalues --    0.00787   0.01266   0.01412   0.01560   0.01997
 Alpha virt. eigenvalues --    0.02235   0.02665   0.02804   0.02957   0.03278
 Alpha virt. eigenvalues --    0.03592   0.03853   0.03927   0.04327   0.04659
 Alpha virt. eigenvalues --    0.04833   0.04940   0.05241   0.05698   0.05930
 Alpha virt. eigenvalues --    0.06184   0.06263   0.06660   0.06893   0.07244
 Alpha virt. eigenvalues --    0.07331   0.07640   0.07786   0.07837   0.08317
 Alpha virt. eigenvalues --    0.08590   0.08759   0.08796   0.09349   0.09581
 Alpha virt. eigenvalues --    0.09700   0.09909   0.10005   0.10414   0.10652
 Alpha virt. eigenvalues --    0.10763   0.11162   0.11575   0.11826   0.12142
 Alpha virt. eigenvalues --    0.12323   0.12900   0.13074   0.13425   0.13566
 Alpha virt. eigenvalues --    0.13630   0.13777   0.14006   0.14157   0.14224
 Alpha virt. eigenvalues --    0.14592   0.14905   0.15195   0.15320   0.15456
 Alpha virt. eigenvalues --    0.15514   0.15785   0.15938   0.16376   0.16467
 Alpha virt. eigenvalues --    0.16635   0.16931   0.17357   0.17440   0.17760
 Alpha virt. eigenvalues --    0.17902   0.18196   0.18353   0.18553   0.18673
 Alpha virt. eigenvalues --    0.18841   0.19091   0.19513   0.19637   0.19708
 Alpha virt. eigenvalues --    0.20046   0.20117   0.20208   0.20237   0.20531
 Alpha virt. eigenvalues --    0.20640   0.20740   0.21174   0.21419   0.21637
 Alpha virt. eigenvalues --    0.21824   0.21959   0.22078   0.22323   0.22468
 Alpha virt. eigenvalues --    0.22651   0.23116   0.23226   0.23482   0.23595
 Alpha virt. eigenvalues --    0.23751   0.23789   0.24224   0.24258   0.24364
 Alpha virt. eigenvalues --    0.24502   0.24674   0.24856   0.25368   0.25635
 Alpha virt. eigenvalues --    0.25683   0.25833   0.26026   0.26192   0.26402
 Alpha virt. eigenvalues --    0.26548   0.26738   0.26826   0.27001   0.27269
 Alpha virt. eigenvalues --    0.27387   0.27629   0.27776   0.28340   0.28434
 Alpha virt. eigenvalues --    0.28513   0.28738   0.28863   0.29096   0.29231
 Alpha virt. eigenvalues --    0.29279   0.29562   0.29908   0.30207   0.30318
 Alpha virt. eigenvalues --    0.31045   0.31160   0.31530   0.31837   0.31931
 Alpha virt. eigenvalues --    0.32165   0.32316   0.32641   0.32717   0.33201
 Alpha virt. eigenvalues --    0.33525   0.33691   0.33902   0.34153   0.34471
 Alpha virt. eigenvalues --    0.34920   0.35187   0.35286   0.35450   0.35922
 Alpha virt. eigenvalues --    0.36533   0.37030   0.37209   0.37368   0.37838
 Alpha virt. eigenvalues --    0.38096   0.38251   0.38690   0.39100   0.39201
 Alpha virt. eigenvalues --    0.40064   0.40401   0.40583   0.41186   0.41619
 Alpha virt. eigenvalues --    0.42271   0.42340   0.42817   0.43252   0.43346
 Alpha virt. eigenvalues --    0.43708   0.43731   0.44637   0.44858   0.45374
 Alpha virt. eigenvalues --    0.45685   0.45825   0.46370   0.46744   0.47033
 Alpha virt. eigenvalues --    0.47477   0.47787   0.48461   0.48954   0.49250
 Alpha virt. eigenvalues --    0.49622   0.49927   0.50236   0.50767   0.51372
 Alpha virt. eigenvalues --    0.51734   0.52477   0.52822   0.53267   0.53494
 Alpha virt. eigenvalues --    0.54341   0.54734   0.55076   0.55421   0.55762
 Alpha virt. eigenvalues --    0.56328   0.56529   0.56712   0.56945   0.57293
 Alpha virt. eigenvalues --    0.58010   0.58162   0.58499   0.59114   0.59504
 Alpha virt. eigenvalues --    0.59799   0.60116   0.60846   0.60874   0.61186
 Alpha virt. eigenvalues --    0.61594   0.61612   0.62074   0.62616   0.63319
 Alpha virt. eigenvalues --    0.63614   0.64100   0.64472   0.64856   0.64927
 Alpha virt. eigenvalues --    0.65298   0.65443   0.65727   0.65900   0.66157
 Alpha virt. eigenvalues --    0.66530   0.66915   0.67490   0.67702   0.68626
 Alpha virt. eigenvalues --    0.68886   0.69241   0.69594   0.69943   0.70260
 Alpha virt. eigenvalues --    0.70643   0.71386   0.71750   0.72084   0.72257
 Alpha virt. eigenvalues --    0.72721   0.73293   0.73385   0.73895   0.74122
 Alpha virt. eigenvalues --    0.74676   0.74707   0.75059   0.75354   0.75763
 Alpha virt. eigenvalues --    0.76193   0.76336   0.76757   0.77143   0.77641
 Alpha virt. eigenvalues --    0.77777   0.78239   0.78768   0.79119   0.79600
 Alpha virt. eigenvalues --    0.79983   0.80348   0.81075   0.82263   0.82539
 Alpha virt. eigenvalues --    0.83377   0.83922   0.84293   0.84996   0.85513
 Alpha virt. eigenvalues --    0.86362   0.87092   0.87616   0.88618   0.88821
 Alpha virt. eigenvalues --    0.88993   0.89222   0.90470   0.90763   0.90930
 Alpha virt. eigenvalues --    0.91290   0.92401   0.92464   0.92916   0.93303
 Alpha virt. eigenvalues --    0.93493   0.93954   0.94320   0.94836   0.95068
 Alpha virt. eigenvalues --    0.95647   0.95968   0.96248   0.96629   0.96996
 Alpha virt. eigenvalues --    0.97588   0.97994   0.98822   0.99534   1.00570
 Alpha virt. eigenvalues --    1.00995   1.01397   1.01483   1.01631   1.02211
 Alpha virt. eigenvalues --    1.02792   1.03476   1.03681   1.03991   1.04350
 Alpha virt. eigenvalues --    1.04706   1.05047   1.05685   1.06214   1.06293
 Alpha virt. eigenvalues --    1.06476   1.06882   1.07298   1.07776   1.08032
 Alpha virt. eigenvalues --    1.08532   1.09074   1.09456   1.09531   1.10413
 Alpha virt. eigenvalues --    1.11497   1.11752   1.12866   1.14223   1.14774
 Alpha virt. eigenvalues --    1.15081   1.15243   1.16346   1.17306   1.17462
 Alpha virt. eigenvalues --    1.17710   1.18583   1.18879   1.20215   1.20941
 Alpha virt. eigenvalues --    1.21549   1.21824   1.23131   1.24060   1.24468
 Alpha virt. eigenvalues --    1.25194   1.25551   1.26193   1.26433   1.27105
 Alpha virt. eigenvalues --    1.28569   1.28902   1.29788   1.30277   1.31119
 Alpha virt. eigenvalues --    1.31235   1.32280   1.32852   1.33921   1.34612
 Alpha virt. eigenvalues --    1.35051   1.35826   1.37426   1.37998   1.39157
 Alpha virt. eigenvalues --    1.39965   1.41125   1.42024   1.42240   1.42711
 Alpha virt. eigenvalues --    1.43285   1.43329   1.43754   1.44048   1.44430
 Alpha virt. eigenvalues --    1.44872   1.45461   1.45844   1.45957   1.46118
 Alpha virt. eigenvalues --    1.46754   1.47350   1.47588   1.48627   1.48890
 Alpha virt. eigenvalues --    1.49611   1.50696   1.51393   1.51737   1.52495
 Alpha virt. eigenvalues --    1.53611   1.53967   1.54143   1.54971   1.55177
 Alpha virt. eigenvalues --    1.55418   1.55696   1.55843   1.56439   1.56808
 Alpha virt. eigenvalues --    1.57327   1.58520   1.59873   1.60725   1.61592
 Alpha virt. eigenvalues --    1.62412   1.62880   1.63365   1.63734   1.64203
 Alpha virt. eigenvalues --    1.65092   1.66159   1.66416   1.67223   1.67543
 Alpha virt. eigenvalues --    1.67980   1.69008   1.69280   1.69555   1.69793
 Alpha virt. eigenvalues --    1.70238   1.70783   1.71401   1.71534   1.71730
 Alpha virt. eigenvalues --    1.72640   1.73387   1.74170   1.75103   1.75561
 Alpha virt. eigenvalues --    1.76014   1.76931   1.77612   1.78114   1.78813
 Alpha virt. eigenvalues --    1.79082   1.79373   1.79886   1.80821   1.81924
 Alpha virt. eigenvalues --    1.84015   1.84615   1.84969   1.85445   1.85709
 Alpha virt. eigenvalues --    1.86399   1.86873   1.87260   1.87896   1.88555
 Alpha virt. eigenvalues --    1.89416   1.89813   1.90303   1.91032   1.92091
 Alpha virt. eigenvalues --    1.92301   1.93003   1.93559   1.94674   1.95192
 Alpha virt. eigenvalues --    1.96115   1.96935   1.97216   1.98336   1.98989
 Alpha virt. eigenvalues --    1.99442   2.00120   2.01238   2.01960   2.02175
 Alpha virt. eigenvalues --    2.02987   2.03288   2.04159   2.04501   2.04700
 Alpha virt. eigenvalues --    2.05805   2.06153   2.06888   2.07302   2.07602
 Alpha virt. eigenvalues --    2.08623   2.09324   2.10540   2.11211   2.11953
 Alpha virt. eigenvalues --    2.12533   2.13678   2.14070   2.14848   2.15122
 Alpha virt. eigenvalues --    2.16162   2.16484   2.18421   2.18678   2.19016
 Alpha virt. eigenvalues --    2.19832   2.20279   2.20975   2.22302   2.23098
 Alpha virt. eigenvalues --    2.24149   2.25578   2.26315   2.26658   2.28860
 Alpha virt. eigenvalues --    2.31133   2.32618   2.33283   2.35226   2.37083
 Alpha virt. eigenvalues --    2.37951   2.39179   2.39915   2.41841   2.42737
 Alpha virt. eigenvalues --    2.43675   2.44019   2.44300   2.44993   2.46491
 Alpha virt. eigenvalues --    2.46950   2.47346   2.48505   2.49183   2.49727
 Alpha virt. eigenvalues --    2.50142   2.51567   2.52538   2.52731   2.53144
 Alpha virt. eigenvalues --    2.53329   2.53847   2.54360   2.54996   2.55937
 Alpha virt. eigenvalues --    2.56868   2.57671   2.58565   2.59062   2.60281
 Alpha virt. eigenvalues --    2.62749   2.63324   2.63760   2.64869   2.66806
 Alpha virt. eigenvalues --    2.67078   2.67240   2.67834   2.68419   2.68711
 Alpha virt. eigenvalues --    2.69169   2.70168   2.70237   2.70941   2.71300
 Alpha virt. eigenvalues --    2.71884   2.72927   2.73718   2.74511   2.75644
 Alpha virt. eigenvalues --    2.75913   2.76426   2.77373   2.78729   2.80523
 Alpha virt. eigenvalues --    2.81446   2.82024   2.82699   2.84031   2.84051
 Alpha virt. eigenvalues --    2.84317   2.84370   2.85323   2.85583   2.86433
 Alpha virt. eigenvalues --    2.87708   2.88231   2.88511   2.89054   2.89868
 Alpha virt. eigenvalues --    2.90953   2.91872   2.92570   2.92979   2.93884
 Alpha virt. eigenvalues --    2.94424   2.95271   2.96105   2.97453   2.99689
 Alpha virt. eigenvalues --    3.01021   3.02227   3.03255   3.04071   3.04826
 Alpha virt. eigenvalues --    3.06125   3.06416   3.08864   3.09088   3.11614
 Alpha virt. eigenvalues --    3.12033   3.13229   3.13949   3.14373   3.15185
 Alpha virt. eigenvalues --    3.16025   3.17974   3.18383   3.20292   3.21284
 Alpha virt. eigenvalues --    3.22967   3.23433   3.23708   3.24839   3.26176
 Alpha virt. eigenvalues --    3.28273   3.28715   3.30377   3.31836   3.33202
 Alpha virt. eigenvalues --    3.33726   3.34107   3.34738   3.35364   3.37089
 Alpha virt. eigenvalues --    3.38497   3.39518   3.40941   3.42087   3.43596
 Alpha virt. eigenvalues --    3.44044   3.45421   3.45757   3.48285   3.48772
 Alpha virt. eigenvalues --    3.51160   3.53351   3.55521   3.57485   3.59303
 Alpha virt. eigenvalues --    3.60124   3.61837   3.64866   3.66061   3.66558
 Alpha virt. eigenvalues --    3.69509   3.69960   3.72222   3.72921   3.75604
 Alpha virt. eigenvalues --    3.76856   3.77212   3.80795   3.82887   3.84809
 Alpha virt. eigenvalues --    3.85359   3.86257   3.89606   3.91132   3.92640
 Alpha virt. eigenvalues --    3.93109   3.94486   3.96717   4.01202   4.02687
 Alpha virt. eigenvalues --    4.04436   4.08125   4.10343   4.12658   4.13991
 Alpha virt. eigenvalues --    4.19695   4.23493   4.25014   4.27188   4.35105
 Alpha virt. eigenvalues --    4.39950   4.40379   4.52742   4.70557   4.84328
 Alpha virt. eigenvalues --    4.86152   4.87324   4.90357   5.01009   5.02454
 Alpha virt. eigenvalues --    5.03147   5.04690   5.05211   5.09289   5.10962
 Alpha virt. eigenvalues --    5.12836   5.24307   5.26290   5.28703   5.31762
 Alpha virt. eigenvalues --    5.41878   5.43169   5.74982   5.76427   5.79399
 Alpha virt. eigenvalues --    5.80063   5.81391   5.84379   8.01968   8.04273
 Alpha virt. eigenvalues --   17.28522  17.30798  17.49113  17.51915  17.57295
 Alpha virt. eigenvalues --   17.62878  23.48556  23.56186  23.71151  23.78291
 Alpha virt. eigenvalues --   23.81664  23.82154  23.83592  23.86229  23.86399
 Alpha virt. eigenvalues --   23.87900  23.88592  23.90837  23.91698  23.92910
 Alpha virt. eigenvalues --   23.94728  23.95288  23.96132  23.98204  24.00566
 Alpha virt. eigenvalues --   24.00855  24.01879  24.05093  24.11836  24.13103
 Alpha virt. eigenvalues --   24.13961  24.14108  35.55837  35.58756  49.95813
 Alpha virt. eigenvalues --   49.97456  50.01424  50.03415  50.05155  50.06880
 Alpha virt. eigenvalues --  189.19264 189.22217
          Condensed to atoms (all electrons):
 Mulliken charges:
               1
     1  C    0.316945
     2  C   -0.023403
     3  C    0.187372
     4  C    0.183595
     5  C    0.301241
     6  C   -0.025835
     7  C    0.228003
     8  C    0.396264
     9  C    0.275326
    10  C   -0.406168
    11  C    0.292929
    12  C    0.118980
    13  C   -0.505247
    14  C   -0.639708
    15  H    0.164424
    16  H    0.165970
    17  H    0.166968
    18  N   -0.111210
    19  N   -0.104112
    20  O   -0.347441
    21  O   -0.330344
    22  O   -0.346849
    23  O   -0.285734
    24  C   -0.199402
    25  H    0.184234
    26  H    0.183422
    27  H    0.178852
    28  C   -0.213056
    29  H    0.181461
    30  H    0.183495
    31  H    0.180042
    32  C   -0.004722
    33  C   -0.420905
    34  S   -0.668010
    35  C   -0.272432
    36  H    0.172487
    37  C    0.675072
    38  O   -0.151786
    39  C    0.792790
    40  C   -0.255438
    41  C   -0.000796
    42  S   -0.234472
    43  H    0.176591
    44  H    0.162109
    45  H    0.166627
    46  C   -0.619455
    47  O   -0.146915
    48  C   -0.324178
    49  H    0.165214
    50  C   -0.256179
    51  H    0.193816
    52  H    0.161739
    53  H    0.175512
    54  H    0.162316
 Sum of Mulliken charges =  -0.00000
 Mulliken charges with hydrogens summed into heavy atoms:
               1
     1  C    0.316945
     2  C   -0.023403
     3  C    0.187372
     4  C    0.183595
     5  C    0.301241
     6  C    0.141133
     7  C    0.228003
     8  C    0.396264
     9  C    0.275326
    10  C   -0.406168
    11  C    0.292929
    12  C    0.118980
    13  C   -0.339277
    14  C   -0.475284
    18  N   -0.111210
    19  N   -0.104112
    20  O   -0.347441
    21  O   -0.330344
    22  O   -0.346849
    23  O   -0.285734
    24  C    0.347107
    28  C    0.331941
    32  C   -0.004722
    33  C   -0.248418
    34  S   -0.668010
    35  C   -0.272432
    37  C    0.675072
    38  O   -0.151786
    39  C    0.792790
    40  C    0.249889
    41  C   -0.000796
    42  S   -0.234472
    46  C   -0.454241
    47  O   -0.146915
    48  C   -0.130362
    50  C    0.243387
 Electronic spatial extent (au):  <R**2>=          22447.9344
 Charge=             -0.0000 electrons
 Dipole moment (field-independent basis, Debye):
    X=             -6.3849    Y=             -0.9606    Z=              0.3137  Tot=              6.4644
 Quadrupole moment (field-independent basis, Debye-Ang):
   XX=           -212.9821   YY=           -208.9933   ZZ=           -221.1917
   XY=              7.2380   XZ=              2.8063   YZ=             10.9097
 Traceless Quadrupole moment (field-independent basis, Debye-Ang):
   XX=              1.4069   YY=              5.3957   ZZ=             -6.8026
   XY=              7.2380   XZ=              2.8063   YZ=             10.9097
 Octapole moment (field-independent basis, Debye-Ang**2):
  XXX=           -513.6012  YYY=            -24.3572  ZZZ=             -1.1736  XYY=           -175.1441
  XXY=           -120.1066  XXZ=            -27.0409  XZZ=              7.1164  YZZ=             -0.6402
  YYZ=              1.3317  XYZ=            -33.7700
 Hexadecapole moment (field-independent basis, Debye-Ang**3):
 XXXX=         -20454.7690 YYYY=          -7800.6011 ZZZZ=           -541.3625 XXXY=            773.8931
 XXXZ=            119.9357 YYYX=           -253.2500 YYYZ=            141.7203 ZZZX=              6.6453
 ZZZY=              6.2266 XXYY=          -4977.1823 XXZZ=          -3770.7024 YYZZ=          -1411.0163
 XXYZ=            228.7751 YYXZ=             49.6489 ZZXY=            -14.4862
 N-N= 4.087577893210D+03 E-N=-1.371524212036D+04  KE= 2.351873881539D+03
 D1PCM: PCM CHGder 1st derivatives, ID1Alg=3 FixD1E=F DoIter=F DoCFld=F I1PDM=0.
 Calling FoFJK, ICntrl=      2127 FMM=F ISym2X=0 I1Cent= 0 IOpClX= 0 NMat=1 NMatS=1 NMatT=0.
 ***** Axes restored to original set *****
 -------------------------------------------------------------------
 Center     Atomic                   Forces (Hartrees/Bohr)
 Number     Number              X              Y              Z
 -------------------------------------------------------------------
      1        6          -0.001712832    0.000045533    0.000094545
      2        6           0.003574911    0.000104561    0.000016900
      3        6          -0.001658065   -0.000073024   -0.000211240
      4        6           0.001536514    0.001091687    0.000199893
      5        6           0.002103506    0.000589744    0.000183180
      6        6          -0.004070048   -0.000229370   -0.001027940
      7        6          -0.000080990   -0.000064850    0.000030681
      8        6          -0.000287704    0.002332130    0.001725624
      9        6           0.004767360   -0.000100248   -0.000064798
     10        6          -0.003815827   -0.001943566   -0.000077468
     11        6           0.003835885   -0.001772852   -0.000422178
     12        6           0.000479147    0.000621616    0.000368999
     13        6          -0.000663627   -0.001354921   -0.000266259
     14        6           0.000418303    0.000959081    0.000176329
     15        1           0.000626622    0.001814067    0.000205725
     16        1           0.000126810   -0.002174290   -0.000326261
     17        1          -0.001584352    0.001047756    0.000418852
     18        7          -0.002314649   -0.001825307   -0.000463212
     19        7           0.001155849    0.001840907    0.000130258
     20        8          -0.002728174    0.002488487    0.000349872
     21        8           0.002729187    0.000017368   -0.000077156
     22        8           0.001345305   -0.000677870   -0.000128322
     23        8          -0.009160781    0.001811472    0.005496771
     24        6           0.001537803    0.002448247   -0.000639791
     25        1          -0.001395176    0.000136367   -0.000098726
     26        1          -0.001928372   -0.000361199    0.000940711
     27        1           0.001981398    0.000373945    0.000204030
     28        6           0.000108362   -0.002468874   -0.000682659
     29        1          -0.001507104    0.000610009    0.000696632
     30        1          -0.001235854    0.000565471   -0.000168262
     31        1           0.001714139   -0.001090632   -0.000154105
     32        6          -0.005418829    0.000119592   -0.001040656
     33        6           0.006977683    0.000551188   -0.004375707
     34       16           0.002383843    0.000031010    0.000764406
     35        6          -0.000513042   -0.000661143   -0.000873685
     36        1           0.004128149   -0.004454363   -0.001832173
     37        6           0.001217000   -0.000008467    0.000489834
     38        8          -0.001674717   -0.004019148    0.001547784
     39        6          -0.001114625   -0.000899356    0.000248245
     40        6          -0.001673895    0.006175649   -0.001571347
     41        6          -0.001793716   -0.001033677    0.000615706
     42       16           0.001177667   -0.000038420   -0.000126261
     43        1          -0.001124302   -0.000673526    0.000356498
     44        1           0.001301965   -0.000588665    0.001180909
     45        1           0.001379652   -0.000898421   -0.001208678
     46        6           0.000188141    0.000634661   -0.000152990
     47        8           0.001787015    0.006886757   -0.001974233
     48        6          -0.000854542   -0.001774129    0.000463745
     49        1          -0.000383922    0.001163517   -0.000306765
     50        6           0.003339258   -0.007832079    0.002357004
     51        1          -0.000939063    0.000277549    0.000019145
     52        1          -0.001765300    0.000644228   -0.001714468
     53        1           0.000639145    0.000522692   -0.000140363
     54        1          -0.001161110    0.001113110    0.000843429
 -------------------------------------------------------------------
 Cartesian Forces:  Max     0.009160781 RMS     0.002078007

 GradGradGradGradGradGradGradGradGradGradGradGradGradGradGradGradGradGrad
 Berny optimization.
 FormGI is forming the generalized inverse of G from B-inverse, IUseBI=4.
 Internal  Forces:  Max     0.025887413 RMS     0.003285391
 Search for a local minimum.
 Step number   1 out of a maximum of  307
 All quantities printed in internal units (Hartrees-Bohrs-Radians)
 Mixed Optimization -- RFO/linear search
 Second derivative matrix not updated -- first step.
 ITU=  0
     Eigenvalues ---    0.00803   0.00803   0.01176   0.01203   0.01245
     Eigenvalues ---    0.01292   0.01308   0.01311   0.01352   0.01393
     Eigenvalues ---    0.01419   0.01429   0.01460   0.01496   0.01516
     Eigenvalues ---    0.01568   0.01572   0.01577   0.01622   0.01652
     Eigenvalues ---    0.01694   0.01711   0.01716   0.01719   0.01754
     Eigenvalues ---    0.01783   0.01803   0.01847   0.01965   0.02040
     Eigenvalues ---    0.02052   0.02072   0.02073   0.02079   0.02135
     Eigenvalues ---    0.02149   0.02163   0.02179   0.02197   0.02222
     Eigenvalues ---    0.02235   0.02244   0.07556   0.07572   0.07690
     Eigenvalues ---    0.07700   0.10058   0.10068   0.10632   0.10636
     Eigenvalues ---    0.15983   0.15999   0.15999   0.16000   0.16000
     Eigenvalues ---    0.16000   0.16000   0.16000   0.16000   0.16000
     Eigenvalues ---    0.16000   0.16000   0.16000   0.16000   0.16000
     Eigenvalues ---    0.16000   0.16000   0.16000   0.22531   0.22583
     Eigenvalues ---    0.23518   0.23582   0.24516   0.24747   0.24864
     Eigenvalues ---    0.24931   0.24952   0.24985   0.24987   0.24988
     Eigenvalues ---    0.24991   0.24994   0.24997   0.24997   0.24998
     Eigenvalues ---    0.24998   0.25000   0.25000   0.25000   0.25000
     Eigenvalues ---    0.25000   0.25000   0.25000   0.25000   0.25000
     Eigenvalues ---    0.25000   0.28854   0.28903   0.30123   0.32075
     Eigenvalues ---    0.32582   0.32774   0.33111   0.33787   0.33963
     Eigenvalues ---    0.34072   0.34091   0.34111   0.34354   0.34466
     Eigenvalues ---    0.34577   0.34629   0.34693   0.34798   0.34895
     Eigenvalues ---    0.35198   0.35218   0.35468   0.35553   0.35582
     Eigenvalues ---    0.35789   0.35910   0.36078   0.36083   0.36287
     Eigenvalues ---    0.36396   0.36662   0.39352   0.40194   0.40239
     Eigenvalues ---    0.40651   0.40772   0.41524   0.41617   0.42076
     Eigenvalues ---    0.42300   0.42809   0.43455   0.43974   0.44092
     Eigenvalues ---    0.44549   0.44594   0.45014   0.45406   0.46251
     Eigenvalues ---    0.47305   0.47567   0.49310   0.49483   0.52969
     Eigenvalues ---    0.53168   0.93281   0.93432   0.93989   0.94585
     Eigenvalues --- 1000.000001000.000001000.000001000.000001000.00000
     Eigenvalues --- 1000.000001000.000001000.000001000.000001000.00000
     Eigenvalues --- 1000.000001000.000001000.000001000.000001000.00000
     Eigenvalues --- 1000.000001000.000001000.000001000.000001000.00000
     Eigenvalues --- 1000.000001000.000001000.000001000.000001000.00000
     Eigenvalues --- 1000.000001000.000001000.000001000.000001000.00000
     Eigenvalues --- 1000.000001000.000001000.000001000.000001000.00000
     Eigenvalues --- 1000.000001000.000001000.000001000.000001000.00000
     Eigenvalues --- 1000.000001000.000001000.000001000.000001000.00000
     Eigenvalues --- 1000.000001000.000001000.000001000.000001000.00000
     Eigenvalues --- 1000.000001000.000001000.000001000.000001000.00000
     Eigenvalues --- 1000.000001000.000001000.000001000.000001000.00000
     Eigenvalues --- 1000.000001000.000001000.000001000.000001000.00000
     Eigenvalues --- 1000.000001000.000001000.000001000.000001000.00000
     Eigenvalues --- 1000.000001000.000001000.000001000.000001000.00000
     Eigenvalues --- 1000.000001000.000001000.000001000.000001000.00000
     Eigenvalues --- 1000.000001000.000001000.000001000.000001000.00000
     Eigenvalues --- 1000.000001000.000001000.000001000.000001000.00000
     Eigenvalues --- 1000.000001000.000001000.000001000.000001000.00000
     Eigenvalues --- 1000.000001000.000001000.000001000.000001000.00000
     Eigenvalues --- 1000.000001000.000001000.000001000.000001000.00000
     Eigenvalues --- 1000.000001000.000001000.000001000.000001000.00000
     Eigenvalues --- 1000.000001000.000001000.000001000.000001000.00000
     Eigenvalues --- 1000.000001000.000001000.000001000.000001000.00000
     Eigenvalues --- 1000.000001000.000001000.000001000.000001000.00000
     Eigenvalues --- 1000.000001000.000001000.000001000.000001000.00000
     Eigenvalues --- 1000.000001000.000001000.000001000.000001000.00000
     Eigenvalues --- 1000.000001000.000001000.000001000.000001000.00000
     Eigenvalues --- 1000.000001000.00000
 RFO step:  Lambda=-1.59997996D-02 EMin= 8.02933640D-03
 Linear search not attempted -- first point.
 Iteration  1 RMS(Cart)=  0.26120316 RMS(Int)=  0.00611527
 Iteration  2 RMS(Cart)=  0.02539933 RMS(Int)=  0.00072222
 Iteration  3 RMS(Cart)=  0.00017336 RMS(Int)=  0.00072093
 Iteration  4 RMS(Cart)=  0.00000016 RMS(Int)=  0.00072093
 Iteration  1 RMS(Cart)=  0.00011906 RMS(Int)=  0.00002043
 Iteration  2 RMS(Cart)=  0.00006758 RMS(Int)=  0.00002280
 Iteration  3 RMS(Cart)=  0.00003836 RMS(Int)=  0.00002586
 Iteration  4 RMS(Cart)=  0.00002178 RMS(Int)=  0.00002798
 Iteration  5 RMS(Cart)=  0.00001236 RMS(Int)=  0.00002928
 Iteration  6 RMS(Cart)=  0.00000702 RMS(Int)=  0.00003004
 Iteration  7 RMS(Cart)=  0.00000398 RMS(Int)=  0.00003048
 Iteration  8 RMS(Cart)=  0.00000226 RMS(Int)=  0.00003073
 Iteration  9 RMS(Cart)=  0.00000128 RMS(Int)=  0.00003088
 Iteration 10 RMS(Cart)=  0.00000073 RMS(Int)=  0.00003096
 Variable       Old X    -DE/DX   Delta X   Delta X   Delta X     New X
                                 (Linear)    (Quad)   (Total)
    R1        2.80935  -0.00153   0.00000  -0.00462  -0.00461   2.80474
    R2        2.64584  -0.00438   0.00000  -0.00940  -0.00935   2.63649
    R3        2.31147  -0.00371   0.00000  -0.00388  -0.00388   2.30759
    R4        2.67311  -0.00431   0.00000  -0.01138  -0.01172   2.66139
    R5        2.59267  -0.00706   0.00000  -0.01520  -0.01516   2.57752
    R6        2.66894  -0.00208   0.00000  -0.00457  -0.00464   2.66430
    R7        2.69164  -0.00091   0.00000  -0.00116  -0.00148   2.69017
    R8        2.81049  -0.00117   0.00000  -0.00300  -0.00302   2.80748
    R9        2.62173  -0.00238   0.00000  -0.00547  -0.00542   2.61631
   R10        2.65570  -0.00385   0.00000  -0.00822  -0.00818   2.64752
   R11        2.30889  -0.00259   0.00000  -0.00269  -0.00269   2.30620
   R12        2.70248  -0.00053   0.00000  -0.00167  -0.00135   2.70113
   R13        2.04786  -0.00190   0.00000  -0.00512  -0.00512   2.04274
   R14        2.70495   0.00489   0.00000   0.01506   0.01497   2.71992
   R15        2.68322   0.00042   0.00000   0.00245   0.00227   2.68549
   R16        2.68655   0.01363   0.00000   0.03282   0.03299   2.71954
   R17        2.81233   0.00241   0.00000   0.00764   0.00772   2.82005
   R18        2.76359   0.00565   0.00000   0.01476   0.01476   2.77835
   R19        2.66221  -0.00261   0.00000  -0.00651  -0.00638   2.65583
   R20        2.31391  -0.00696   0.00000  -0.00733  -0.00733   2.30658
   R21        2.79415  -0.00486   0.00000  -0.01410  -0.01415   2.78000
   R22        2.63842  -0.00789   0.00000  -0.01780  -0.01773   2.62069
   R23        2.31456  -0.00146   0.00000  -0.00153  -0.00153   2.31303
   R24        2.62448  -0.00057   0.00000  -0.00107  -0.00105   2.62343
   R25        2.64561  -0.00564   0.00000  -0.01251  -0.01244   2.63318
   R26        2.04921  -0.00162   0.00000  -0.00438  -0.00438   2.04483
   R27        2.04741  -0.00118   0.00000  -0.00316  -0.00316   2.04425
   R28        2.77259   0.00260   0.00000   0.00691   0.00691   2.77951
   R29        2.77252   0.00254   0.00000   0.00673   0.00673   2.77926
   R30        2.06176  -0.00081   0.00000  -0.00222  -0.00222   2.05954
   R31        2.06551  -0.00191   0.00000  -0.00529  -0.00529   2.06023
   R32        2.05322  -0.00151   0.00000  -0.00410  -0.00410   2.04912
   R33        2.06368  -0.00141   0.00000  -0.00389  -0.00389   2.05979
   R34        2.06281  -0.00091   0.00000  -0.00252  -0.00252   2.06029
   R35        2.05355  -0.00158   0.00000  -0.00430  -0.00430   2.04925
   R36        2.61102   0.00486   0.00000   0.00987   0.00995   2.62097
   R37        3.33256   0.00296   0.00000   0.00998   0.01004   3.34259
   R38        2.66108  -0.00127   0.00000  -0.00284  -0.00283   2.65825
   R39        2.03636  -0.00539   0.00000  -0.01423  -0.01423   2.02213
   R40        3.30344  -0.00214   0.00000  -0.00685  -0.00692   3.29652
   R41        2.64175  -0.00152   0.00000  -0.00349  -0.00356   2.63820
   R42        2.56982  -0.00131   0.00000  -0.00240  -0.00240   2.56743
   R43        2.71230  -0.00071   0.00000  -0.00169  -0.00169   2.71062
   R44        2.69413   0.00397   0.00000   0.00920   0.00920   2.70333
   R45        2.63434  -0.00028   0.00000  -0.00044  -0.00044   2.63390
   R46        3.32875   0.00040   0.00000   0.00165   0.00165   3.33040
   R47        2.06005  -0.00135   0.00000  -0.00372  -0.00372   2.05633
   R48        2.07208  -0.00177   0.00000  -0.00497  -0.00497   2.06711
   R49        2.07176  -0.00193   0.00000  -0.00541  -0.00541   2.06636
   R50        2.68975  -0.00109   0.00000  -0.00262  -0.00262   2.68712
   R51        2.56797  -0.00300   0.00000  -0.00549  -0.00549   2.56248
   R52        3.26359  -0.00079   0.00000  -0.00239  -0.00239   3.26120
   R53        2.58779  -0.00207   0.00000  -0.00414  -0.00414   2.58364
   R54        2.04412  -0.00124   0.00000  -0.00332  -0.00332   2.04080
   R55        2.68826   0.00575   0.00000   0.01316   0.01316   2.70142
   R56        2.04222  -0.00089   0.00000  -0.00238  -0.00238   2.03985
   R57        2.07393  -0.00244   0.00000  -0.00687  -0.00687   2.06706
   R58        2.05845  -0.00083   0.00000  -0.00228  -0.00228   2.05617
   R59        2.07143  -0.00166   0.00000  -0.00464  -0.00464   2.06679
    A1        2.03797   0.00161   0.00000   0.00487   0.00485   2.04282
    A2        2.14521  -0.00065   0.00000  -0.00183  -0.00182   2.14339
    A3        2.10001  -0.00097   0.00000  -0.00304  -0.00303   2.09698
    A4        2.10395   0.00087   0.00000   0.00480   0.00475   2.10869
    A5        2.08282  -0.00159   0.00000  -0.00271  -0.00265   2.08017
    A6        2.09624   0.00071   0.00000  -0.00241  -0.00255   2.09369
    A7        2.10093  -0.00189   0.00000  -0.00753  -0.00733   2.09360
    A8        2.07104  -0.00011   0.00000  -0.00257  -0.00286   2.06818
    A9        2.11118   0.00200   0.00000   0.01006   0.01014   2.12132
   A10        2.10296   0.00028   0.00000   0.00159   0.00150   2.10447
   A11        2.09911   0.00072   0.00000   0.00188   0.00182   2.10093
   A12        2.08110  -0.00100   0.00000  -0.00347  -0.00332   2.07778
   A13        2.03739   0.00147   0.00000   0.00565   0.00559   2.04299
   A14        2.12972   0.00027   0.00000   0.00095   0.00098   2.13070
   A15        2.11607  -0.00174   0.00000  -0.00660  -0.00657   2.10950
   A16        2.15098   0.00645   0.00000   0.02352   0.02391   2.17489
   A17        2.04399  -0.00367   0.00000  -0.01488  -0.01508   2.02891
   A18        2.08722  -0.00283   0.00000  -0.00987  -0.01036   2.07686
   A19        2.11101   0.00237   0.00000   0.00986   0.01006   2.12107
   A20        2.04385  -0.00439   0.00000  -0.01803  -0.01795   2.02589
   A21        2.12832   0.00202   0.00000   0.00816   0.00788   2.13620
   A22        2.08678  -0.00428   0.00000  -0.01206  -0.01207   2.07472
   A23        2.04738  -0.00906   0.00000  -0.03420  -0.03459   2.01279
   A24        2.14662   0.01325   0.00000   0.04309   0.04256   2.18917
   A25        2.04892  -0.00526   0.00000  -0.01796  -0.01866   2.03026
[...]
 Alpha  occ. eigenvalues --   -0.57455  -0.56787  -0.56230  -0.55439  -0.54943
 Alpha  occ. eigenvalues --   -0.53527  -0.51753  -0.50445  -0.50046  -0.49963
 Alpha  occ. eigenvalues --   -0.49457  -0.49130  -0.48589  -0.48473  -0.48071
 Alpha  occ. eigenvalues --   -0.48039  -0.47199  -0.46928  -0.46541  -0.46042
 Alpha  occ. eigenvalues --   -0.45426  -0.45375  -0.44924  -0.44074  -0.43708
 Alpha  occ. eigenvalues --   -0.42921  -0.42757  -0.42393  -0.42194  -0.41940
 Alpha  occ. eigenvalues --   -0.41854  -0.41332  -0.41103  -0.40650  -0.40055
 Alpha  occ. eigenvalues --   -0.39701  -0.39232  -0.39146  -0.37995  -0.37484
 Alpha  occ. eigenvalues --   -0.36520  -0.36223  -0.34447  -0.34174  -0.33884
 Alpha  occ. eigenvalues --   -0.33769  -0.32156  -0.31518  -0.30803  -0.30074
 Alpha  occ. eigenvalues --   -0.29731  -0.29298  -0.29113  -0.28515  -0.27461
 Alpha  occ. eigenvalues --   -0.26192  -0.25192  -0.24978  -0.19739
 Alpha virt. eigenvalues --   -0.13252  -0.07938  -0.06507  -0.04752  -0.03867
 Alpha virt. eigenvalues --   -0.00637  -0.00571   0.00143   0.00316   0.00467
 Alpha virt. eigenvalues --    0.00780   0.01071   0.01393   0.01536   0.02017
 Alpha virt. eigenvalues --    0.02278   0.02561   0.02789   0.02914   0.03180
 Alpha virt. eigenvalues --    0.03577   0.03831   0.03902   0.04349   0.04652
 Alpha virt. eigenvalues --    0.04840   0.04929   0.05226   0.05703   0.05870
 Alpha virt. eigenvalues --    0.06225   0.06247   0.06593   0.06884   0.07119
 Alpha virt. eigenvalues --    0.07285   0.07676   0.07693   0.07827   0.08274
 Alpha virt. eigenvalues --    0.08582   0.08709   0.08907   0.09125   0.09441
 Alpha virt. eigenvalues --    0.09473   0.09873   0.10101   0.10182   0.10491
 Alpha virt. eigenvalues --    0.10680   0.11035   0.11443   0.11697   0.12013
 Alpha virt. eigenvalues --    0.12411   0.12631   0.12919   0.13328   0.13590
 Alpha virt. eigenvalues --    0.13626   0.13793   0.13885   0.14067   0.14217
 Alpha virt. eigenvalues --    0.14608   0.14841   0.15064   0.15190   0.15315
 Alpha virt. eigenvalues --    0.15598   0.15737   0.16146   0.16273   0.16352
 Alpha virt. eigenvalues --    0.16472   0.16819   0.17155   0.17381   0.17701
 Alpha virt. eigenvalues --    0.17751   0.18200   0.18303   0.18562   0.18732
 Alpha virt. eigenvalues --    0.18797   0.19050   0.19331   0.19560   0.19764
 Alpha virt. eigenvalues --    0.19958   0.20007   0.20092   0.20252   0.20603
 Alpha virt. eigenvalues --    0.20821   0.20848   0.21130   0.21201   0.21415
 Alpha virt. eigenvalues --    0.21763   0.21917   0.22020   0.22214   0.22356
 Alpha virt. eigenvalues --    0.22515   0.23092   0.23298   0.23459   0.23677
 Alpha virt. eigenvalues --    0.23836   0.24119   0.24153   0.24217   0.24327
 Alpha virt. eigenvalues --    0.24498   0.24698   0.24723   0.25360   0.25526
 Alpha virt. eigenvalues --    0.25571   0.25756   0.25967   0.26060   0.26363
 Alpha virt. eigenvalues --    0.26617   0.26878   0.27026   0.27339   0.27399
 Alpha virt. eigenvalues --    0.27437   0.27704   0.27855   0.28116   0.28184
 Alpha virt. eigenvalues --    0.28453   0.28791   0.28996   0.29085   0.29158
 Alpha virt. eigenvalues --    0.29419   0.29821   0.30128   0.30437   0.30762
 Alpha virt. eigenvalues --    0.31055   0.31122   0.31368   0.31618   0.31758
 Alpha virt. eigenvalues --    0.32062   0.32198   0.32484   0.32870   0.33252
 Alpha virt. eigenvalues --    0.33311   0.33538   0.33681   0.34110   0.34345
 Alpha virt. eigenvalues --    0.34530   0.34967   0.35261   0.35523   0.35895
 Alpha virt. eigenvalues --    0.36267   0.36453   0.37079   0.37387   0.37836
 Alpha virt. eigenvalues --    0.37937   0.38134   0.38406   0.38751   0.39154
 Alpha virt. eigenvalues --    0.39724   0.40168   0.40453   0.40706   0.41263
 Alpha virt. eigenvalues --    0.41965   0.42161   0.42650   0.42932   0.43276
 Alpha virt. eigenvalues --    0.43744   0.43973   0.44125   0.44306   0.45018
 Alpha virt. eigenvalues --    0.45482   0.45950   0.46355   0.46864   0.47141
 Alpha virt. eigenvalues --    0.47560   0.47877   0.48370   0.48756   0.48932
 Alpha virt. eigenvalues --    0.49421   0.49870   0.50026   0.50528   0.51311
 Alpha virt. eigenvalues --    0.51735   0.52008   0.52557   0.53020   0.53246
 Alpha virt. eigenvalues --    0.54282   0.54517   0.55000   0.55117   0.55596
 Alpha virt. eigenvalues --    0.55965   0.56327   0.56503   0.56756   0.57289
 Alpha virt. eigenvalues --    0.57627   0.57998   0.58249   0.58414   0.58965
 Alpha virt. eigenvalues --    0.59571   0.60155   0.60471   0.60875   0.61237
 Alpha virt. eigenvalues --    0.61693   0.61879   0.62236   0.62660   0.63280
 Alpha virt. eigenvalues --    0.63484   0.63878   0.63996   0.64856   0.65192
 Alpha virt. eigenvalues --    0.65263   0.65742   0.65775   0.66461   0.66876
 Alpha virt. eigenvalues --    0.67123   0.67643   0.67759   0.68320   0.68620
 Alpha virt. eigenvalues --    0.69284   0.69568   0.69845   0.70170   0.70471
 Alpha virt. eigenvalues --    0.70540   0.70786   0.71800   0.72169   0.72292
 Alpha virt. eigenvalues --    0.72429   0.73103   0.73349   0.73709   0.74086
 Alpha virt. eigenvalues --    0.74358   0.74426   0.74629   0.75069   0.75249
 Alpha virt. eigenvalues --    0.75735   0.76310   0.76341   0.76672   0.76922
 Alpha virt. eigenvalues --    0.77193   0.78080   0.78249   0.78381   0.78913
 Alpha virt. eigenvalues --    0.79803   0.80238   0.80764   0.81321   0.81906
 Alpha virt. eigenvalues --    0.82376   0.83591   0.83935   0.84242   0.85255
 Alpha virt. eigenvalues --    0.85871   0.86085   0.86991   0.87963   0.88105
 Alpha virt. eigenvalues --    0.88550   0.89610   0.89674   0.90044   0.91138
 Alpha virt. eigenvalues --    0.91399   0.91693   0.92284   0.92748   0.92778
 Alpha virt. eigenvalues --    0.93431   0.94012   0.94163   0.94233   0.95329
 Alpha virt. eigenvalues --    0.95443   0.95576   0.95798   0.96449   0.97327
 Alpha virt. eigenvalues --    0.97505   0.98063   0.98563   0.98936   0.99811
 Alpha virt. eigenvalues --    1.00489   1.00775   1.01310   1.01714   1.02329
 Alpha virt. eigenvalues --    1.02558   1.03196   1.03685   1.04032   1.04569
 Alpha virt. eigenvalues --    1.04870   1.04911   1.05439   1.05571   1.06386
 Alpha virt. eigenvalues --    1.06875   1.06937   1.07391   1.08158   1.08219
 Alpha virt. eigenvalues --    1.08911   1.09213   1.09378   1.10121   1.10798
 Alpha virt. eigenvalues --    1.11338   1.12113   1.12464   1.14325   1.14602
 Alpha virt. eigenvalues --    1.14708   1.15579   1.16747   1.17364   1.17702
 Alpha virt. eigenvalues --    1.17958   1.18871   1.19236   1.20488   1.21223
 Alpha virt. eigenvalues --    1.21424   1.22053   1.23397   1.23885   1.24175
 Alpha virt. eigenvalues --    1.25201   1.25731   1.26368   1.26703   1.27046
 Alpha virt. eigenvalues --    1.28329   1.29242   1.30043   1.30334   1.30818
 Alpha virt. eigenvalues --    1.31319   1.32708   1.33425   1.33735   1.34447
 Alpha virt. eigenvalues --    1.35114   1.35721   1.36703   1.37101   1.37937
 Alpha virt. eigenvalues --    1.39742   1.40081   1.41348   1.41911   1.42837
 Alpha virt. eigenvalues --    1.43009   1.43358   1.43703   1.44428   1.44549
 Alpha virt. eigenvalues --    1.44690   1.45326   1.45658   1.45825   1.46144
 Alpha virt. eigenvalues --    1.46525   1.47157   1.48114   1.49154   1.49682
 Alpha virt. eigenvalues --    1.49981   1.50874   1.51355   1.51914   1.52595
 Alpha virt. eigenvalues --    1.53056   1.53822   1.54273   1.54596   1.54898
 Alpha virt. eigenvalues --    1.55175   1.55646   1.56294   1.56668   1.57048
 Alpha virt. eigenvalues --    1.57752   1.58860   1.59320   1.59971   1.60746
 Alpha virt. eigenvalues --    1.61973   1.62401   1.63189   1.63817   1.64225
 Alpha virt. eigenvalues --    1.65080   1.65702   1.66627   1.66783   1.67657
 Alpha virt. eigenvalues --    1.68329   1.69138   1.69544   1.69685   1.70031
 Alpha virt. eigenvalues --    1.70125   1.71358   1.71658   1.71957   1.72142
 Alpha virt. eigenvalues --    1.73101   1.73942   1.74270   1.74576   1.75807
 Alpha virt. eigenvalues --    1.75863   1.76398   1.77472   1.78088   1.78835
 Alpha virt. eigenvalues --    1.79051   1.79281   1.79909   1.80765   1.82140
 Alpha virt. eigenvalues --    1.82805   1.83080   1.84545   1.85353   1.85622
 Alpha virt. eigenvalues --    1.86605   1.87017   1.87194   1.87812   1.88784
 Alpha virt. eigenvalues --    1.89088   1.89914   1.90315   1.90583   1.91341
 Alpha virt. eigenvalues --    1.91761   1.92975   1.93266   1.94569   1.95080
 Alpha virt. eigenvalues --    1.96735   1.97186   1.97931   1.98197   1.98501
 Alpha virt. eigenvalues --    1.99676   2.00261   2.01304   2.01494   2.02037
 Alpha virt. eigenvalues --    2.02451   2.03195   2.03851   2.03906   2.05086
 Alpha virt. eigenvalues --    2.05890   2.06712   2.07032   2.07380   2.07724
 Alpha virt. eigenvalues --    2.08247   2.09412   2.09586   2.11158   2.11728
 Alpha virt. eigenvalues --    2.12549   2.13577   2.13818   2.14554   2.15324
 Alpha virt. eigenvalues --    2.15720   2.16467   2.17170   2.17724   2.19030
 Alpha virt. eigenvalues --    2.19234   2.19790   2.21431   2.21800   2.22258
 Alpha virt. eigenvalues --    2.23149   2.23991   2.25973   2.26195   2.28761
 Alpha virt. eigenvalues --    2.31703   2.31882   2.33728   2.35156   2.37369
 Alpha virt. eigenvalues --    2.38753   2.38983   2.40044   2.41635   2.42979
 Alpha virt. eigenvalues --    2.43302   2.44213   2.44495   2.45577   2.46126
 Alpha virt. eigenvalues --    2.46963   2.47720   2.48103   2.49488   2.49890
 Alpha virt. eigenvalues --    2.50379   2.51670   2.52504   2.52535   2.53019
 Alpha virt. eigenvalues --    2.53706   2.54082   2.55111   2.55437   2.56278
 Alpha virt. eigenvalues --    2.57422   2.57911   2.58847   2.59338   2.61326
 Alpha virt. eigenvalues --    2.62643   2.63312   2.63777   2.64853   2.66303
 Alpha virt. eigenvalues --    2.67262   2.67344   2.67631   2.68489   2.68662
 Alpha virt. eigenvalues --    2.69884   2.70079   2.70757   2.71456   2.71762
 Alpha virt. eigenvalues --    2.72432   2.73132   2.73873   2.74600   2.75356
 Alpha virt. eigenvalues --    2.76499   2.77575   2.78379   2.78690   2.80855
 Alpha virt. eigenvalues --    2.81579   2.82445   2.82978   2.83261   2.83504
 Alpha virt. eigenvalues --    2.83913   2.84221   2.84845   2.85659   2.86605
 Alpha virt. eigenvalues --    2.87376   2.88060   2.88729   2.89761   2.90294
 Alpha virt. eigenvalues --    2.90951   2.91817   2.92783   2.93125   2.94825
 Alpha virt. eigenvalues --    2.94972   2.95306   2.96363   2.98201   2.98761
 Alpha virt. eigenvalues --    3.00599   3.02477   3.02774   3.03488   3.04381
 Alpha virt. eigenvalues --    3.05357   3.06479   3.07364   3.08672   3.09134
 Alpha virt. eigenvalues --    3.11704   3.12622   3.13950   3.14572   3.15070
 Alpha virt. eigenvalues --    3.16667   3.17366   3.18919   3.20745   3.21220
 Alpha virt. eigenvalues --    3.22959   3.23455   3.23881   3.25134   3.26370
 Alpha virt. eigenvalues --    3.28969   3.29058   3.30600   3.31875   3.33484
 Alpha virt. eigenvalues --    3.34007   3.34348   3.35313   3.36079   3.37039
 Alpha virt. eigenvalues --    3.38492   3.40189   3.40889   3.42552   3.42910
 Alpha virt. eigenvalues --    3.43984   3.44909   3.45657   3.48213   3.48843
 Alpha virt. eigenvalues --    3.51013   3.53556   3.55573   3.57791   3.59637
 Alpha virt. eigenvalues --    3.60520   3.61348   3.64558   3.65719   3.66592
 Alpha virt. eigenvalues --    3.68394   3.69771   3.73260   3.74920   3.75646
 Alpha virt. eigenvalues --    3.77724   3.77881   3.80797   3.83149   3.84606
 Alpha virt. eigenvalues --    3.85045   3.85229   3.89626   3.90990   3.92606
 Alpha virt. eigenvalues --    3.93421   3.94972   3.96829   4.01126   4.02550
 Alpha virt. eigenvalues --    4.03440   4.07845   4.10053   4.12091   4.13842
 Alpha virt. eigenvalues --    4.19552   4.23215   4.25018   4.27104   4.34892
 Alpha virt. eigenvalues --    4.38988   4.40221   4.52217   4.69734   4.84628
 Alpha virt. eigenvalues --    4.84923   4.87092   4.89617   5.01124   5.02259
 Alpha virt. eigenvalues --    5.03279   5.04875   5.05831   5.09932   5.11853
 Alpha virt. eigenvalues --    5.12383   5.24008   5.25323   5.26495   5.28239
 Alpha virt. eigenvalues --    5.41214   5.42495   5.75066   5.76259   5.78478
 Alpha virt. eigenvalues --    5.79951   5.81474   5.82088   8.01896   8.04081
 Alpha virt. eigenvalues --   17.28574  17.31145  17.49043  17.51926  17.57169
 Alpha virt. eigenvalues --   17.62369  23.48504  23.56517  23.71456  23.79254
 Alpha virt. eigenvalues --   23.82322  23.82690  23.84231  23.86850  23.86882
 Alpha virt. eigenvalues --   23.88317  23.88864  23.91242  23.92164  23.93636
 Alpha virt. eigenvalues --   23.94914  23.95935  23.96228  23.99403  24.00565
 Alpha virt. eigenvalues --   24.01513  24.02220  24.05415  24.12044  24.13449
 Alpha virt. eigenvalues --   24.14673  24.14939  35.55454  35.57858  49.95907
 Alpha virt. eigenvalues --   49.97501  50.01494  50.03062  50.05072  50.06196
 Alpha virt. eigenvalues --  189.19150 189.21971
          Condensed to atoms (all electrons):
 Mulliken charges:
               1
     1  C    0.375247
     2  C   -0.082994
     3  C    0.201502
     4  C    0.217045
     5  C    0.295500
     6  C    0.028375
     7  C    0.208379
     8  C    0.602965
     9  C    0.223501
    10  C   -0.787988
    11  C    0.285330
    12  C    0.116318
    13  C   -0.492629
    14  C   -0.623532
    15  H    0.164384
    16  H    0.164946
    17  H    0.166941
    18  N    0.015290
    19  N   -0.108432
    20  O   -0.351396
    21  O   -0.334226
    22  O   -0.358757
    23  O   -0.283318
    24  C   -0.191215
    25  H    0.190039
    26  H    0.179653
    27  H    0.179115
    28  C   -0.216446
    29  H    0.185197
    30  H    0.181656
    31  H    0.179683
    32  C   -0.034007
    33  C   -0.532928
    34  S   -0.649237
    35  C   -0.292185
    36  H    0.169650
    37  C    0.729202
    38  O   -0.151018
    39  C    0.843550
    40  C   -0.246051
    41  C    0.036201
    42  S   -0.217454
    43  H    0.179356
    44  H    0.165060
    45  H    0.167019
    46  C   -0.634972
    47  O   -0.154391
    48  C   -0.316469
    49  H    0.164492
    50  C   -0.253403
    51  H    0.193216
    52  H    0.163644
    53  H    0.176500
    54  H    0.164094
 Sum of Mulliken charges =  -0.00000
 Mulliken charges with hydrogens summed into heavy atoms:
               1
     1  C    0.375247
     2  C   -0.082994
     3  C    0.201502
     4  C    0.217045
     5  C    0.295500
     6  C    0.195316
     7  C    0.208379
     8  C    0.602965
     9  C    0.223501
    10  C   -0.787988
    11  C    0.285330
    12  C    0.116318
    13  C   -0.327683
    14  C   -0.459148
    18  N    0.015290
    19  N   -0.108432
    20  O   -0.351396
    21  O   -0.334226
    22  O   -0.358757
    23  O   -0.283318
    24  C    0.357592
    28  C    0.330091
    32  C   -0.034007
    33  C   -0.363278
    34  S   -0.649237
    35  C   -0.292185
    37  C    0.729202
    38  O   -0.151018
    39  C    0.843550
    40  C    0.265384
    41  C    0.036201
    42  S   -0.217454
    46  C   -0.470481
    47  O   -0.154391
    48  C   -0.123253
    50  C    0.250835
 Electronic spatial extent (au):  <R**2>=          22406.8944
 Charge=             -0.0000 electrons
 Dipole moment (field-independent basis, Debye):
    X=             -6.3309    Y=             -0.7890    Z=              1.0384  Tot=              6.4638
 Quadrupole moment (field-independent basis, Debye-Ang):
   XX=           -210.8929   YY=           -209.4067   ZZ=           -220.6486
   XY=              7.3425   XZ=              0.6964   YZ=             15.0348
 Traceless Quadrupole moment (field-independent basis, Debye-Ang):
   XX=              2.7565   YY=              4.2427   ZZ=             -6.9992
   XY=              7.3425   XZ=              0.6964   YZ=             15.0348
 Octapole moment (field-independent basis, Debye-Ang**2):
  XXX=           -506.2916  YYY=            -22.6615  ZZZ=              0.6003  XYY=           -169.1797
  XXY=           -124.5594  XXZ=            -39.6710  XZZ=              0.3820  YZZ=             -3.5247
  YYZ=              2.6282  XYZ=            -49.0106
 Hexadecapole moment (field-independent basis, Debye-Ang**3):
 XXXX=         -20441.5254 YYYY=          -7589.4489 ZZZZ=           -737.8114 XXXY=            842.5241
 XXXZ=             70.0614 YYYX=           -318.7609 YYYZ=            158.7410 ZZZX=              9.5720
 ZZZY=             27.6215 XXYY=          -4882.7660 XXZZ=          -3764.7287 YYZZ=          -1376.6575
 XXYZ=            281.5902 YYXZ=             34.0875 ZZXY=             -6.9257
 N-N= 4.088842338478D+03 E-N=-1.371787949485D+04  KE= 2.352001796979D+03
 Unable to Open any file for archive entry.
 1\1\GINC-CX3-5-16\FOpt\RB3LYP\6-311+G(d,p)\C26H18N2O6S2\NS5018\27-Oct-
 2021\0\\# opt=modredundant b3lyp/6-311+g(d,p) scrf=(pcm, solvent=water
 )\\NDI_-25.pdb\\0,1\C,-2.6712158967,-3.0180903837,-0.4575367889\C,-2.3
 095845309,-1.5974762311,-0.2269971038\C,-3.3207899606,-0.6173179948,-0
 .099451211\C,-4.6802424084,-0.9705603942,-0.2042535541\C,-5.0687981127
 ,-2.3842357586,-0.4425846449\C,-0.9893700091,-1.2319437776,-0.18583959
 08\C,-2.9379617407,0.729104175,0.1467654277\C,-1.5631095218,1.08576972
 98,0.260891917\C,-0.562111859,0.1139869815,0.0149328111\C,-1.263487178
 7,2.4386729882,0.7936613979\C,-3.6376684461,3.1126524985,0.5285888808\
 C,-3.9677164266,1.6949720506,0.270617434\C,-5.3008776323,1.3297873396,
 0.1480305511\C,-5.6637792373,-0.0002531486,-0.0846315133\H,-6.70485313
 66,-0.2813491653,-0.1706355532\H,-6.0598554126,2.0956858572,0.23918688
 73\H,-0.2507161902,-2.0039950437,-0.3575282937\N,-2.2950394903,3.39482
 71285,0.760268658\N,-4.0312228681,-3.3216348503,-0.5436541704\O,-1.835
 4415236,-3.9019926861,-0.5695736635\O,-6.2364498572,-2.7260025675,-0.5
 442586434\O,-4.4888073012,3.9919837976,0.5667014136\O,-0.1904441761,2.
 7574587184,1.2823655473\C,-1.9350466331,4.7652267375,1.1546431985\H,-1
 .8709944291,4.8475169296,2.2414791465\H,-0.9692671052,5.0163142922,0.7
 235857467\H,-2.7039350369,5.4357761737,0.7846093864\C,-4.3725249331,-4
 .7349368782,-0.7687535684\H,-3.9655420977,-5.0658352112,-1.724363435\H
 ,-3.9469832692,-5.3445565603,0.0275921331\H,-5.4532149349,-4.824470360
 5,-0.7732643131\C,0.8558040674,0.3748077107,-0.183870988\C,1.493924824
 1,1.5131049515,-0.6346006412\S,2.0318727105,-0.8940660749,0.1392547092
 \C,2.8892909466,1.370241596,-0.7393527876\H,0.9691138366,2.4148107239,
 -0.9033642368\C,3.3730928094,0.1175943977,-0.3442276546\O,3.7668657996
 ,2.3070077232,-1.1764507808\C,4.735522516,-0.3290403734,-0.3096434531\
 C,3.2521174754,3.5932971326,-1.5438405724\C,5.2114896336,-1.5820791823
 ,0.0723156807\S,6.0959393664,0.6971925293,-0.7627020051\H,4.1161999364
 ,4.1848673235,-1.83782348\H,2.560780264,3.5089935002,-2.3863700204\H,2
 .7519118933,4.0676504771,-0.6955393179\C,6.62645904,-1.7133229523,0.00
 2192103\O,4.3340245468,-2.5358420038,0.4651218597\C,7.2265688631,-0.56
 4232794,-0.4309450449\H,7.1716517908,-2.609837154,0.2579314006\C,4.852
 1737723,-3.8165298203,0.8512187201\H,8.2808537574,-0.3853311524,-0.578
 2191074\H,5.5174417141,-3.721588993,1.7129449494\H,3.985987048,-4.4162
 176019,1.1213917085\H,5.380964744,-4.2875643495,0.0189844697\\Version=
 ES64L-G16RevC.01\State=1-A\HF=-2359.359207\RMSD=4.910e-09\RMSF=6.661e-
 04\Dipole=2.4776726,-0.2799655,-0.4999836\Quadrupole=2.0649607,4.56989
 93,-6.63486,-5.7869026,-0.0812925,-10.3706544\PG=C01 [X(C26H18N2O6S2)]
 \\@
 The archive entry for this job was punched.


 We find comfort among those who agree with us -- growth among those who don't.
 -- Frank A. Clark
 Job cpu time:       3 days  1 hours 10 minutes 31.6 seconds.
 Elapsed time:       0 days  4 hours 38 minutes 59.0 seconds.
 File lengths (MBytes):  RWF=    858 Int=      0 D2E=      0 Chk=     65 Scr=      1
 Normal termination of Gaussian 16 at Wed Oct 27 21:46:00 2021.
