 Entering Gaussian System, Link 0=g16
 Input=NDI_115.gjf
 Output=NDI_115.log
 Initial command:
 /apps/gaussian/g16-c01-avx/g16/l1.exe "/tmp/pbs.4768611[290].pbs/Gau-3274250.inp" -scrdir="/tmp/pbs.4768611[290].pbs/"
 Entering Link 1 = /apps/gaussian/g16-c01-avx/g16/l1.exe PID=   3274251.
  
 Copyright (c) 1988-2019, Gaussian, Inc.  All Rights Reserved.
  
 This is part of the Gaussian(R) 16 program.  It is based on
 the Gaussian(R) 09 system (copyright 2009, Gaussian, Inc.),
 the Gaussian(R) 03 system (copyright 2003, Gaussian, Inc.),
 the Gaussian(R) 98 system (copyright 1998, Gaussian, Inc.),
 the Gaussian(R) 94 system (copyright 1995, Gaussian, Inc.),
 the Gaussian 92(TM) system (copyright 1992, Gaussian, Inc.),
 the Gaussian 90(TM) system (copyright 1990, Gaussian, Inc.),
 the Gaussian 88(TM) system (copyright 1988, Gaussian, Inc.),
 the Gaussian 86(TM) system (copyright 1986, Carnegie Mellon
 University), and the Gaussian 82(TM) system (copyright 1983,
 Carnegie Mellon University). Gaussian is a federally registered
 trademark of Gaussian, Inc.
  
 This software contains proprietary and confidential information,
 including trade secrets, belonging to Gaussian, Inc.
  
 This software is provided under written license and may be
 used, copied, transmitted, or stored only in accord with that
 written license.
  
 The following legend is applicable only to US Government
 contracts under FAR:
  
                    RESTRICTED RIGHTS LEGEND
  
 Use, reproduction and disclosure by the US Government is
 subject to restrictions as set forth in subparagraphs (a)
 and (c) of the Commercial Computer Software - Restricted
 Rights clause in FAR 52.227-19.
  
 Gaussian, Inc.
 340 Quinnipiac St., Bldg. 40, Wallingford CT 06492
  
  
 ---------------------------------------------------------------
 Warning -- This program may not be used in any manner that
 competes with the business of Gaussian, Inc. or will provide
 assistance to any competitor of Gaussian, Inc.  The licensee
 of this program is prohibited from giving any competitor of
 Gaussian, Inc. access to this program.  By using this program,
 the user acknowledges that Gaussian, Inc. is engaged in the
 business of creating and licensing software in the field of
 computational chemistry and represents and warrants to the
 licensee that it is not a competitor of Gaussian, Inc. and that
 it will not use this program in any manner prohibited above.
 ---------------------------------------------------------------
  

 Cite this work as:
 Gaussian 16, Revision C.01,
 M. J. Frisch, G. W. Trucks, H. B. Schlegel, G. E. Scuseria, 
 M. A. Robb, J. R. Cheeseman, G. Scalmani, V. Barone, 
 G. A. Petersson, H. Nakatsuji, X. Li, M. Caricato, A. V. Marenich, 
 J. Bloino, B. G. Janesko, R. Gomperts, B. Mennucci, H. P. Hratchian, 
 J. V. Ortiz, A. F. Izmaylov, J. L. Sonnenberg, D. Williams-Young, 
 F. Ding, F. Lipparini, F. Egidi, J. Goings, B. Peng, A. Petrone, 
 T. Henderson, D. Ranasinghe, V. G. Zakrzewski, J. Gao, N. Rega, 
 G. Zheng, W. Liang, M. Hada, M. Ehara, K. Toyota, R. Fukuda, 
 J. Hasegawa, M. Ishida, T. Nakajima, Y. Honda, O. Kitao, H. Nakai, 
 T. Vreven, K. Throssell, J. A. Montgomery, Jr., J. E. Peralta, 
 F. Ogliaro, M. J. Bearpark, J. J. Heyd, E. N. Brothers, K. N. Kudin, 
 V. N. Staroverov, T. A. Keith, R. Kobayashi, J. Normand, 
 K. Raghavachari, A. P. Rendell, J. C. Burant, S. S. Iyengar, 
 J. Tomasi, M. Cossi, J. M. Millam, M. Klene, C. Adamo, R. Cammi, 
 J. W. Ochterski, R. L. Martin, K. Morokuma, O. Farkas, 
 J. B. Foresman, and D. J. Fox, Gaussian, Inc., Wallingford CT, 2019.
 
 ******************************************
 Gaussian 16:  ES64L-G16RevC.01  3-Jul-2019
                27-Oct-2021 
 ******************************************
 %mem=100GB
 %nprocshared=16
 Will use up to   16 processors via shared memory.
 ---------------------------------------------------------------
 # opt=modredundant b3lyp/6-311+g(d,p) scrf=(pcm, solvent=water)
 ---------------------------------------------------------------
 1/18=120,19=15,26=3,38=1/1,3;
 2/9=110,12=2,17=6,18=5,40=1/2;
 3/5=4,6=6,7=111,11=2,25=1,30=1,70=2201,71=1,72=1,74=-5/1,2,3;
 4//1;
 5/5=2,38=5,53=1/2;
 6/7=2,8=2,9=2,10=2,28=1/1;
 7//1,2,3,16;
 1/18=20,19=15,26=3/3(2);
 2/9=110/2;
 99//99;
 2/9=110/2;
 3/5=4,6=6,7=111,11=2,25=1,30=1,70=2205,71=1,72=1,74=-5/1,2,3;
 4/5=5,16=3,69=1/1;
 5/5=2,38=5,53=1/2;
 7//1,2,3,16;
 1/18=20,19=15,26=3/3(-5);
 2/9=110/2;
 6/7=2,8=2,9=2,10=2,19=2,28=1/1;
 99/9=1/99;
 -----------
 NDI_115.pdb
 -----------
 Symbolic Z-matrix:
 Charge =  0 Multiplicity = 1
 C                    -2.563    -2.994    -0.409 
 C                    -2.257    -1.551    -0.224 
 C                    -3.301    -0.607    -0.083 
 C                    -4.65     -1.024    -0.115 
 C                    -4.992    -2.459    -0.304 
 C                    -0.949    -1.137    -0.215 
 C                    -2.962     0.764     0.102 
 C                    -1.595     1.188     0.123 
 C                    -0.561     0.232    -0.072 
 C                    -1.328     2.616     0.446 
 C                    -3.777     3.115     0.508 
 C                    -4.035     1.679     0.268 
 C                    -5.356     1.252     0.23 
 C                    -5.672    -0.098     0.036 
 H                    -6.699    -0.442     0.008 
 H                    -6.133     1.997     0.361 
 H                    -0.19     -1.895    -0.369 
 N                    -2.432     3.476     0.608 
 N                    -3.916    -3.353    -0.438 
 O                    -1.695    -3.847    -0.532 
 O                    -6.149    -2.85     -0.34 
 O                    -4.676     3.938     0.629 
 O                    -0.212     3.097     0.596 
 C                    -2.111     4.875     0.912 
 H                    -1.54      4.931     1.84 
 H                    -1.5       5.299     0.111 
 H                    -3.05      5.414     1.003 
 C                    -4.206    -4.779    -0.625 
 H                    -3.759    -5.126    -1.559 
 H                    -3.775    -5.355     0.196 
 H                    -5.286    -4.897    -0.649 
 C                     0.876     0.482    -0.178 
 C                     1.922     0.106     0.642 
 S                     1.46      1.554    -1.451 
 C                     3.162     0.656     0.261 
 H                     1.795    -0.553     1.486 
 C                     3.109     1.47     -0.874 
 O                     4.356     0.465     0.882 
 C                     4.2       2.134    -1.53 
 C                     4.401    -0.482     1.946 
 C                     4.142     2.965    -2.647 
 S                     5.872     1.994    -0.994 
 H                     5.446    -0.545     2.248 
 H                     3.796    -0.149     2.799 
 H                     4.051    -1.467     1.615 
 C                     5.406     3.473    -3.062 
 O                     2.94      3.21     -3.231 
 C                     6.423     3.031    -2.26 
 H                     5.553     4.132    -3.907 
 C                     2.907     4.09     -4.349 
 H                     7.475     3.262    -2.345 
 H                     3.5       3.694    -5.184 
 H                     1.862     4.158    -4.648 
 H                     3.276     5.087    -4.081 
 
 The following ModRedundant input section has been read:
 D       8       9      32      33 F                                           
 

 GradGradGradGradGradGradGradGradGradGradGradGradGradGradGradGradGradGrad
 Berny optimization.
 Initialization pass.
                           ----------------------------
                           !    Initial Parameters    !
                           ! (Angstroms and Degrees)  !
 --------------------------                            --------------------------
 ! Name  Definition              Value          Derivative Info.                !
 --------------------------------------------------------------------------------
 ! R1    R(1,2)                  1.4866         estimate D2E/DX2                !
 ! R2    R(1,19)                 1.4001         estimate D2E/DX2                !
 ! R3    R(1,20)                 1.2232         estimate D2E/DX2                !
 ! R4    R(2,3)                  1.4146         estimate D2E/DX2                !
 ! R5    R(2,6)                  1.372          estimate D2E/DX2                !
 ! R6    R(3,4)                  1.4123         estimate D2E/DX2                !
 ! R7    R(3,7)                  1.4244         estimate D2E/DX2                !
 ! R8    R(4,5)                  1.4872         estimate D2E/DX2                !
 ! R9    R(4,14)                 1.3874         estimate D2E/DX2                !
 ! R10   R(5,19)                 1.4053         estimate D2E/DX2                !
 ! R11   R(5,21)                 1.2218         estimate D2E/DX2                !
 ! R12   R(6,9)                  1.4301         estimate D2E/DX2                !
 ! R13   R(6,17)                 1.0837         estimate D2E/DX2                !
 ! R14   R(7,8)                  1.4314         estimate D2E/DX2                !
 ! R15   R(7,12)                 1.4199         estimate D2E/DX2                !
 ! R16   R(8,9)                  1.4217         estimate D2E/DX2                !
 ! R17   R(8,10)                 1.4882         estimate D2E/DX2                !
 ! R18   R(9,32)                 1.4624         estimate D2E/DX2                !
 ! R19   R(10,18)                1.4088         estimate D2E/DX2                !
 ! R20   R(10,23)                1.2245         estimate D2E/DX2                !
 ! R21   R(11,12)                1.4786         estimate D2E/DX2                !
 ! R22   R(11,18)                1.3962         estimate D2E/DX2                !
 ! R23   R(11,22)                1.2248         estimate D2E/DX2                !
 ! R24   R(12,13)                1.3888         estimate D2E/DX2                !
 ! R25   R(13,14)                1.4            estimate D2E/DX2                !
 ! R26   R(13,16)                1.0844         estimate D2E/DX2                !
 ! R27   R(14,15)                1.0834         estimate D2E/DX2                !
 ! R28   R(18,24)                1.4672         estimate D2E/DX2                !
 ! R29   R(19,28)                1.4672         estimate D2E/DX2                !
 ! R30   R(24,25)                1.091          estimate D2E/DX2                !
 ! R31   R(24,26)                1.093          estimate D2E/DX2                !
 ! R32   R(24,27)                1.0865         estimate D2E/DX2                !
 ! R33   R(28,29)                1.0921         estimate D2E/DX2                !
 ! R34   R(28,30)                1.0916         estimate D2E/DX2                !
 ! R35   R(28,31)                1.0867         estimate D2E/DX2                !
 ! R36   R(32,33)                1.3813         estimate D2E/DX2                !
 ! R37   R(32,34)                1.7637         estimate D2E/DX2                !
 ! R38   R(33,35)                1.409          estimate D2E/DX2                !
 ! R39   R(33,36)                1.0783         estimate D2E/DX2                !
 ! R40   R(34,37)                1.7491         estimate D2E/DX2                !
 ! R41   R(35,37)                1.3977         estimate D2E/DX2                !
 ! R42   R(35,38)                1.3593         estimate D2E/DX2                !
 ! R43   R(37,39)                1.4358         estimate D2E/DX2                !
 ! R44   R(38,40)                1.4251         estimate D2E/DX2                !
 ! R45   R(39,41)                1.3934         estimate D2E/DX2                !
 ! R46   R(39,42)                1.7614         estimate D2E/DX2                !
 ! R47   R(40,43)                1.0896         estimate D2E/DX2                !
 ! R48   R(40,44)                1.0975         estimate D2E/DX2                !
 ! R49   R(40,45)                1.0965         estimate D2E/DX2                !
 ! R50   R(41,46)                1.4241         estimate D2E/DX2                !
 ! R51   R(41,47)                1.3586         estimate D2E/DX2                !
 ! R52   R(42,48)                1.7268         estimate D2E/DX2                !
 ! R53   R(46,48)                1.3685         estimate D2E/DX2                !
 ! R54   R(46,49)                1.0816         estimate D2E/DX2                !
 ! R55   R(47,50)                1.4232         estimate D2E/DX2                !
 ! R56   R(48,51)                1.0804         estimate D2E/DX2                !
 ! R57   R(50,52)                1.098          estimate D2E/DX2                !
 ! R58   R(50,53)                1.0891         estimate D2E/DX2                !
 ! R59   R(50,54)                1.0964         estimate D2E/DX2                !
 ! A1    A(2,1,19)             116.767          estimate D2E/DX2                !
 ! A2    A(2,1,20)             122.9113         estimate D2E/DX2                !
 ! A3    A(19,1,20)            120.3217         estimate D2E/DX2                !
 ! A4    A(1,2,3)              120.5473         estimate D2E/DX2                !
 ! A5    A(1,2,6)              119.3369         estimate D2E/DX2                !
 ! A6    A(3,2,6)              120.1056         estimate D2E/DX2                !
 ! A7    A(2,3,4)              120.3743         estimate D2E/DX2                !
 ! A8    A(2,3,7)              118.662          estimate D2E/DX2                !
 ! A9    A(4,3,7)              120.9617         estimate D2E/DX2                !
 ! A10   A(3,4,5)              120.4909         estimate D2E/DX2                !
 ! A11   A(3,4,14)             120.2702         estimate D2E/DX2                !
 ! A12   A(5,4,14)             119.2382         estimate D2E/DX2                !
 ! A13   A(4,5,19)             116.7341         estimate D2E/DX2                !
 ! A14   A(4,5,21)             122.024          estimate D2E/DX2                !
 ! A15   A(19,5,21)            121.2418         estimate D2E/DX2                !
 ! A16   A(2,6,9)              123.2421         estimate D2E/DX2                !
 ! A17   A(2,6,17)             117.1119         estimate D2E/DX2                !
 ! A18   A(9,6,17)             119.589          estimate D2E/DX2                !
 ! A19   A(3,7,8)              120.9519         estimate D2E/DX2                !
 ! A20   A(3,7,12)             117.1037         estimate D2E/DX2                !
 ! A21   A(8,7,12)             121.944          estimate D2E/DX2                !
 ! A22   A(7,8,9)              119.5639         estimate D2E/DX2                !
 ! A23   A(7,8,10)             117.3064         estimate D2E/DX2                !
 ! A24   A(9,8,10)             122.9922         estimate D2E/DX2                !
 ! A25   A(6,9,8)              117.3944         estimate D2E/DX2                !
 ! A26   A(6,9,32)             115.0236         estimate D2E/DX2                !
 ! A27   A(8,9,32)             127.5648         estimate D2E/DX2                !
 ! A28   A(8,10,18)            118.042          estimate D2E/DX2                !
 ! A29   A(8,10,23)            124.5436         estimate D2E/DX2                !
 ! A30   A(18,10,23)           117.4097         estimate D2E/DX2                !
 ! A31   A(12,11,18)           115.5202         estimate D2E/DX2                !
 ! A32   A(12,11,22)           122.7205         estimate D2E/DX2                !
 ! A33   A(18,11,22)           121.7534         estimate D2E/DX2                !
 ! A34   A(7,12,11)            120.8614         estimate D2E/DX2                !
 ! A35   A(7,12,13)            121.162          estimate D2E/DX2                !
 ! A36   A(11,12,13)           117.9699         estimate D2E/DX2                !
 ! A37   A(12,13,14)           120.9948         estimate D2E/DX2                !
 ! A38   A(12,13,16)           117.8401         estimate D2E/DX2                !
 ! A39   A(14,13,16)           121.1642         estimate D2E/DX2                !
 ! A40   A(4,14,13)            119.5003         estimate D2E/DX2                !
 ! A41   A(4,14,15)            118.9169         estimate D2E/DX2                !
 ! A42   A(13,14,15)           121.5811         estimate D2E/DX2                !
 ! A43   A(10,18,11)           126.0753         estimate D2E/DX2                !
 ! A44   A(10,18,24)           115.7508         estimate D2E/DX2                !
 ! A45   A(11,18,24)           118.1737         estimate D2E/DX2                !
 ! A46   A(1,19,5)             125.0856         estimate D2E/DX2                !
 ! A47   A(1,19,28)            116.2868         estimate D2E/DX2                !
 ! A48   A(5,19,28)            118.6276         estimate D2E/DX2                !
 ! A49   A(18,24,25)           109.8574         estimate D2E/DX2                !
 ! A50   A(18,24,26)           109.8979         estimate D2E/DX2                !
 ! A51   A(18,24,27)           107.5355         estimate D2E/DX2                !
 ! A52   A(25,24,26)           108.1108         estimate D2E/DX2                !
 ! A53   A(25,24,27)           110.8301         estimate D2E/DX2                !
 ! A54   A(26,24,27)           110.6124         estimate D2E/DX2                !
 ! A55   A(19,28,29)           109.6906         estimate D2E/DX2                !
 ! A56   A(19,28,30)           109.8136         estimate D2E/DX2                !
 ! A57   A(19,28,31)           107.7461         estimate D2E/DX2                !
 ! A58   A(29,28,30)           108.2991         estimate D2E/DX2                !
 ! A59   A(29,28,31)           110.6959         estimate D2E/DX2                !
 ! A60   A(30,28,31)           110.5924         estimate D2E/DX2                !
 ! A61   A(9,32,33)            130.8851         estimate D2E/DX2                !
 ! A62   A(9,32,34)            118.7883         estimate D2E/DX2                !
 ! A63   A(33,32,34)           110.0712         estimate D2E/DX2                !
 ! A64   A(32,33,35)           113.5571         estimate D2E/DX2                !
 ! A65   A(32,33,36)           122.8086         estimate D2E/DX2                !
 ! A66   A(35,33,36)           123.6322         estimate D2E/DX2                !
 ! A67   A(32,34,37)            92.5723         estimate D2E/DX2                !
 ! A68   A(33,35,37)           114.4273         estimate D2E/DX2                !
 ! A69   A(33,35,38)           126.4873         estimate D2E/DX2                !
 ! A70   A(37,35,38)           119.0853         estimate D2E/DX2                !
 ! A71   A(34,37,35)           109.3661         estimate D2E/DX2                !
 ! A72   A(34,37,39)           122.9192         estimate D2E/DX2                !
 ! A73   A(35,37,39)           127.6997         estimate D2E/DX2                !
 ! A74   A(35,38,40)           117.5287         estimate D2E/DX2                !
 ! A75   A(37,39,41)           127.6203         estimate D2E/DX2                !
 ! A76   A(37,39,42)           123.0591         estimate D2E/DX2                !
 ! A77   A(41,39,42)           109.3206         estimate D2E/DX2                !
 ! A78   A(38,40,43)           106.0004         estimate D2E/DX2                !
 ! A79   A(38,40,44)           111.1769         estimate D2E/DX2                !
 ! A80   A(38,40,45)           111.1914         estimate D2E/DX2                !
 ! A81   A(43,40,44)           109.3182         estimate D2E/DX2                !
 ! A82   A(43,40,45)           109.747          estimate D2E/DX2                !
 ! A83   A(44,40,45)           109.3432         estimate D2E/DX2                !
 ! A84   A(39,41,46)           114.1674         estimate D2E/DX2                !
 ! A85   A(39,41,47)           119.2711         estimate D2E/DX2                !
 ! A86   A(46,41,47)           126.5608         estimate D2E/DX2                !
 ! A87   A(39,42,48)            91.8373         estimate D2E/DX2                !
 ! A88   A(41,46,48)           111.9385         estimate D2E/DX2                !
 ! A89   A(41,46,49)           124.4464         estimate D2E/DX2                !
 ! A90   A(48,46,49)           123.615          estimate D2E/DX2                !
 ! A91   A(41,47,50)           118.0142         estimate D2E/DX2                !
 ! A92   A(42,48,46)           112.7362         estimate D2E/DX2                !
 ! A93   A(42,48,51)           119.7874         estimate D2E/DX2                !
 ! A94   A(46,48,51)           127.4764         estimate D2E/DX2                !
 ! A95   A(47,50,52)           111.2146         estimate D2E/DX2                !
 ! A96   A(47,50,53)           106.0535         estimate D2E/DX2                !
 ! A97   A(47,50,54)           111.2519         estimate D2E/DX2                !
 ! A98   A(52,50,53)           109.3868         estimate D2E/DX2                !
 ! A99   A(52,50,54)           109.3953         estimate D2E/DX2                !
 ! A100  A(53,50,54)           109.4683         estimate D2E/DX2                !
 ! D1    D(19,1,2,3)             0.1578         estimate D2E/DX2                !
 ! D2    D(19,1,2,6)          -178.6792         estimate D2E/DX2                !
 ! D3    D(20,1,2,3)          -179.8231         estimate D2E/DX2                !
 ! D4    D(20,1,2,6)             1.3399         estimate D2E/DX2                !
 ! D5    D(2,1,19,5)            -0.124          estimate D2E/DX2                !
 ! D6    D(2,1,19,28)          179.8267         estimate D2E/DX2                !
 ! D7    D(20,1,19,5)          179.8575         estimate D2E/DX2                !
 ! D8    D(20,1,19,28)          -0.1919         estimate D2E/DX2                !
 ! D9    D(1,2,3,4)              0.0571         estimate D2E/DX2                !
 ! D10   D(1,2,3,7)            179.5453         estimate D2E/DX2                !
 ! D11   D(6,2,3,4)            178.8851         estimate D2E/DX2                !
 ! D12   D(6,2,3,7)             -1.6266         estimate D2E/DX2                !
 ! D13   D(1,2,6,9)            178.625          estimate D2E/DX2                !
 ! D14   D(1,2,6,17)             1.3881         estimate D2E/DX2                !
 ! D15   D(3,2,6,9)             -0.2173         estimate D2E/DX2                !
 ! D16   D(3,2,6,17)          -177.4541         estimate D2E/DX2                !
 ! D17   D(2,3,4,5)             -0.3074         estimate D2E/DX2                !
 ! D18   D(2,3,4,14)           179.3968         estimate D2E/DX2                !
 ! D19   D(7,3,4,5)           -179.7837         estimate D2E/DX2                !
 ! D20   D(7,3,4,14)            -0.0795         estimate D2E/DX2                !
 ! D21   D(2,3,7,8)              1.0523         estimate D2E/DX2                !
 ! D22   D(2,3,7,12)          -178.712          estimate D2E/DX2                !
 ! D23   D(4,3,7,8)           -179.4626         estimate D2E/DX2                !
 ! D24   D(4,3,7,12)             0.7731         estimate D2E/DX2                !
 ! D25   D(3,4,5,19)             0.3343         estimate D2E/DX2                !
 ! D26   D(3,4,5,21)          -179.7799         estimate D2E/DX2                !
 ! D27   D(14,4,5,19)         -179.3729         estimate D2E/DX2                !
 ! D28   D(14,4,5,21)            0.5129         estimate D2E/DX2                !
 ! D29   D(3,4,14,13)           -0.4559         estimate D2E/DX2                !
 ! D30   D(3,4,14,15)         -179.9937         estimate D2E/DX2                !
 ! D31   D(5,4,14,13)          179.252          estimate D2E/DX2                !
 ! D32   D(5,4,14,15)           -0.2858         estimate D2E/DX2                !
 ! D33   D(4,5,19,1)            -0.1141         estimate D2E/DX2                !
 ! D34   D(4,5,19,28)          179.9364         estimate D2E/DX2                !
 ! D35   D(21,5,19,1)          179.9992         estimate D2E/DX2                !
 ! D36   D(21,5,19,28)           0.0496         estimate D2E/DX2                !
 ! D37   D(2,6,9,8)              2.5984         estimate D2E/DX2                !
 ! D38   D(2,6,9,32)          -176.0103         estimate D2E/DX2                !
 ! D39   D(17,6,9,8)           179.77           estimate D2E/DX2                !
 ! D40   D(17,6,9,32)            1.1613         estimate D2E/DX2                !
 ! D41   D(3,7,8,9)              1.3551         estimate D2E/DX2                !
 ! D42   D(3,7,8,10)          -174.5099         estimate D2E/DX2                !
 ! D43   D(12,7,8,9)          -178.8921         estimate D2E/DX2                !
 ! D44   D(12,7,8,10)            5.2428         estimate D2E/DX2                !
 ! D45   D(3,7,12,11)          178.0768         estimate D2E/DX2                !
 ! D46   D(3,7,12,13)           -0.9621         estimate D2E/DX2                !
 ! D47   D(8,7,12,11)           -1.685          estimate D2E/DX2                !
 ! D48   D(8,7,12,13)          179.2761         estimate D2E/DX2                !
 ! D49   D(7,8,9,6)             -3.0809         estimate D2E/DX2                !
 ! D50   D(7,8,9,32)           175.3285         estimate D2E/DX2                !
 ! D51   D(10,8,9,6)           172.5381         estimate D2E/DX2                !
 ! D52   D(10,8,9,32)           -9.0525         estimate D2E/DX2                !
 ! D53   D(7,8,10,18)           -4.7549         estimate D2E/DX2                !
 ! D54   D(7,8,10,23)          174.4235         estimate D2E/DX2                !
 ! D55   D(9,8,10,18)          179.5335         estimate D2E/DX2                !
 ! D56   D(9,8,10,23)           -1.2882         estimate D2E/DX2                !
 ! D57   D(6,9,32,33)          -66.5487         estimate D2E/DX2                !
 ! D58   D(6,9,32,34)          119.8941         estimate D2E/DX2                !
 ! D59   D(8,9,32,33)          115.0098         Frozen                          !
 ! D60   D(8,9,32,34)          -58.5474         estimate D2E/DX2                !
 ! D61   D(8,10,18,11)           0.7189         estimate D2E/DX2                !
 ! D62   D(8,10,18,24)        -179.4089         estimate D2E/DX2                !
 ! D63   D(23,10,18,11)       -178.5188         estimate D2E/DX2                !
 ! D64   D(23,10,18,24)          1.3535         estimate D2E/DX2                !
 ! D65   D(18,11,12,7)          -2.3856         estimate D2E/DX2                !
 ! D66   D(18,11,12,13)        176.6833         estimate D2E/DX2                !
 ! D67   D(22,11,12,7)         178.4862         estimate D2E/DX2                !
 ! D68   D(22,11,12,13)         -2.445          estimate D2E/DX2                !
 ! D69   D(12,11,18,10)          2.8444         estimate D2E/DX2                !
 ! D70   D(12,11,18,24)       -177.0251         estimate D2E/DX2                !
 ! D71   D(22,11,18,10)       -178.0181         estimate D2E/DX2                !
 ! D72   D(22,11,18,24)          2.1124         estimate D2E/DX2                !
 ! D73   D(7,12,13,14)           0.461          estimate D2E/DX2                !
 ! D74   D(7,12,13,16)        -179.8781         estimate D2E/DX2                !
 ! D75   D(11,12,13,14)       -178.6049         estimate D2E/DX2                !
 ! D76   D(11,12,13,16)          1.056          estimate D2E/DX2                !
 ! D77   D(12,13,14,4)           0.2708         estimate D2E/DX2                !
 ! D78   D(12,13,14,15)        179.7958         estimate D2E/DX2                !
 ! D79   D(16,13,14,4)        -179.3788         estimate D2E/DX2                !
 ! D80   D(16,13,14,15)          0.1463         estimate D2E/DX2                !
 ! D81   D(10,18,24,25)        -59.609          estimate D2E/DX2                !
 ! D82   D(10,18,24,26)         59.2209         estimate D2E/DX2                !
 ! D83   D(10,18,24,27)        179.6858         estimate D2E/DX2                !
 ! D84   D(11,18,24,25)        120.2739         estimate D2E/DX2                !
 ! D85   D(11,18,24,26)       -120.8962         estimate D2E/DX2                !
 ! D86   D(11,18,24,27)         -0.4313         estimate D2E/DX2                !
 ! D87   D(1,19,28,29)         -58.1407         estimate D2E/DX2                !
 ! D88   D(1,19,28,30)          60.7668         estimate D2E/DX2                !
 ! D89   D(1,19,28,31)        -178.7139         estimate D2E/DX2                !
 ! D90   D(5,19,28,29)         121.8132         estimate D2E/DX2                !
 ! D91   D(5,19,28,30)        -119.2792         estimate D2E/DX2                !
 ! D92   D(5,19,28,31)           1.2401         estimate D2E/DX2                !
 ! D93   D(9,32,33,35)        -174.2154         estimate D2E/DX2                !
 ! D94   D(9,32,33,36)           6.3004         estimate D2E/DX2                !
 ! D95   D(34,32,33,35)         -0.2254         estimate D2E/DX2                !
 ! D96   D(34,32,33,36)       -179.7096         estimate D2E/DX2                !
 ! D97   D(9,32,34,37)         175.3715         estimate D2E/DX2                !
 ! D98   D(33,32,34,37)          0.5535         estimate D2E/DX2                !
 ! D99   D(32,33,35,37)         -0.3473         estimate D2E/DX2                !
 ! D100  D(32,33,35,38)        179.7348         estimate D2E/DX2                !
 ! D101  D(36,33,35,37)        179.132          estimate D2E/DX2                !
 ! D102  D(36,33,35,38)         -0.7859         estimate D2E/DX2                !
 ! D103  D(32,34,37,35)         -0.7319         estimate D2E/DX2                !
 ! D104  D(32,34,37,39)        177.9575         estimate D2E/DX2                !
 ! D105  D(33,35,37,34)          0.7489         estimate D2E/DX2                !
 ! D106  D(33,35,37,39)       -177.8607         estimate D2E/DX2                !
 ! D107  D(38,35,37,34)       -179.3266         estimate D2E/DX2                !
 ! D108  D(38,35,37,39)          2.0637         estimate D2E/DX2                !
 ! D109  D(33,35,38,40)          6.5328         estimate D2E/DX2                !
 ! D110  D(37,35,38,40)       -173.3816         estimate D2E/DX2                !
 ! D111  D(34,37,39,41)          2.8495         estimate D2E/DX2                !
 ! D112  D(34,37,39,42)       -177.1999         estimate D2E/DX2                !
 ! D113  D(35,37,39,41)       -178.7131         estimate D2E/DX2                !
 ! D114  D(35,37,39,42)          1.2374         estimate D2E/DX2                !
 ! D115  D(35,38,40,43)        175.4869         estimate D2E/DX2                !
 ! D116  D(35,38,40,44)        -65.8171         estimate D2E/DX2                !
 ! D117  D(35,38,40,45)         56.2678         estimate D2E/DX2                !
 ! D118  D(37,39,41,46)       -179.9368         estimate D2E/DX2                !
 ! D119  D(37,39,41,47)         -0.2383         estimate D2E/DX2                !
 ! D120  D(42,39,41,46)          0.1071         estimate D2E/DX2                !
 ! D121  D(42,39,41,47)        179.8056         estimate D2E/DX2                !
 ! D122  D(37,39,42,48)        179.9912         estimate D2E/DX2                !
 ! D123  D(41,39,42,48)         -0.0503         estimate D2E/DX2                !
 ! D124  D(39,41,46,48)         -0.1244         estimate D2E/DX2                !
 ! D125  D(39,41,46,49)       -179.9607         estimate D2E/DX2                !
 ! D126  D(47,41,46,48)       -179.797          estimate D2E/DX2                !
 ! D127  D(47,41,46,49)          0.3667         estimate D2E/DX2                !
 ! D128  D(39,41,47,50)        178.4022         estimate D2E/DX2                !
 ! D129  D(46,41,47,50)         -1.9403         estimate D2E/DX2                !
 ! D130  D(39,42,48,46)         -0.0187         estimate D2E/DX2                !
 ! D131  D(39,42,48,51)        179.8999         estimate D2E/DX2                !
 ! D132  D(41,46,48,42)          0.0822         estimate D2E/DX2                !
 ! D133  D(41,46,48,51)       -179.8288         estimate D2E/DX2                !
 ! D134  D(49,46,48,42)        179.9201         estimate D2E/DX2                !
 ! D135  D(49,46,48,51)          0.0091         estimate D2E/DX2                !
 ! D136  D(41,47,50,52)         62.0363         estimate D2E/DX2                !
 ! D137  D(41,47,50,53)       -179.1332         estimate D2E/DX2                !
 ! D138  D(41,47,50,54)        -60.1843         estimate D2E/DX2                !
 --------------------------------------------------------------------------------
 Trust Radius=3.00D-01 FncErr=1.00D-07 GrdErr=1.00D-06 EigMax=2.50D+02 EigMin=1.00D-04
 Number of steps in this run=    307 maximum allowed number of steps=    324.
 GradGradGradGradGradGradGradGradGradGradGradGradGradGradGradGradGradGrad

 Stoichiometry    C26H18N2O6S2
 Framework group  C1[X(C26H18N2O6S2)]
 Deg. of freedom   156
 Full point group                 C1      NOp   1
 Largest Abelian subgroup         C1      NOp   1
 Largest concise Abelian subgroup C1      NOp   1
                         Standard orientation:                         
 ---------------------------------------------------------------------
 Center     Atomic      Atomic             Coordinates (Angstroms)
 Number     Number       Type             X           Y           Z
 ---------------------------------------------------------------------
      1          6           0        3.585604   -2.683451    0.464754
      2          6           0        2.811007   -1.452190    0.157989
      3          6           0        3.451450   -0.191617    0.116250
      4          6           0        4.837772   -0.086342    0.364728
      5          6           0        5.641966   -1.296994    0.680172
      6          6           0        1.459930   -1.545282   -0.061709
      7          6           0        2.672537    0.960563   -0.191261
      8          6           0        1.265439    0.855210   -0.431843
      9          6           0        0.630217   -0.412924   -0.334647
     10          6           0        0.553372    2.086903   -0.868530
     11          6           0        2.634520    3.447129   -0.605756
     12          6           0        3.353981    2.204776   -0.251928
     13          6           0        4.717247    2.290497   -0.000989
     14          6           0        5.466032    1.149441    0.310948
     15          1           0        6.530479    1.204886    0.505181
     16          1           0        5.182572    3.268191   -0.060155
     17          1           0        1.012316   -2.528513    0.023489
     18          7           0        1.282590    3.291261   -0.917743
     19          7           0        4.955098   -2.522729    0.707625
     20          8           0        3.076876   -3.794939    0.508936
     21          8           0        6.841717   -1.237750    0.903586
     22          8           0        3.182293    4.542033   -0.641846
     23          8           0       -0.623665    2.126524   -1.203689
     24          6           0        0.528426    4.476195   -1.341803
     25          1           0        0.125972    4.320323   -2.343849
     26          1           0       -0.310027    4.646595   -0.661614
     27          1           0        1.211039    5.321379   -1.326757
     28          6           0        5.708528   -3.744022    1.013126
     29          1           0        5.279150   -4.231336    1.891040
     30          1           0        5.646829   -4.436994    0.171959
     31          1           0        6.740622   -3.458848    1.198485
     32          6           0       -0.797896   -0.705942   -0.450146
     33          6           0       -1.497587   -1.437715   -1.389738
     34         16           0       -1.918456    0.076998    0.664358
     35          6           0       -2.895340   -1.379719   -1.221862
     36          1           0       -1.012622   -2.003820   -2.168892
     37          6           0       -3.315619   -0.603786   -0.137923
     38          8           0       -3.828645   -1.993628   -1.996340
     39          6           0       -4.659908   -0.385446    0.316752
     40          6           0       -3.363855   -2.890485   -3.001601
     41          6           0       -5.078964    0.408154    1.382680
     42         16           0       -6.064287   -1.126800   -0.445216
     43          1           0       -4.255530   -3.331059   -3.446583
     44          1           0       -2.796595   -2.358485   -3.776014
     45          1           0       -2.736855   -3.679523   -2.569657
     46          6           0       -6.488837    0.418250    1.583034
     47          8           0       -4.152130    1.075281    2.118754
     48          6           0       -7.140770   -0.364359    0.669053
     49          1           0       -6.992347    0.977039    2.360303
     50          6           0       -4.612044    1.905341    3.179363
     51          1           0       -8.204749   -0.534224    0.589148
     52          1           0       -5.142723    1.319113    3.941208
     53          1           0       -3.721715    2.350572    3.621103
     54          1           0       -5.270553    2.698541    2.806274
 ---------------------------------------------------------------------
 Rotational constants (GHZ):           0.1655221           0.0553724           0.0469790
 Standard basis: 6-311+G(d,p) (5D, 7F)
 There are   952 symmetry adapted cartesian basis functions of A   symmetry.
 There are   916 symmetry adapted basis functions of A   symmetry.
   916 basis functions,  1468 primitive gaussians,   952 cartesian basis functions
   134 alpha electrons      134 beta electrons
       nuclear repulsion energy      4095.6271234550 Hartrees.
 NAtoms=   54 NActive=   54 NUniq=   54 SFac= 1.00D+00 NAtFMM=   60 NAOKFM=F Big=F
 Integral buffers will be    131072 words long.
 Raffenetti 2 integral format.
 Two-electron integral symmetry is turned on.
 ------------------------------------------------------------------------------
 Polarizable Continuum Model (PCM)
 =================================
 Model                : PCM.
 Atomic radii         : UFF (Universal Force Field).
 Polarization charges : Total charges.
 Charge compensation  : None.
 Solution method      : On-the-fly selection.
 Cavity type          : Scaled VdW (van der Waals Surface) (Alpha=1.100).
 Cavity algorithm     : GePol (No added spheres)
                        Default sphere list used, NSphG=   54.
                        Lebedev-Laikov grids with approx.  5.0 points / Ang**2.
                        Smoothing algorithm: York/Karplus (Gamma=1.0000).
                        Polarization charges: spherical gaussians, with
                                              point-specific exponents (IZeta= 3).
                        Self-potential: point-specific (ISelfS= 7).
                        Self-field    : sphere-specific E.n sum rule (ISelfD= 2).
 1st derivatives      : Analytical E(r).r(x)/FMM algorithm (CHGder, D1EAlg=3).
                        Cavity 1st derivative terms included.
 Solvent              : Water, Eps=  78.355300 Eps(inf)=   1.777849
 ------------------------------------------------------------------------------
 One-electron integrals computed using PRISM.
 NBasis=   916 RedAO= T EigKep=  1.02D-06  NBF=   916
 NBsUse=   902 1.00D-06 EigRej=  6.79D-07 NBFU=   902
 ExpMin= 4.05D-02 ExpMax= 9.34D+04 ExpMxC= 3.17D+03 IAcc=3 IRadAn=         5 AccDes= 0.00D+00
 Harris functional with IExCor=  402 and IRadAn=       5 diagonalized for initial guess.
 HarFok:  IExCor=  402 AccDes= 0.00D+00 IRadAn=         5 IDoV= 1 UseB2=F ITyADJ=14
 ICtDFT=  3500011 ScaDFX=  1.000000  1.000000  1.000000  1.000000
 FoFCou: FMM=F IPFlag=           0 FMFlag=      100000 FMFlg1=           0
         NFxFlg=           0 DoJE=T BraDBF=F KetDBF=T FulRan=T
         wScrn=  0.000000 ICntrl=       500 IOpCl=  0 I1Cent=   200000004 NGrid=           0
         NMat0=    1 NMatS0=      1 NMatT0=    0 NMatD0=    1 NMtDS0=    0 NMtDT0=    0
 Petite list used in FoFCou.
 Requested convergence on RMS density matrix=1.00D-08 within 128 cycles.
 Requested convergence on MAX density matrix=1.00D-06.
 Requested convergence on             energy=1.00D-06.
 No special actions if energy rises.
 Inv3:  Mode=1 IEnd=    52467372.
 Iteration    1 A*A^-1 deviation from unit magnitude is 8.22D-15 for   4181.
 Iteration    1 A*A^-1 deviation from orthogonality  is 2.44D-15 for   3628    597.
 Iteration    1 A^-1*A deviation from unit magnitude is 8.22D-15 for   4181.
 Iteration    1 A^-1*A deviation from orthogonality  is 7.74D-14 for   2499   2474.
 Error on total polarization charges =  0.02289
 SCF Done:  E(RB3LYP) =  -2359.35453965     A.U. after   18 cycles
            NFock= 18  Conv=0.21D-08     -V/T= 2.0032

 **********************************************************************

            Population analysis using the SCF Density.

 **********************************************************************

 Orbital symmetries:
       Occupied  (A) (A) (A) (A) (A) (A) (A) (A) (A) (A) (A) (A)
                 (A) (A) (A) (A) (A) (A) (A) (A) (A) (A) (A) (A)
                 (A) (A) (A) (A) (A) (A) (A) (A) (A) (A) (A) (A)
                 (A) (A) (A) (A) (A) (A) (A) (A) (A) (A) (A) (A)
                 (A) (A) (A) (A) (A) (A) (A) (A) (A) (A) (A) (A)
                 (A) (A) (A) (A) (A) (A) (A) (A) (A) (A) (A) (A)
                 (A) (A) (A) (A) (A) (A) (A) (A) (A) (A) (A) (A)
                 (A) (A) (A) (A) (A) (A) (A) (A) (A) (A) (A) (A)
                 (A) (A) (A) (A) (A) (A) (A) (A) (A) (A) (A) (A)
                 (A) (A) (A) (A) (A) (A) (A) (A) (A) (A) (A) (A)
                 (A) (A) (A) (A) (A) (A) (A) (A) (A) (A) (A) (A)
                 (A) (A)
       Virtual   (A) (A) (A) (A) (A) (A) (A) (A) (A) (A) (A) (A)
                 (A) (A) (A) (A) (A) (A) (A) (A) (A) (A) (A) (A)
                 (A) (A) (A) (A) (A) (A) (A) (A) (A) (A) (A) (A)
                 (A) (A) (A) (A) (A) (A) (A) (A) (A) (A) (A) (A)
                 (A) (A) (A) (A) (A) (A) (A) (A) (A) (A) (A) (A)
                 (A) (A) (A) (A) (A) (A) (A) (A) (A) (A) (A) (A)
                 (A) (A) (A) (A) (A) (A) (A) (A) (A) (A) (A) (A)
                 (A) (A) (A) (A) (A) (A) (A) (A) (A) (A) (A) (A)
                 (A) (A) (A) (A) (A) (A) (A) (A) (A) (A) (A) (A)
                 (A) (A) (A) (A) (A) (A) (A) (A) (A) (A) (A) (A)
                 (A) (A) (A) (A) (A) (A) (A) (A) (A) (A) (A) (A)
                 (A) (A) (A) (A) (A) (A) (A) (A) (A) (A) (A) (A)
                 (A) (A) (A) (A) (A) (A) (A) (A) (A) (A) (A) (A)
                 (A) (A) (A) (A) (A) (A) (A) (A) (A) (A) (A) (A)
                 (A) (A) (A) (A) (A) (A) (A) (A) (A) (A) (A) (A)
                 (A) (A) (A) (A) (A) (A) (A) (A) (A) (A) (A) (A)
                 (A) (A) (A) (A) (A) (A) (A) (A) (A) (A) (A) (A)
                 (A) (A) (A) (A) (A) (A) (A) (A) (A) (A) (A) (A)
                 (A) (A) (A) (A) (A) (A) (A) (A) (A) (A) (A) (A)
                 (A) (A) (A) (A) (A) (A) (A) (A) (A) (A) (A) (A)
                 (A) (A) (A) (A) (A) (A) (A) (A) (A) (A) (A) (A)
                 (A) (A) (A) (A) (A) (A) (A) (A) (A) (A) (A) (A)
                 (A) (A) (A) (A) (A) (A) (A) (A) (A) (A) (A) (A)
                 (A) (A) (A) (A) (A) (A) (A) (A) (A) (A) (A) (A)
                 (A) (A) (A) (A) (A) (A) (A) (A) (A) (A) (A) (A)
                 (A) (A) (A) (A) (A) (A) (A) (A) (A) (A) (A) (A)
                 (A) (A) (A) (A) (A) (A) (A) (A) (A) (A) (A) (A)
                 (A) (A) (A) (A) (A) (A) (A) (A) (A) (A) (A) (A)
                 (A) (A) (A) (A) (A) (A) (A) (A) (A) (A) (A) (A)
                 (A) (A) (A) (A) (A) (A) (A) (A) (A) (A) (A) (A)
                 (A) (A) (A) (A) (A) (A) (A) (A) (A) (A) (A) (A)
                 (A) (A) (A) (A) (A) (A) (A) (A) (A) (A) (A) (A)
                 (A) (A) (A) (A) (A) (A) (A) (A) (A) (A) (A) (A)
                 (A) (A) (A) (A) (A) (A) (A) (A) (A) (A) (A) (A)
                 (A) (A) (A) (A) (A) (A) (A) (A) (A) (A) (A) (A)
                 (A) (A) (A) (A) (A) (A) (A) (A) (A) (A) (A) (A)
                 (A) (A) (A) (A) (A) (A) (A) (A) (A) (A) (A) (A)
                 (A) (A) (A) (A) (A) (A) (A) (A) (A) (A) (A) (A)
                 (A) (A) (A) (A) (A) (A) (A) (A) (A) (A) (A) (A)
                 (A) (A) (A) (A) (A) (A) (A) (A) (A) (A) (A) (A)
                 (A) (A) (A) (A) (A) (A) (A) (A) (A) (A) (A) (A)
                 (A) (A) (A) (A) (A) (A) (A) (A) (A) (A) (A) (A)
                 (A) (A) (A) (A) (A) (A) (A) (A) (A) (A) (A) (A)
                 (A) (A) (A) (A) (A) (A) (A) (A) (A) (A) (A) (A)
                 (A) (A) (A) (A) (A) (A) (A) (A) (A) (A) (A) (A)
                 (A) (A) (A) (A) (A) (A) (A) (A) (A) (A) (A) (A)
                 (A) (A) (A) (A) (A) (A) (A) (A) (A) (A) (A) (A)
                 (A) (A) (A) (A) (A) (A) (A) (A) (A) (A) (A) (A)
                 (A) (A) (A) (A) (A) (A) (A) (A) (A) (A) (A) (A)
                 (A) (A) (A) (A) (A) (A) (A) (A) (A) (A) (A) (A)
                 (A) (A) (A) (A) (A) (A) (A) (A) (A) (A) (A) (A)
                 (A) (A) (A) (A) (A) (A) (A) (A) (A) (A) (A) (A)
                 (A) (A) (A) (A) (A) (A) (A) (A) (A) (A) (A) (A)
                 (A) (A) (A) (A) (A) (A) (A) (A) (A) (A) (A) (A)
                 (A) (A) (A) (A) (A) (A) (A) (A) (A) (A) (A) (A)
                 (A) (A) (A) (A) (A) (A) (A) (A) (A) (A) (A) (A)
                 (A) (A) (A) (A) (A) (A) (A) (A) (A) (A) (A) (A)
                 (A) (A) (A) (A) (A) (A) (A) (A) (A) (A) (A) (A)
                 (A) (A) (A) (A) (A) (A) (A) (A) (A) (A) (A) (A)
                 (A) (A) (A) (A) (A) (A) (A) (A) (A) (A) (A) (A)
                 (A) (A) (A) (A) (A) (A) (A) (A) (A) (A) (A) (A)
                 (A) (A) (A) (A) (A) (A) (A) (A) (A) (A) (A) (A)
                 (A) (A) (A) (A) (A) (A) (A) (A) (A) (A) (A) (A)
                 (A) (A) (A) (A) (A) (A) (A) (A) (A) (A) (A) (A)
 The electronic state is 1-A.
 Alpha  occ. eigenvalues --  -88.88473 -88.88330 -19.16945 -19.16839 -19.13102
 Alpha  occ. eigenvalues --  -19.13099 -19.12607 -19.12444 -14.38986 -14.38555
 Alpha  occ. eigenvalues --  -10.31681 -10.31525 -10.31290 -10.31113 -10.24738
 Alpha  occ. eigenvalues --  -10.24630 -10.24180 -10.23388 -10.23190 -10.22802
 Alpha  occ. eigenvalues --  -10.22775 -10.22767 -10.22491 -10.22445 -10.22347
 Alpha  occ. eigenvalues --  -10.22341 -10.22234 -10.21766 -10.21616 -10.21337
 Alpha  occ. eigenvalues --  -10.21277 -10.20949 -10.20791 -10.20671 -10.19289
 Alpha  occ. eigenvalues --  -10.18737  -7.97032  -7.96885  -5.93339  -5.93207
 Alpha  occ. eigenvalues --   -5.92954  -5.92817  -5.92602  -5.92426  -1.09021
 Alpha  occ. eigenvalues --   -1.08610  -1.08494  -1.08376  -1.07253  -1.06743
 Alpha  occ. eigenvalues --   -0.96572  -0.96034  -0.92459  -0.90302  -0.88717
 Alpha  occ. eigenvalues --   -0.86703  -0.84394  -0.80534  -0.78623  -0.77643
 Alpha  occ. eigenvalues --   -0.76183  -0.75310  -0.75077  -0.73172  -0.72512
 Alpha  occ. eigenvalues --   -0.71812  -0.70051  -0.68803  -0.67416  -0.65978
 Alpha  occ. eigenvalues --   -0.65494  -0.65005  -0.61073  -0.59884  -0.58736
 Alpha  occ. eigenvalues --   -0.57576  -0.56715  -0.55916  -0.55141  -0.54629
 Alpha  occ. eigenvalues --   -0.53831  -0.51875  -0.50315  -0.50172  -0.49847
 Alpha  occ. eigenvalues --   -0.49570  -0.49251  -0.48661  -0.48226  -0.47901
 Alpha  occ. eigenvalues --   -0.47843  -0.47524  -0.47007  -0.46707  -0.45850
 Alpha  occ. eigenvalues --   -0.45562  -0.45282  -0.45084  -0.44351  -0.43959
 Alpha  occ. eigenvalues --   -0.42854  -0.42610  -0.42278  -0.42070  -0.41779
 Alpha  occ. eigenvalues --   -0.41502  -0.41318  -0.41221  -0.40667  -0.40030
 Alpha  occ. eigenvalues --   -0.39579  -0.39150  -0.38487  -0.37823  -0.37605
 Alpha  occ. eigenvalues --   -0.36233  -0.35682  -0.34242  -0.33860  -0.33588
 Alpha  occ. eigenvalues --   -0.33415  -0.32294  -0.31624  -0.30698  -0.30062
 Alpha  occ. eigenvalues --   -0.29684  -0.29435  -0.29111  -0.28570  -0.27832
 Alpha  occ. eigenvalues --   -0.26389  -0.25106  -0.24587  -0.19491
 Alpha virt. eigenvalues --   -0.13529  -0.07319  -0.06510  -0.05056  -0.04630
 Alpha virt. eigenvalues --   -0.00853  -0.00585   0.00127   0.00365   0.00537
 Alpha virt. eigenvalues --    0.00772   0.00936   0.01141   0.01236   0.02107
 Alpha virt. eigenvalues --    0.02383   0.02651   0.02738   0.02887   0.03203
 Alpha virt. eigenvalues --    0.03616   0.03801   0.03904   0.04242   0.04605
 Alpha virt. eigenvalues --    0.04765   0.04996   0.05156   0.05560   0.05610
 Alpha virt. eigenvalues --    0.06145   0.06336   0.06491   0.06865   0.06973
 Alpha virt. eigenvalues --    0.07470   0.07591   0.07702   0.08038   0.08358
 Alpha virt. eigenvalues --    0.08550   0.08556   0.08724   0.09188   0.09368
 Alpha virt. eigenvalues --    0.09603   0.09751   0.09833   0.10241   0.10648
 Alpha virt. eigenvalues --    0.10786   0.11077   0.11223   0.11676   0.12032
 Alpha virt. eigenvalues --    0.12290   0.12616   0.12910   0.13217   0.13455
 Alpha virt. eigenvalues --    0.13619   0.13825   0.14133   0.14153   0.14305
 Alpha virt. eigenvalues --    0.14496   0.14648   0.14812   0.14908   0.15196
 Alpha virt. eigenvalues --    0.15406   0.15829   0.15903   0.16074   0.16329
 Alpha virt. eigenvalues --    0.16457   0.16929   0.17145   0.17425   0.17466
 Alpha virt. eigenvalues --    0.17802   0.18055   0.18195   0.18349   0.18660
 Alpha virt. eigenvalues --    0.18963   0.19129   0.19303   0.19466   0.19606
 Alpha virt. eigenvalues --    0.19776   0.20088   0.20163   0.20404   0.20443
 Alpha virt. eigenvalues --    0.20532   0.20824   0.20868   0.21050   0.21478
 Alpha virt. eigenvalues --    0.21575   0.21719   0.21791   0.21855   0.22114
 Alpha virt. eigenvalues --    0.22450   0.22786   0.22844   0.23096   0.23142
 Alpha virt. eigenvalues --    0.23341   0.23408   0.23543   0.23859   0.24331
 Alpha virt. eigenvalues --    0.24462   0.24727   0.24854   0.25095   0.25341
 Alpha virt. eigenvalues --    0.25550   0.25701   0.26012   0.26046   0.26099
 Alpha virt. eigenvalues --    0.26242   0.26682   0.26691   0.26863   0.27108
 Alpha virt. eigenvalues --    0.27363   0.27431   0.27899   0.28067   0.28373
 Alpha virt. eigenvalues --    0.28406   0.28422   0.28602   0.28957   0.29040
 Alpha virt. eigenvalues --    0.29472   0.29677   0.29703   0.30111   0.30207
 Alpha virt. eigenvalues --    0.30422   0.30712   0.30928   0.31019   0.31320
 Alpha virt. eigenvalues --    0.31391   0.31677   0.32108   0.32383   0.32674
 Alpha virt. eigenvalues --    0.32910   0.33172   0.33446   0.33604   0.33874
 Alpha virt. eigenvalues --    0.34291   0.34527   0.34700   0.35354   0.35691
 Alpha virt. eigenvalues --    0.35813   0.36027   0.36349   0.36674   0.37306
 Alpha virt. eigenvalues --    0.37563   0.37944   0.38332   0.38639   0.38933
 Alpha virt. eigenvalues --    0.39457   0.39951   0.40281   0.40596   0.41118
 Alpha virt. eigenvalues --    0.41697   0.42161   0.42427   0.42902   0.43125
 Alpha virt. eigenvalues --    0.43609   0.44367   0.44473   0.44660   0.45020
 Alpha virt. eigenvalues --    0.45404   0.45744   0.46307   0.46524   0.46599
 Alpha virt. eigenvalues --    0.46859   0.47066   0.47626   0.48697   0.48977
 Alpha virt. eigenvalues --    0.49225   0.49533   0.49669   0.50445   0.50786
 Alpha virt. eigenvalues --    0.50908   0.51949   0.52214   0.53229   0.53511
 Alpha virt. eigenvalues --    0.53724   0.54127   0.54770   0.55171   0.55433
 Alpha virt. eigenvalues --    0.55718   0.56376   0.56389   0.56720   0.57261
 Alpha virt. eigenvalues --    0.57527   0.57641   0.58286   0.58653   0.59274
 Alpha virt. eigenvalues --    0.59375   0.60379   0.60604   0.60844   0.61149
 Alpha virt. eigenvalues --    0.61808   0.62031   0.62113   0.62407   0.63015
 Alpha virt. eigenvalues --    0.63550   0.63897   0.64105   0.64442   0.64571
 Alpha virt. eigenvalues --    0.65236   0.65840   0.66024   0.66061   0.66510
 Alpha virt. eigenvalues --    0.66798   0.67282   0.67433   0.68225   0.68380
 Alpha virt. eigenvalues --    0.68663   0.69086   0.69568   0.69682   0.69842
 Alpha virt. eigenvalues --    0.70433   0.71182   0.71485   0.71616   0.72091
 Alpha virt. eigenvalues --    0.72345   0.72688   0.73148   0.73426   0.73669
 Alpha virt. eigenvalues --    0.73814   0.74196   0.74624   0.74814   0.75209
 Alpha virt. eigenvalues --    0.75642   0.76044   0.76157   0.76446   0.77005
 Alpha virt. eigenvalues --    0.77226   0.77652   0.77761   0.77952   0.78721
 Alpha virt. eigenvalues --    0.79224   0.79840   0.80249   0.80738   0.81382
 Alpha virt. eigenvalues --    0.81851   0.82807   0.83345   0.83711   0.84469
 Alpha virt. eigenvalues --    0.85405   0.86785   0.87312   0.87354   0.88124
 Alpha virt. eigenvalues --    0.88426   0.88742   0.89617   0.89832   0.90268
 Alpha virt. eigenvalues --    0.91093   0.91588   0.91949   0.92140   0.92937
 Alpha virt. eigenvalues --    0.93397   0.93559   0.93830   0.94344   0.94837
 Alpha virt. eigenvalues --    0.95182   0.95734   0.96235   0.96854   0.97148
 Alpha virt. eigenvalues --    0.97641   0.98038   0.98514   0.98833   1.00083
 Alpha virt. eigenvalues --    1.00177   1.00745   1.01163   1.01505   1.01972
 Alpha virt. eigenvalues --    1.02065   1.02618   1.03634   1.03964   1.04276
 Alpha virt. eigenvalues --    1.04839   1.04946   1.05301   1.05753   1.06107
 Alpha virt. eigenvalues --    1.06435   1.06557   1.06807   1.07498   1.08039
 Alpha virt. eigenvalues --    1.08519   1.08841   1.09272   1.09863   1.10478
 Alpha virt. eigenvalues --    1.10911   1.11429   1.11960   1.12509   1.13513
 Alpha virt. eigenvalues --    1.13792   1.14837   1.15349   1.16048   1.16750
 Alpha virt. eigenvalues --    1.17529   1.17770   1.18311   1.19321   1.19951
 Alpha virt. eigenvalues --    1.20663   1.21181   1.21365   1.23608   1.24182
 Alpha virt. eigenvalues --    1.25082   1.25257   1.26085   1.26229   1.26527
 Alpha virt. eigenvalues --    1.27338   1.27611   1.28036   1.29492   1.29941
 Alpha virt. eigenvalues --    1.31348   1.31908   1.32700   1.33173   1.33907
 Alpha virt. eigenvalues --    1.35390   1.35945   1.36681   1.37155   1.38619
 Alpha virt. eigenvalues --    1.39737   1.40657   1.40863   1.41161   1.42328
 Alpha virt. eigenvalues --    1.43073   1.43303   1.43655   1.43976   1.44212
 Alpha virt. eigenvalues --    1.44481   1.44867   1.45124   1.45230   1.45793
 Alpha virt. eigenvalues --    1.46059   1.46138   1.47157   1.47668   1.48339
 Alpha virt. eigenvalues --    1.49333   1.49669   1.51063   1.51297   1.51557
 Alpha virt. eigenvalues --    1.52948   1.53397   1.53697   1.54157   1.54719
 Alpha virt. eigenvalues --    1.55121   1.55358   1.55616   1.56025   1.56676
 Alpha virt. eigenvalues --    1.57246   1.58021   1.59357   1.59682   1.60708
 Alpha virt. eigenvalues --    1.61667   1.62402   1.62489   1.63087   1.63524
 Alpha virt. eigenvalues --    1.64464   1.64846   1.65443   1.66322   1.66827
 Alpha virt. eigenvalues --    1.67204   1.67978   1.68472   1.69385   1.69729
 Alpha virt. eigenvalues --    1.69829   1.70101   1.70861   1.70946   1.71332
 Alpha virt. eigenvalues --    1.71672   1.73487   1.73599   1.74523   1.74907
 Alpha virt. eigenvalues --    1.75534   1.76279   1.77180   1.77314   1.77803
 Alpha virt. eigenvalues --    1.78649   1.79268   1.80134   1.80743   1.81595
 Alpha virt. eigenvalues --    1.81717   1.83186   1.83878   1.84877   1.85611
 Alpha virt. eigenvalues --    1.85961   1.86139   1.86627   1.87007   1.87883
 Alpha virt. eigenvalues --    1.88827   1.89572   1.89730   1.90229   1.90621
 Alpha virt. eigenvalues --    1.91534   1.91687   1.91815   1.93921   1.94661
 Alpha virt. eigenvalues --    1.95363   1.95571   1.96109   1.96780   1.98215
 Alpha virt. eigenvalues --    1.98675   1.99018   2.00408   2.01148   2.01915
 Alpha virt. eigenvalues --    2.02162   2.02379   2.02869   2.03880   2.04307
 Alpha virt. eigenvalues --    2.05287   2.05818   2.06485   2.06916   2.07343
 Alpha virt. eigenvalues --    2.07931   2.08572   2.09485   2.09957   2.11167
 Alpha virt. eigenvalues --    2.11690   2.12294   2.12862   2.13948   2.14280
 Alpha virt. eigenvalues --    2.14954   2.15609   2.16224   2.16860   2.17508
 Alpha virt. eigenvalues --    2.19127   2.19597   2.20314   2.21046   2.21149
 Alpha virt. eigenvalues --    2.22036   2.23053   2.25967   2.26155   2.26801
 Alpha virt. eigenvalues --    2.29044   2.31638   2.32240   2.32884   2.34357
 Alpha virt. eigenvalues --    2.35879   2.37416   2.39391   2.39626   2.41418
 Alpha virt. eigenvalues --    2.43345   2.43808   2.44080   2.44336   2.45980
 Alpha virt. eigenvalues --    2.46125   2.46891   2.47193   2.48600   2.49014
 Alpha virt. eigenvalues --    2.49250   2.50267   2.51600   2.52165   2.52686
 Alpha virt. eigenvalues --    2.52918   2.53506   2.53575   2.54909   2.54940
 Alpha virt. eigenvalues --    2.56082   2.57344   2.58164   2.58568   2.59055
 Alpha virt. eigenvalues --    2.60373   2.61667   2.63617   2.63957   2.64690
 Alpha virt. eigenvalues --    2.65834   2.66982   2.67672   2.68073   2.68370
 Alpha virt. eigenvalues --    2.68655   2.69207   2.69299   2.70284   2.70567
 Alpha virt. eigenvalues --    2.70988   2.71915   2.72948   2.73250   2.74659
 Alpha virt. eigenvalues --    2.75524   2.75930   2.77292   2.77654   2.78961
 Alpha virt. eigenvalues --    2.80973   2.82354   2.82878   2.83616   2.83782
 Alpha virt. eigenvalues --    2.84222   2.84398   2.84942   2.85398   2.85710
 Alpha virt. eigenvalues --    2.86293   2.86988   2.87865   2.88490   2.89361
 Alpha virt. eigenvalues --    2.89986   2.91253   2.91518   2.92587   2.93346
 Alpha virt. eigenvalues --    2.93858   2.94808   2.95424   2.96021   2.97487
 Alpha virt. eigenvalues --    2.99509   3.00247   3.01601   3.03564   3.04340
 Alpha virt. eigenvalues --    3.04688   3.05863   3.06228   3.08524   3.09054
 Alpha virt. eigenvalues --    3.10366   3.11023   3.12682   3.13807   3.14309
 Alpha virt. eigenvalues --    3.14951   3.16304   3.17075   3.19043   3.19711
 Alpha virt. eigenvalues --    3.21408   3.23086   3.23635   3.23931   3.24434
 Alpha virt. eigenvalues --    3.26883   3.28575   3.29485   3.30962   3.31997
 Alpha virt. eigenvalues --    3.33098   3.33550   3.33852   3.34098   3.35256
 Alpha virt. eigenvalues --    3.36806   3.37760   3.39251   3.41497   3.41792
 Alpha virt. eigenvalues --    3.42839   3.44042   3.45064   3.46186   3.48366
 Alpha virt. eigenvalues --    3.49084   3.49629   3.53524   3.55443   3.57215
 Alpha virt. eigenvalues --    3.59009   3.59848   3.61432   3.64487   3.65515
 Alpha virt. eigenvalues --    3.66176   3.69286   3.69829   3.72207   3.72852
 Alpha virt. eigenvalues --    3.75988   3.77011   3.77092   3.81796   3.83025
 Alpha virt. eigenvalues --    3.84999   3.85169   3.86151   3.89698   3.92197
 Alpha virt. eigenvalues --    3.92407   3.93106   3.94349   3.96441   4.01002
 Alpha virt. eigenvalues --    4.03096   4.04391   4.08194   4.10683   4.12469
 Alpha virt. eigenvalues --    4.14323   4.18935   4.22820   4.24845   4.26702
 Alpha virt. eigenvalues --    4.34766   4.37521   4.39668   4.50142   4.66448
 Alpha virt. eigenvalues --    4.83880   4.85850   4.87039   4.90145   5.02054
 Alpha virt. eigenvalues --    5.02579   5.03209   5.04673   5.05013   5.08282
 Alpha virt. eigenvalues --    5.10745   5.12335   5.24006   5.25938   5.28048
 Alpha virt. eigenvalues --    5.30733   5.42531   5.43848   5.74635   5.76746
 Alpha virt. eigenvalues --    5.79182   5.80289   5.80959   5.84450   8.02155
 Alpha virt. eigenvalues --    8.05515  17.28939  17.35040  17.49604  17.52348
 Alpha virt. eigenvalues --   17.57893  17.62585  23.48930  23.56386  23.72147
 Alpha virt. eigenvalues --   23.78754  23.81604  23.82076  23.83340  23.86078
 Alpha virt. eigenvalues --   23.86192  23.87697  23.89298  23.90875  23.91902
 Alpha virt. eigenvalues --   23.92800  23.94610  23.95112  23.95978  23.97694
 Alpha virt. eigenvalues --   24.00079  24.01793  24.02576  24.04562  24.11407
 Alpha virt. eigenvalues --   24.13318  24.13700  24.14589  35.55455  35.58389
 Alpha virt. eigenvalues --   49.96144  49.97448  50.01169  50.02952  50.04901
 Alpha virt. eigenvalues --   50.06455 189.19419 189.23728
          Condensed to atoms (all electrons):
 Mulliken charges:
               1
     1  C    0.419662
     2  C   -0.100071
     3  C    0.125338
     4  C    0.272558
     5  C    0.317200
     6  C   -0.445771
     7  C    0.189379
     8  C    0.194427
     9  C    0.374036
    10  C   -0.248112
    11  C    0.352085
    12  C    0.271676
    13  C   -0.528402
    14  C   -0.670863
    15  H    0.168020
    16  H    0.169209
    17  H    0.158848
    18  N   -0.082418
    19  N   -0.100392
    20  O   -0.340000
    21  O   -0.332352
    22  O   -0.344795
    23  O   -0.258072
    24  C   -0.203614
    25  H    0.184357
    26  H    0.185834
    27  H    0.180012
    28  C   -0.213218
    29  H    0.182492
    30  H    0.183869
    31  H    0.180294
    32  C    0.484506
    33  C   -1.011889
    34  S   -0.420451
    35  C   -0.383024
    36  H    0.158032
    37  C    0.547614
    38  O   -0.138000
    39  C    0.952918
    40  C   -0.270896
    41  C   -0.014346
    42  S   -0.215306
    43  H    0.176074
    44  H    0.163197
    45  H    0.164238
    46  C   -0.544967
    47  O   -0.157576
    48  C   -0.323267
    49  H    0.162400
    50  C   -0.253283
    51  H    0.189821
    52  H    0.159535
    53  H    0.173829
    54  H    0.159627
 Sum of Mulliken charges =  -0.00000
 Mulliken charges with hydrogens summed into heavy atoms:
               1
     1  C    0.419662
     2  C   -0.100071
     3  C    0.125338
     4  C    0.272558
     5  C    0.317200
     6  C   -0.286923
     7  C    0.189379
     8  C    0.194427
     9  C    0.374036
    10  C   -0.248112
    11  C    0.352085
    12  C    0.271676
    13  C   -0.359194
    14  C   -0.502844
    18  N   -0.082418
    19  N   -0.100392
    20  O   -0.340000
    21  O   -0.332352
    22  O   -0.344795
    23  O   -0.258072
    24  C    0.346588
    28  C    0.333438
    32  C    0.484506
    33  C   -0.853857
    34  S   -0.420451
    35  C   -0.383024
    37  C    0.547614
    38  O   -0.138000
    39  C    0.952918
    40  C    0.232613
    41  C   -0.014346
    42  S   -0.215306
    46  C   -0.382568
    47  O   -0.157576
    48  C   -0.133447
    50  C    0.239708
 Electronic spatial extent (au):  <R**2>=          22158.7685
 Charge=             -0.0000 electrons
 Dipole moment (field-independent basis, Debye):
    X=             -2.7890    Y=             -0.7950    Z=              0.4470  Tot=              2.9344
 Quadrupole moment (field-independent basis, Debye-Ang):
   XX=           -214.2659   YY=           -228.5184   ZZ=           -203.3693
   XY=             -9.1057   XZ=            -13.6620   YZ=             18.2529
 Traceless Quadrupole moment (field-independent basis, Debye-Ang):
   XX=              1.1186   YY=            -13.1338   ZZ=             12.0152
   XY=             -9.1057   XZ=            -13.6620   YZ=             18.2529
 Octapole moment (field-independent basis, Debye-Ang**2):
  XXX=           -372.1563  YYY=            -39.2867  ZZZ=              3.5982  XYY=            -78.2672
  XXY=              5.5887  XXZ=             68.5637  XZZ=            -68.0810  YZZ=             -6.7083
  YYZ=            -14.2634  XYZ=            -58.9587
 Hexadecapole moment (field-independent basis, Debye-Ang**3):
 XXXX=         -21241.3420 YYYY=          -6626.2563 ZZZZ=          -1878.9407 XXXY=           -169.7609
 XXXZ=           -743.4424 YYYX=           -448.2761 YYYZ=            124.8762 ZZZX=            -62.9582
 ZZZY=            160.1396 XXYY=          -4566.4936 XXZZ=          -3704.4241 YYZZ=          -1212.5953
 XXYZ=            316.6525 YYXZ=            114.5439 ZZXY=            -73.6172
 N-N= 4.095627123455D+03 E-N=-1.373154803202D+04  KE= 2.351793272773D+03
 D1PCM: PCM CHGder 1st derivatives, ID1Alg=3 FixD1E=F DoIter=F DoCFld=F I1PDM=0.
 Calling FoFJK, ICntrl=      2127 FMM=F ISym2X=0 I1Cent= 0 IOpClX= 0 NMat=1 NMatS=1 NMatT=0.
 ***** Axes restored to original set *****
 -------------------------------------------------------------------
 Center     Atomic                   Forces (Hartrees/Bohr)
 Number     Number              X              Y              Z
 -------------------------------------------------------------------
      1        6          -0.001737110   -0.000613722   -0.000093749
      2        6          -0.002143392    0.000592515    0.000128478
      3        6           0.002971106   -0.000963629   -0.000270497
      4        6          -0.001850429    0.001722010    0.000395802
      5        6           0.001737455   -0.000499759   -0.000070787
      6        6           0.004010802    0.003217589    0.000448794
      7        6          -0.001150955   -0.000693103   -0.000216422
      8        6           0.003586519   -0.006234389   -0.001414542
      9        6          -0.014803051   -0.010156731    0.003952972
     10        6           0.004843040    0.006121227    0.000560719
     11        6           0.003327943    0.001185834   -0.000144658
     12        6          -0.001458536   -0.000863966    0.000098567
     13        6           0.001354311    0.001176978    0.000163305
     14        6           0.002286887   -0.002035404   -0.000342355
     15        1           0.000632376    0.001765918    0.000214082
     16        1           0.000176187   -0.002157810   -0.000331504
     17        1           0.001846008    0.002558632    0.001130664
     18        7          -0.002444388   -0.001958367   -0.000950899
     19        7           0.000948802    0.002198345    0.000185282
     20        8          -0.003128291    0.002992103    0.000442180
     21        8           0.003042690    0.000443302   -0.000039062
     22        8           0.002625457   -0.002397456   -0.000334450
     23        8          -0.004906314   -0.006800832    0.001043406
     24        6           0.001668583    0.002646691   -0.000634363
     25        1          -0.001402367    0.000051617   -0.000108186
     26        1          -0.001949481   -0.000449952    0.000951269
     27        1           0.002034139    0.000355349    0.000235110
     28        6           0.000048002   -0.002591728   -0.000717721
     29        1          -0.001513426    0.000647134    0.000711446
     30        1          -0.001225497    0.000591798   -0.000171278
     31        1           0.001725131   -0.001095751   -0.000150671
     32        6           0.009859331    0.022257709   -0.004710231
     33        6          -0.010237445   -0.007102296   -0.002737107
     34       16          -0.002567025   -0.005448853    0.002342608
     35        6           0.003135762    0.005177861   -0.006774099
     36        1          -0.001434323    0.000126755    0.002305947
     37        6          -0.000321976   -0.002948705    0.005118185
     38        8          -0.001048990    0.000364148   -0.001350456
     39        6           0.000875375    0.001831367   -0.002902521
     40        6          -0.000102385   -0.003281224    0.005205944
     41        6           0.000270735   -0.001940928    0.002042593
     42       16           0.000250048    0.000214649   -0.000484572
     43        1          -0.000992469   -0.000218404   -0.000241004
     44        1           0.001304187   -0.000197785   -0.001828353
     45        1           0.001261277    0.001546318    0.000066440
     46        6           0.000195290   -0.000108291    0.000572960
     47        8           0.001346040   -0.002241169    0.003073349
     48        6           0.000072670    0.001294215   -0.001905986
     49        1           0.000187963   -0.000680806    0.000899841
     50        6           0.001162895    0.003999694   -0.006213849
     51        1          -0.000617808   -0.000311509    0.000435271
     52        1          -0.001561896    0.000482669    0.002154582
     53        1           0.000611200   -0.000023559    0.000189827
     54        1          -0.000800654   -0.001546304    0.000069701
 -------------------------------------------------------------------
 Cartesian Forces:  Max     0.022257709 RMS     0.003361883

 GradGradGradGradGradGradGradGradGradGradGradGradGradGradGradGradGradGrad
 Berny optimization.
 FormGI is forming the generalized inverse of G from B-inverse, IUseBI=4.
 Internal  Forces:  Max     0.012456544 RMS     0.001983677
 Search for a local minimum.
 Step number   1 out of a maximum of  307
 All quantities printed in internal units (Hartrees-Bohrs-Radians)
 Mixed Optimization -- RFO/linear search
 Second derivative matrix not updated -- first step.
 ITU=  0
     Eigenvalues ---    0.00803   0.00803   0.01176   0.01203   0.01245
     Eigenvalues ---    0.01292   0.01308   0.01311   0.01360   0.01385
     Eigenvalues ---    0.01419   0.01429   0.01458   0.01496   0.01516
     Eigenvalues ---    0.01568   0.01575   0.01577   0.01615   0.01652
     Eigenvalues ---    0.01693   0.01711   0.01712   0.01719   0.01754
     Eigenvalues ---    0.01783   0.01803   0.01847   0.01964   0.02040
     Eigenvalues ---    0.02049   0.02070   0.02077   0.02083   0.02135
     Eigenvalues ---    0.02149   0.02163   0.02179   0.02197   0.02230
     Eigenvalues ---    0.02239   0.02251   0.07556   0.07572   0.07690
     Eigenvalues ---    0.07700   0.10069   0.10073   0.10629   0.10634
     Eigenvalues ---    0.15983   0.15999   0.15999   0.16000   0.16000
     Eigenvalues ---    0.16000   0.16000   0.16000   0.16000   0.16000
     Eigenvalues ---    0.16000   0.16000   0.16000   0.16000   0.16000
     Eigenvalues ---    0.16000   0.16000   0.16000   0.22530   0.22583
     Eigenvalues ---    0.23518   0.23582   0.24516   0.24747   0.24866
     Eigenvalues ---    0.24931   0.24952   0.24985   0.24987   0.24988
     Eigenvalues ---    0.24992   0.24994   0.24997   0.24997   0.24998
     Eigenvalues ---    0.24998   0.25000   0.25000   0.25000   0.25000
     Eigenvalues ---    0.25000   0.25000   0.25000   0.25000   0.25000
     Eigenvalues ---    0.25000   0.28836   0.28912   0.30039   0.32099
     Eigenvalues ---    0.32582   0.32774   0.33111   0.33787   0.33900
     Eigenvalues ---    0.33959   0.34073   0.34088   0.34354   0.34466
     Eigenvalues ---    0.34577   0.34629   0.34693   0.34861   0.34922
     Eigenvalues ---    0.35198   0.35218   0.35468   0.35553   0.35582
     Eigenvalues ---    0.35799   0.35945   0.36078   0.36083   0.36200
     Eigenvalues ---    0.36396   0.36662   0.39352   0.40168   0.40194
     Eigenvalues ---    0.40651   0.40675   0.41524   0.41700   0.41987
     Eigenvalues ---    0.42300   0.42703   0.43455   0.44002   0.44092
     Eigenvalues ---    0.44594   0.44646   0.45014   0.45406   0.46251
     Eigenvalues ---    0.47305   0.47630   0.49310   0.49637   0.53085
     Eigenvalues ---    0.53225   0.93281   0.93432   0.93989   0.94585
     Eigenvalues --- 1000.000001000.000001000.000001000.000001000.00000
     Eigenvalues --- 1000.000001000.000001000.000001000.000001000.00000
     Eigenvalues --- 1000.000001000.000001000.000001000.000001000.00000
     Eigenvalues --- 1000.000001000.000001000.000001000.000001000.00000
     Eigenvalues --- 1000.000001000.000001000.000001000.000001000.00000
     Eigenvalues --- 1000.000001000.000001000.000001000.000001000.00000
     Eigenvalues --- 1000.000001000.000001000.000001000.000001000.00000
     Eigenvalues --- 1000.000001000.000001000.000001000.000001000.00000
     Eigenvalues --- 1000.000001000.000001000.000001000.000001000.00000
     Eigenvalues --- 1000.000001000.000001000.000001000.000001000.00000
     Eigenvalues --- 1000.000001000.000001000.000001000.000001000.00000
     Eigenvalues --- 1000.000001000.000001000.000001000.000001000.00000
     Eigenvalues --- 1000.000001000.000001000.000001000.000001000.00000
     Eigenvalues --- 1000.000001000.000001000.000001000.000001000.00000
     Eigenvalues --- 1000.000001000.000001000.000001000.000001000.00000
     Eigenvalues --- 1000.000001000.000001000.000001000.000001000.00000
     Eigenvalues --- 1000.000001000.000001000.000001000.000001000.00000
     Eigenvalues --- 1000.000001000.000001000.000001000.000001000.00000
     Eigenvalues --- 1000.000001000.000001000.000001000.000001000.00000
     Eigenvalues --- 1000.000001000.000001000.000001000.000001000.00000
     Eigenvalues --- 1000.000001000.000001000.000001000.000001000.00000
     Eigenvalues --- 1000.000001000.000001000.000001000.000001000.00000
     Eigenvalues --- 1000.000001000.000001000.000001000.000001000.00000
     Eigenvalues --- 1000.000001000.000001000.000001000.000001000.00000
     Eigenvalues --- 1000.000001000.000001000.000001000.000001000.00000
     Eigenvalues --- 1000.000001000.000001000.000001000.000001000.00000
     Eigenvalues --- 1000.000001000.000001000.000001000.000001000.00000
     Eigenvalues --- 1000.000001000.000001000.000001000.000001000.00000
     Eigenvalues --- 1000.000001000.00000
 RFO step:  Lambda=-6.30985067D-03 EMin= 8.02933640D-03
 Linear search not attempted -- first point.
 Iteration  1 RMS(Cart)=  0.18376420 RMS(Int)=  0.00261128
 Iteration  2 RMS(Cart)=  0.00794799 RMS(Int)=  0.00042898
 Iteration  3 RMS(Cart)=  0.00001648 RMS(Int)=  0.00042895
 Iteration  4 RMS(Cart)=  0.00000002 RMS(Int)=  0.00042895
 Iteration  1 RMS(Cart)=  0.00002732 RMS(Int)=  0.00000437
 Iteration  2 RMS(Cart)=  0.00001560 RMS(Int)=  0.00000487
 Iteration  3 RMS(Cart)=  0.00000890 RMS(Int)=  0.00000553
 Iteration  4 RMS(Cart)=  0.00000508 RMS(Int)=  0.00000599
 Iteration  5 RMS(Cart)=  0.00000290 RMS(Int)=  0.00000628
 Iteration  6 RMS(Cart)=  0.00000166 RMS(Int)=  0.00000644
 Iteration  7 RMS(Cart)=  0.00000095 RMS(Int)=  0.00000654
 Variable       Old X    -DE/DX   Delta X   Delta X   Delta X     New X
                                 (Linear)    (Quad)   (Total)
    R1        2.80935  -0.00127   0.00000  -0.00360  -0.00361   2.80574
    R2        2.64584  -0.00292   0.00000  -0.00645  -0.00641   2.63943
    R3        2.31147  -0.00435   0.00000  -0.00460  -0.00460   2.30687
    R4        2.67311  -0.00244   0.00000  -0.00423  -0.00424   2.66887
    R5        2.59267   0.00153   0.00000   0.00379   0.00387   2.59654
    R6        2.66894  -0.00217   0.00000  -0.00462  -0.00467   2.66427
    R7        2.69164  -0.00259   0.00000  -0.00606  -0.00617   2.68547
    R8        2.81049  -0.00077   0.00000  -0.00232  -0.00231   2.80818
    R9        2.62173  -0.00207   0.00000  -0.00402  -0.00396   2.61776
   R10        2.65570  -0.00280   0.00000  -0.00637  -0.00632   2.64938
   R11        2.30889  -0.00302   0.00000  -0.00317  -0.00317   2.30572
   R12        2.70248  -0.00750   0.00000  -0.01816  -0.01812   2.68436
   R13        2.04786  -0.00066   0.00000  -0.00182  -0.00182   2.04604
   R14        2.70495  -0.00535   0.00000  -0.01448  -0.01466   2.69029
   R15        2.68322  -0.00309   0.00000  -0.00767  -0.00782   2.67540
   R16        2.68655  -0.01246   0.00000  -0.03024  -0.03027   2.65628
   R17        2.81233  -0.00172   0.00000  -0.00539  -0.00539   2.80694
   R18        2.76359   0.00309   0.00000   0.00829   0.00829   2.77188
   R19        2.66221  -0.00184   0.00000  -0.00387  -0.00377   2.65844
   R20        2.31391  -0.00702   0.00000  -0.00746  -0.00746   2.30645
   R21        2.79415   0.00135   0.00000   0.00422   0.00422   2.79837
   R22        2.63842  -0.00247   0.00000  -0.00480  -0.00470   2.63372
   R23        2.31456  -0.00357   0.00000  -0.00380  -0.00380   2.31076
   R24        2.62448  -0.00204   0.00000  -0.00437  -0.00435   2.62013
   R25        2.64561  -0.00062   0.00000  -0.00121  -0.00114   2.64447
   R26        2.04921  -0.00165   0.00000  -0.00457  -0.00457   2.04464
   R27        2.04741  -0.00117   0.00000  -0.00322  -0.00322   2.04419
   R28        2.77259   0.00265   0.00000   0.00723   0.00723   2.77982
   R29        2.77252   0.00261   0.00000   0.00711   0.00711   2.77963
   R30        2.06176  -0.00082   0.00000  -0.00233  -0.00233   2.05943
   R31        2.06551  -0.00196   0.00000  -0.00559  -0.00559   2.05993
   R32        2.05322  -0.00156   0.00000  -0.00436  -0.00436   2.04886
   R33        2.06368  -0.00144   0.00000  -0.00408  -0.00408   2.05960
   R34        2.06281  -0.00092   0.00000  -0.00262  -0.00262   2.06019
   R35        2.05355  -0.00159   0.00000  -0.00444  -0.00444   2.04911
   R36        2.61021  -0.00663   0.00000  -0.01403  -0.01361   2.59660
   R37        3.33298  -0.00581   0.00000  -0.02052  -0.02015   3.31283
   R38        2.66261   0.00424   0.00000   0.00962   0.00958   2.67219
   R39        2.03770   0.00190   0.00000   0.00515   0.00515   2.04285
   R40        3.30523   0.00202   0.00000   0.00713   0.00683   3.31206
   R41        2.64131  -0.00296   0.00000  -0.00556  -0.00603   2.63529
   R42        2.56875   0.00147   0.00000   0.00273   0.00273   2.57148
   R43        2.71326   0.00291   0.00000   0.00713   0.00713   2.72039
   R44        2.69306   0.00386   0.00000   0.00913   0.00913   2.70219
   R45        2.63318  -0.00146   0.00000  -0.00309  -0.00309   2.63009
   R46        3.32854   0.00036   0.00000   0.00140   0.00140   3.32994
   R47        2.05902  -0.00101   0.00000  -0.00283  -0.00283   2.05619
   R48        2.07399  -0.00220   0.00000  -0.00636  -0.00636   2.06763
   R49        2.07206  -0.00181   0.00000  -0.00522  -0.00522   2.06684
   R50        2.69111  -0.00016   0.00000  -0.00053  -0.00053   2.69058
   R51        2.56745  -0.00023   0.00000  -0.00043  -0.00043   2.56702
   R52        3.26312  -0.00017   0.00000  -0.00042  -0.00042   3.26269
   R53        2.58613  -0.00193   0.00000  -0.00379  -0.00379   2.58234
   R54        2.04398  -0.00109   0.00000  -0.00299  -0.00299   2.04098
   R55        2.68940   0.00480   0.00000   0.01127   0.01127   2.70067
   R56        2.04168  -0.00070   0.00000  -0.00192  -0.00192   2.03976
   R57        2.07499  -0.00266   0.00000  -0.00769  -0.00769   2.06730
   R58        2.05802  -0.00064   0.00000  -0.00180  -0.00180   2.05623
   R59        2.07181  -0.00166   0.00000  -0.00478  -0.00478   2.06703
    A1        2.03797   0.00139   0.00000   0.00569   0.00567   2.04364
    A2        2.14521  -0.00063   0.00000  -0.00258  -0.00258   2.14263
    A3        2.10001  -0.00076   0.00000  -0.00311  -0.00310   2.09691
    A4        2.10395  -0.00091   0.00000  -0.00423  -0.00427   2.09968
    A5        2.08282   0.00253   0.00000   0.00780   0.00794   2.09076
    A6        2.09624  -0.00162   0.00000  -0.00372  -0.00385   2.09239
    A7        2.10093   0.00068   0.00000   0.00294   0.00303   2.10396
    A8        2.07104   0.00050   0.00000   0.00335   0.00324   2.07429
    A9        2.11118  -0.00119   0.00000  -0.00634  -0.00636   2.10482
   A10        2.10296  -0.00105   0.00000  -0.00375  -0.00380   2.09916
   A11        2.09911  -0.00067   0.00000  -0.00239  -0.00244   2.09667
   A12        2.08110   0.00172   0.00000   0.00614   0.00624   2.08734
   A13        2.03739   0.00122   0.00000   0.00472   0.00471   2.04210
   A14        2.12972   0.00004   0.00000   0.00019   0.00019   2.12991
   A15        2.11607  -0.00126   0.00000  -0.00491  -0.00490   2.11117
   A16        2.15098  -0.00284   0.00000  -0.01166  -0.01185   2.13913
   A17        2.04399   0.00464   0.00000   0.02502   0.02508   2.06906
   A18        2.08722  -0.00181   0.00000  -0.01382  -0.01374   2.07349
   A19        2.11101  -0.00153   0.00000  -0.00597  -0.00603   2.10498
   A20        2.04385   0.00299   0.00000   0.01283   0.01296   2.05681
   A21        2.12832  -0.00146   0.00000  -0.00686  -0.00694   2.12138
   A22        2.08678   0.00105   0.00000   0.00112   0.00086   2.08765
   A23        2.04738   0.00318   0.00000   0.01156   0.01146   2.05884
   A24        2.14662  -0.00424   0.00000  -0.01340  -0.01311   2.13351
   A25        2.04892   0.00441   0.00000   0.01450   0.01417   2.06309
   A26        2.00754  -0.00012   0.00000   0.00096   0.00112   2.00866
   A27        2.22643  -0.00430   0.00000  -0.01540  -0.01524   2.21119
[...]
 Alpha  occ. eigenvalues --   -0.57712  -0.56672  -0.55695  -0.55309  -0.54460
 Alpha  occ. eigenvalues --   -0.53901  -0.51949  -0.50467  -0.50260  -0.49971
 Alpha  occ. eigenvalues --   -0.49520  -0.49320  -0.48695  -0.48104  -0.47801
 Alpha  occ. eigenvalues --   -0.47698  -0.47554  -0.47044  -0.46820  -0.45859
 Alpha  occ. eigenvalues --   -0.45451  -0.45373  -0.45088  -0.44375  -0.44007
 Alpha  occ. eigenvalues --   -0.42962  -0.42733  -0.42367  -0.41991  -0.41788
 Alpha  occ. eigenvalues --   -0.41629  -0.41393  -0.41232  -0.40757  -0.40152
 Alpha  occ. eigenvalues --   -0.39782  -0.39070  -0.38646  -0.37847  -0.37445
 Alpha  occ. eigenvalues --   -0.36087  -0.35743  -0.34147  -0.33701  -0.33656
 Alpha  occ. eigenvalues --   -0.33465  -0.32449  -0.31695  -0.30841  -0.30025
 Alpha  occ. eigenvalues --   -0.29729  -0.29466  -0.29210  -0.28570  -0.27868
 Alpha  occ. eigenvalues --   -0.26468  -0.25008  -0.24623  -0.19392
 Alpha virt. eigenvalues --   -0.13447  -0.07111  -0.06205  -0.05090  -0.04666
 Alpha virt. eigenvalues --   -0.00778  -0.00618   0.00114   0.00416   0.00537
 Alpha virt. eigenvalues --    0.00724   0.00933   0.01108   0.01233   0.02119
 Alpha virt. eigenvalues --    0.02382   0.02666   0.02774   0.02906   0.03215
 Alpha virt. eigenvalues --    0.03638   0.03823   0.03894   0.04213   0.04611
 Alpha virt. eigenvalues --    0.04851   0.05020   0.05156   0.05539   0.05615
 Alpha virt. eigenvalues --    0.06089   0.06348   0.06539   0.06831   0.06927
 Alpha virt. eigenvalues --    0.07495   0.07564   0.07843   0.08059   0.08380
 Alpha virt. eigenvalues --    0.08463   0.08597   0.08786   0.09222   0.09367
 Alpha virt. eigenvalues --    0.09542   0.09720   0.09907   0.10274   0.10620
 Alpha virt. eigenvalues --    0.10860   0.11120   0.11224   0.11547   0.11981
 Alpha virt. eigenvalues --    0.12346   0.12545   0.12984   0.13220   0.13355
 Alpha virt. eigenvalues --    0.13655   0.13768   0.13958   0.14155   0.14252
 Alpha virt. eigenvalues --    0.14531   0.14723   0.14784   0.14914   0.15271
 Alpha virt. eigenvalues --    0.15492   0.15889   0.15997   0.16169   0.16239
 Alpha virt. eigenvalues --    0.16398   0.16924   0.17173   0.17397   0.17491
 Alpha virt. eigenvalues --    0.17950   0.18044   0.18226   0.18510   0.18670
 Alpha virt. eigenvalues --    0.18966   0.19030   0.19249   0.19509   0.19725
 Alpha virt. eigenvalues --    0.19931   0.20167   0.20230   0.20322   0.20587
 Alpha virt. eigenvalues --    0.20649   0.20734   0.20971   0.21290   0.21380
 Alpha virt. eigenvalues --    0.21513   0.21798   0.21885   0.22024   0.22308
 Alpha virt. eigenvalues --    0.22536   0.22591   0.23030   0.23089   0.23323
 Alpha virt. eigenvalues --    0.23422   0.23448   0.23841   0.23938   0.24409
 Alpha virt. eigenvalues --    0.24582   0.24837   0.24993   0.25257   0.25387
 Alpha virt. eigenvalues --    0.25527   0.25667   0.25988   0.26075   0.26285
 Alpha virt. eigenvalues --    0.26398   0.26784   0.26876   0.27004   0.27109
 Alpha virt. eigenvalues --    0.27349   0.27627   0.27893   0.28124   0.28317
 Alpha virt. eigenvalues --    0.28428   0.28519   0.28718   0.28926   0.29202
 Alpha virt. eigenvalues --    0.29598   0.29643   0.30001   0.30062   0.30334
 Alpha virt. eigenvalues --    0.30380   0.30613   0.30980   0.31196   0.31247
 Alpha virt. eigenvalues --    0.31540   0.31673   0.32061   0.32443   0.32664
 Alpha virt. eigenvalues --    0.33222   0.33433   0.33683   0.33831   0.33902
 Alpha virt. eigenvalues --    0.34403   0.34645   0.35083   0.35400   0.35540
 Alpha virt. eigenvalues --    0.35801   0.36271   0.36498   0.37061   0.37412
 Alpha virt. eigenvalues --    0.37772   0.38108   0.38505   0.39025   0.39115
 Alpha virt. eigenvalues --    0.39541   0.40074   0.40271   0.40847   0.40994
 Alpha virt. eigenvalues --    0.41736   0.42020   0.42585   0.42803   0.43499
 Alpha virt. eigenvalues --    0.43775   0.43962   0.44300   0.44851   0.45016
 Alpha virt. eigenvalues --    0.45662   0.45937   0.46131   0.46342   0.46774
 Alpha virt. eigenvalues --    0.47277   0.48403   0.48703   0.48991   0.49172
 Alpha virt. eigenvalues --    0.49426   0.49960   0.50496   0.50720   0.50913
 Alpha virt. eigenvalues --    0.51955   0.52112   0.52623   0.53674   0.54025
 Alpha virt. eigenvalues --    0.54093   0.54701   0.54805   0.55243   0.55650
 Alpha virt. eigenvalues --    0.55922   0.56408   0.56646   0.57063   0.57330
 Alpha virt. eigenvalues --    0.57772   0.57999   0.58507   0.58833   0.59650
 Alpha virt. eigenvalues --    0.59858   0.60600   0.60887   0.61292   0.61613
 Alpha virt. eigenvalues --    0.62168   0.62294   0.62849   0.62872   0.63134
 Alpha virt. eigenvalues --    0.63976   0.64408   0.64697   0.64960   0.65146
 Alpha virt. eigenvalues --    0.65354   0.65981   0.66487   0.66919   0.67286
 Alpha virt. eigenvalues --    0.67532   0.68042   0.68102   0.68406   0.68706
 Alpha virt. eigenvalues --    0.69167   0.69524   0.69791   0.70121   0.70432
 Alpha virt. eigenvalues --    0.70960   0.71056   0.71715   0.72033   0.72325
 Alpha virt. eigenvalues --    0.72788   0.72928   0.73381   0.73669   0.74030
 Alpha virt. eigenvalues --    0.74443   0.74572   0.74717   0.74971   0.75501
 Alpha virt. eigenvalues --    0.75858   0.76155   0.76288   0.76945   0.77046
 Alpha virt. eigenvalues --    0.77413   0.77673   0.78080   0.78663   0.79042
 Alpha virt. eigenvalues --    0.79499   0.80309   0.80467   0.81250   0.81766
 Alpha virt. eigenvalues --    0.82226   0.83108   0.83771   0.84681   0.85557
 Alpha virt. eigenvalues --    0.86667   0.86751   0.87259   0.87787   0.88264
 Alpha virt. eigenvalues --    0.88465   0.89671   0.90032   0.90322   0.90758
 Alpha virt. eigenvalues --    0.91344   0.91808   0.92323   0.92530   0.93282
 Alpha virt. eigenvalues --    0.93631   0.93952   0.94204   0.94752   0.94959
 Alpha virt. eigenvalues --    0.95072   0.95690   0.96136   0.96592   0.97018
 Alpha virt. eigenvalues --    0.97869   0.98334   0.98839   0.99831   1.00144
 Alpha virt. eigenvalues --    1.00749   1.01304   1.01535   1.01846   1.02270
 Alpha virt. eigenvalues --    1.02693   1.02958   1.03725   1.04108   1.04718
 Alpha virt. eigenvalues --    1.04859   1.04940   1.05547   1.05763   1.06639
 Alpha virt. eigenvalues --    1.06994   1.07353   1.07698   1.07951   1.08423
 Alpha virt. eigenvalues --    1.09095   1.09622   1.10159   1.10387   1.11102
 Alpha virt. eigenvalues --    1.11357   1.12602   1.12765   1.13090   1.13934
 Alpha virt. eigenvalues --    1.14976   1.15476   1.16174   1.17176   1.17606
 Alpha virt. eigenvalues --    1.17806   1.18342   1.19184   1.20454   1.20799
 Alpha virt. eigenvalues --    1.21325   1.21659   1.23276   1.24222   1.24353
 Alpha virt. eigenvalues --    1.24995   1.25619   1.26270   1.26422   1.26592
 Alpha virt. eigenvalues --    1.27493   1.28116   1.29071   1.29871   1.31134
 Alpha virt. eigenvalues --    1.32141   1.33515   1.33706   1.34068   1.35368
 Alpha virt. eigenvalues --    1.35597   1.35922   1.36412   1.38078   1.39740
 Alpha virt. eigenvalues --    1.40305   1.41333   1.41695   1.42470   1.43155
 Alpha virt. eigenvalues --    1.43351   1.43675   1.43814   1.44053   1.44296
 Alpha virt. eigenvalues --    1.44996   1.45082   1.45439   1.45839   1.46310
 Alpha virt. eigenvalues --    1.46504   1.46981   1.48117   1.49242   1.50040
 Alpha virt. eigenvalues --    1.50172   1.51009   1.51371   1.51651   1.52893
 Alpha virt. eigenvalues --    1.53025   1.53485   1.53931   1.54777   1.55195
 Alpha virt. eigenvalues --    1.55219   1.55927   1.56536   1.56797   1.56931
 Alpha virt. eigenvalues --    1.58700   1.59483   1.60388   1.60885   1.60977
 Alpha virt. eigenvalues --    1.62436   1.62729   1.63094   1.63625   1.64190
 Alpha virt. eigenvalues --    1.64413   1.65080   1.65963   1.66871   1.67161
 Alpha virt. eigenvalues --    1.67793   1.68767   1.69628   1.69904   1.69961
 Alpha virt. eigenvalues --    1.70321   1.70953   1.71318   1.71600   1.71855
 Alpha virt. eigenvalues --    1.73450   1.73777   1.74484   1.74835   1.75605
 Alpha virt. eigenvalues --    1.76529   1.77066   1.77330   1.78472   1.78717
 Alpha virt. eigenvalues --    1.79533   1.80398   1.81368   1.81924   1.82395
 Alpha virt. eigenvalues --    1.83255   1.84288   1.84718   1.85493   1.85674
 Alpha virt. eigenvalues --    1.86455   1.86592   1.87501   1.88354   1.88679
 Alpha virt. eigenvalues --    1.89444   1.89554   1.90552   1.90726   1.91447
 Alpha virt. eigenvalues --    1.91718   1.92515   1.93652   1.94276   1.95510
 Alpha virt. eigenvalues --    1.95786   1.96064   1.97135   1.98164   1.98525
 Alpha virt. eigenvalues --    1.99212   2.00800   2.01340   2.01400   2.01891
 Alpha virt. eigenvalues --    2.02493   2.02874   2.03485   2.04973   2.05234
 Alpha virt. eigenvalues --    2.05956   2.06710   2.07083   2.07515   2.07861
 Alpha virt. eigenvalues --    2.08715   2.09491   2.11189   2.11698   2.11870
 Alpha virt. eigenvalues --    2.12059   2.12971   2.14071   2.14277   2.14734
 Alpha virt. eigenvalues --    2.15617   2.16087   2.16940   2.17720   2.18553
 Alpha virt. eigenvalues --    2.18810   2.19905   2.20678   2.21184   2.21991
 Alpha virt. eigenvalues --    2.22507   2.25488   2.25617   2.26550   2.28562
 Alpha virt. eigenvalues --    2.31370   2.32654   2.33003   2.34375   2.37001
 Alpha virt. eigenvalues --    2.37602   2.39657   2.40471   2.41385   2.43625
 Alpha virt. eigenvalues --    2.43841   2.44524   2.45093   2.45590   2.46237
 Alpha virt. eigenvalues --    2.47226   2.47857   2.49273   2.49387   2.49767
 Alpha virt. eigenvalues --    2.50319   2.51735   2.52408   2.52433   2.52988
 Alpha virt. eigenvalues --    2.53445   2.53947   2.54818   2.55182   2.57070
 Alpha virt. eigenvalues --    2.57248   2.58146   2.58277   2.59024   2.60781
 Alpha virt. eigenvalues --    2.62376   2.63735   2.64135   2.64772   2.65840
 Alpha virt. eigenvalues --    2.66781   2.67816   2.67920   2.68197   2.68598
 Alpha virt. eigenvalues --    2.69506   2.69735   2.70615   2.70930   2.71677
 Alpha virt. eigenvalues --    2.72218   2.72749   2.72916   2.74677   2.75796
 Alpha virt. eigenvalues --    2.76216   2.77156   2.78102   2.79199   2.81053
 Alpha virt. eigenvalues --    2.82259   2.83063   2.83451   2.83786   2.83900
 Alpha virt. eigenvalues --    2.84612   2.85043   2.85691   2.85795   2.86630
 Alpha virt. eigenvalues --    2.87418   2.88321   2.88788   2.89559   2.89822
 Alpha virt. eigenvalues --    2.91745   2.92015   2.92577   2.93470   2.94260
 Alpha virt. eigenvalues --    2.94767   2.95608   2.96279   2.98761   2.99652
 Alpha virt. eigenvalues --    3.00488   3.01959   3.03415   3.04076   3.05264
 Alpha virt. eigenvalues --    3.06218   3.06815   3.08248   3.08616   3.08841
 Alpha virt. eigenvalues --    3.10481   3.12768   3.13372   3.13989   3.14729
 Alpha virt. eigenvalues --    3.16239   3.16866   3.19210   3.21154   3.21517
 Alpha virt. eigenvalues --    3.23257   3.23606   3.24244   3.25019   3.27148
 Alpha virt. eigenvalues --    3.29684   3.29929   3.30840   3.31942   3.33360
 Alpha virt. eigenvalues --    3.33826   3.34080   3.34504   3.36212   3.37347
 Alpha virt. eigenvalues --    3.37853   3.39913   3.41076   3.42169   3.43493
 Alpha virt. eigenvalues --    3.44107   3.45396   3.45831   3.48543   3.49117
 Alpha virt. eigenvalues --    3.50409   3.53823   3.55665   3.57607   3.59477
 Alpha virt. eigenvalues --    3.60473   3.61326   3.64973   3.65480   3.66574
 Alpha virt. eigenvalues --    3.68919   3.70938   3.73208   3.74437   3.76299
 Alpha virt. eigenvalues --    3.77898   3.78026   3.82144   3.83161   3.84649
 Alpha virt. eigenvalues --    3.85029   3.85270   3.89632   3.91718   3.92797
 Alpha virt. eigenvalues --    3.93309   3.94935   3.95894   4.01034   4.02732
 Alpha virt. eigenvalues --    4.03872   4.07958   4.10475   4.12066   4.14322
 Alpha virt. eigenvalues --    4.19240   4.22750   4.24860   4.26571   4.34882
 Alpha virt. eigenvalues --    4.37811   4.39660   4.49949   4.66689   4.84463
 Alpha virt. eigenvalues --    4.86690   4.87508   4.89759   5.02077   5.02559
 Alpha virt. eigenvalues --    5.03231   5.04817   5.05114   5.08147   5.10978
 Alpha virt. eigenvalues --    5.12190   5.23825   5.25433   5.27632   5.29703
 Alpha virt. eigenvalues --    5.41281   5.42819   5.74963   5.76329   5.79134
 Alpha virt. eigenvalues --    5.80042   5.81219   5.83859   8.02157   8.05355
 Alpha virt. eigenvalues --   17.29099  17.35042  17.49606  17.52392  17.57915
 Alpha virt. eigenvalues --   17.62182  23.48584  23.56446  23.72305  23.79229
 Alpha virt. eigenvalues --   23.81659  23.82269  23.83467  23.86129  23.86770
 Alpha virt. eigenvalues --   23.87392  23.88794  23.91421  23.92355  23.93706
 Alpha virt. eigenvalues --   23.94909  23.96022  23.96739  24.00275  24.01665
 Alpha virt. eigenvalues --   24.03587  24.04056  24.05688  24.11819  24.14238
 Alpha virt. eigenvalues --   24.15188  24.15725  35.55578  35.58218  49.96354
 Alpha virt. eigenvalues --   49.97577  50.01206  50.02880  50.05001  50.06252
 Alpha virt. eigenvalues --  189.19401 189.23556
          Condensed to atoms (all electrons):
 Mulliken charges:
               1
     1  C    0.452558
     2  C   -0.038480
     3  C    0.170929
     4  C    0.214575
     5  C    0.310438
     6  C   -0.442878
     7  C    0.178889
     8  C    0.046894
     9  C    0.337679
    10  C   -0.348708
    11  C    0.319652
    12  C    0.145310
    13  C   -0.473676
    14  C   -0.648315
    15  H    0.167859
    16  H    0.167964
    17  H    0.161061
    18  N   -0.047444
    19  N   -0.108839
    20  O   -0.338744
    21  O   -0.333726
    22  O   -0.343384
    23  O   -0.233880
    24  C   -0.203088
    25  H    0.192136
    26  H    0.182601
    27  H    0.181311
    28  C   -0.215483
    29  H    0.184623
    30  H    0.183830
    31  H    0.181034
    32  C    0.347591
    33  C   -0.440736
    34  S   -0.399271
    35  C   -0.180464
    36  H    0.153084
    37  C    0.340953
    38  O   -0.161972
    39  C    0.780480
    40  C   -0.235814
    41  C    0.026126
    42  S   -0.251819
    43  H    0.175955
    44  H    0.164010
    45  H    0.164624
    46  C   -0.562494
    47  O   -0.171774
    48  C   -0.344573
    49  H    0.160655
    50  C   -0.248597
    51  H    0.188004
    52  H    0.159947
    53  H    0.173214
    54  H    0.160169
 Sum of Mulliken charges =  -0.00000
 Mulliken charges with hydrogens summed into heavy atoms:
               1
     1  C    0.452558
     2  C   -0.038480
     3  C    0.170929
     4  C    0.214575
     5  C    0.310438
     6  C   -0.281817
     7  C    0.178889
     8  C    0.046894
     9  C    0.337679
    10  C   -0.348708
    11  C    0.319652
    12  C    0.145310
    13  C   -0.305713
    14  C   -0.480456
    18  N   -0.047444
    19  N   -0.108839
    20  O   -0.338744
    21  O   -0.333726
    22  O   -0.343384
    23  O   -0.233880
    24  C    0.352961
    28  C    0.334004
    32  C    0.347591
    33  C   -0.287652
    34  S   -0.399271
    35  C   -0.180464
    37  C    0.340953
    38  O   -0.161972
    39  C    0.780480
    40  C    0.268776
    41  C    0.026126
    42  S   -0.251819
    46  C   -0.401839
    47  O   -0.171774
    48  C   -0.156569
    50  C    0.244733
 Electronic spatial extent (au):  <R**2>=          22127.0506
 Charge=             -0.0000 electrons
 Dipole moment (field-independent basis, Debye):
    X=             -1.5770    Y=             -0.2455    Z=              0.5137  Tot=              1.6766
 Quadrupole moment (field-independent basis, Debye-Ang):
   XX=           -216.6155   YY=           -230.4254   ZZ=           -199.9302
   XY=             -8.1008   XZ=            -14.9624   YZ=             16.0649
 Traceless Quadrupole moment (field-independent basis, Debye-Ang):
   XX=             -0.9584   YY=            -14.7684   ZZ=             15.7268
   XY=             -8.1008   XZ=            -14.9624   YZ=             16.0649
 Octapole moment (field-independent basis, Debye-Ang**2):
  XXX=           -333.7847  YYY=            -23.2118  ZZZ=              3.2188  XYY=            -56.9715
  XXY=              2.3982  XXZ=             70.4772  XZZ=            -81.2894  YZZ=            -10.7009
  YYZ=            -13.4121  XYZ=            -54.0918
 Hexadecapole moment (field-independent basis, Debye-Ang**3):
 XXXX=         -21171.8336 YYYY=          -6459.2926 ZZZZ=          -2010.9513 XXXY=            -49.2225
 XXXZ=           -783.3030 YYYX=           -509.1199 YYYZ=             45.0405 ZZZX=            -86.0073
 ZZZY=            177.5882 XXYY=          -4610.2531 XXZZ=          -3642.9705 YYZZ=          -1251.9144
 XXYZ=            286.7285 YYXZ=             94.4328 ZZXY=            -51.0606
 N-N= 4.095122106867D+03 E-N=-1.373064913944D+04  KE= 2.351986973832D+03
 Unable to Open any file for archive entry.
 1\1\GINC-CX3-6-4\FOpt\RB3LYP\6-311+G(d,p)\C26H18N2O6S2\NS5018\28-Oct-2
 021\0\\# opt=modredundant b3lyp/6-311+g(d,p) scrf=(pcm, solvent=water)
 \\NDI_115.pdb\\0,1\C,-2.5118493849,-2.9443670593,-0.5266044049\C,-2.22
 50978576,-1.5096011292,-0.2749229802\C,-3.2846689643,-0.600337756,-0.0
 680306697\C,-4.6270709851,-1.0376983296,-0.1075409686\C,-4.9405914728,
 -2.4673741433,-0.3652297442\C,-0.9238840912,-1.060485267,-0.268601115\
 C,-2.9846187744,0.7645542352,0.1868232078\C,-1.6335665498,1.2050099502
 ,0.230628862\C,-0.5991412699,0.3011651012,-0.0457702941\C,-1.365853032
 8,2.6088649279,0.6541435696\C,-3.8004092131,3.0999219167,0.6476892369\
 C,-4.0601755611,1.6636733798,0.3878429836\C,-5.3689215421,1.2151798669
 ,0.3381851348\C,-5.6561138485,-0.1353537481,0.093309477\H,-6.681049875
 6,-0.4801885732,0.0594601592\H,-6.1716538189,1.9244662893,0.4908460046
 \H,-0.123769293,-1.7625938663,-0.4628799434\N,-2.4626520083,3.48029110
 9,0.7413306765\N,-3.8536631638,-3.3309583235,-0.5551481827\O,-1.629936
 0413,-3.7698897392,-0.7040996314\O,-6.0884876492,-2.8793148821,-0.4092
 612813\O,-4.7034647297,3.9113963928,0.7867409354\O,-0.2566130342,3.023
 9756952,0.9408726647\C,-2.1578780325,4.8815873941,1.0707932996\H,-1.88
 2594824,4.9729546028,2.1228890201\H,-1.3263201095,5.2195515505,0.45661
 33523\H,-3.0437630401,5.4750484727,0.8713276933\C,-4.1178135233,-4.756
 3847862,-0.807166636\H,-3.7083492264,-5.0403234661,-1.7763180969\H,-3.
 6456621992,-5.3594585595,-0.0320829643\H,-5.1916270068,-4.9073013122,-
 0.7964381314\C,0.8315366342,0.6492574304,-0.1473141033\C,1.8464121361,
 0.2341191389,0.6737910352\S,1.4310551492,1.6193130092,-1.464922085\C,3
 .1177753332,0.7214738306,0.2649466361\H,1.6801109597,-0.3757293896,1.5
 501079948\C,3.090212854,1.4931507787,-0.8896832104\O,4.3033678618,0.49
 19076506,0.8911884785\C,4.1999765222,2.096364148,-1.5855821191\C,4.298
 1081342,-0.3370344786,2.0588825715\C,4.1677109151,2.8694585592,-2.7392
 227124\S,5.8686502408,1.934270353,-1.042560299\H,5.3341475973,-0.39598
 73838,2.3856434853\H,3.6896824907,0.1076620963,2.851030044\H,3.9301765
 295,-1.3396435368,1.8247292368\C,5.446313816,3.3224586662,-3.176090867
 \O,2.9754612935,3.1245663882,-3.3426475995\C,6.4517104016,2.8937862446
 ,-2.3568857352\H,5.6121625299,3.933958028,-4.0509735008\C,2.9771305648
 ,3.9442930668,-4.5168924808\H,7.5095129383,3.0880999572,-2.4471860042\
 H,3.5593977578,3.4792875149,-5.3169058083\H,1.9365250963,4.025412128,-
 4.8238922933\H,3.3731223668,4.9395458563,-4.2979618974\\Version=ES64L-
 G16RevC.01\State=1-A\HF=-2359.3585409\RMSD=2.439e-09\RMSF=3.315e-04\Di
 pole=0.5697527,0.1287002,-0.3064678\Quadrupole=-7.5204699,-5.4515826,1
 2.9720526,5.1510803,-2.760605,-16.4358187\PG=C01 [X(C26H18N2O6S2)]\\@
 The archive entry for this job was punched.


 A BIRD IN THE HAND IS SAFER THAN ONE OVERHEAD.

                       -- NEWTON'S SEVENTH LAW
 Job cpu time:       3 days  2 hours  1 minutes 59.7 seconds.
 Elapsed time:       0 days  4 hours 40 minutes 58.8 seconds.
 File lengths (MBytes):  RWF=    986 Int=      0 D2E=      0 Chk=     71 Scr=      1
 Normal termination of Gaussian 16 at Thu Oct 28 02:54:16 2021.
