 Entering Gaussian System, Link 0=g16
 Input=NDI_160.gjf
 Output=NDI_160.log
 Initial command:
 /apps/gaussian/g16-c01-avx/g16/l1.exe "/tmp/pbs.4768611[335].pbs/Gau-2628936.inp" -scrdir="/tmp/pbs.4768611[335].pbs/"
 Entering Link 1 = /apps/gaussian/g16-c01-avx/g16/l1.exe PID=   2628937.
  
 Copyright (c) 1988-2019, Gaussian, Inc.  All Rights Reserved.
  
 This is part of the Gaussian(R) 16 program.  It is based on
 the Gaussian(R) 09 system (copyright 2009, Gaussian, Inc.),
 the Gaussian(R) 03 system (copyright 2003, Gaussian, Inc.),
 the Gaussian(R) 98 system (copyright 1998, Gaussian, Inc.),
 the Gaussian(R) 94 system (copyright 1995, Gaussian, Inc.),
 the Gaussian 92(TM) system (copyright 1992, Gaussian, Inc.),
 the Gaussian 90(TM) system (copyright 1990, Gaussian, Inc.),
 the Gaussian 88(TM) system (copyright 1988, Gaussian, Inc.),
 the Gaussian 86(TM) system (copyright 1986, Carnegie Mellon
 University), and the Gaussian 82(TM) system (copyright 1983,
 Carnegie Mellon University). Gaussian is a federally registered
 trademark of Gaussian, Inc.
  
 This software contains proprietary and confidential information,
 including trade secrets, belonging to Gaussian, Inc.
  
 This software is provided under written license and may be
 used, copied, transmitted, or stored only in accord with that
 written license.
  
 The following legend is applicable only to US Government
 contracts under FAR:
  
                    RESTRICTED RIGHTS LEGEND
  
 Use, reproduction and disclosure by the US Government is
 subject to restrictions as set forth in subparagraphs (a)
 and (c) of the Commercial Computer Software - Restricted
 Rights clause in FAR 52.227-19.
  
 Gaussian, Inc.
 340 Quinnipiac St., Bldg. 40, Wallingford CT 06492
  
  
 ---------------------------------------------------------------
 Warning -- This program may not be used in any manner that
 competes with the business of Gaussian, Inc. or will provide
 assistance to any competitor of Gaussian, Inc.  The licensee
 of this program is prohibited from giving any competitor of
 Gaussian, Inc. access to this program.  By using this program,
 the user acknowledges that Gaussian, Inc. is engaged in the
 business of creating and licensing software in the field of
 computational chemistry and represents and warrants to the
 licensee that it is not a competitor of Gaussian, Inc. and that
 it will not use this program in any manner prohibited above.
 ---------------------------------------------------------------
  

 Cite this work as:
 Gaussian 16, Revision C.01,
 M. J. Frisch, G. W. Trucks, H. B. Schlegel, G. E. Scuseria, 
 M. A. Robb, J. R. Cheeseman, G. Scalmani, V. Barone, 
 G. A. Petersson, H. Nakatsuji, X. Li, M. Caricato, A. V. Marenich, 
 J. Bloino, B. G. Janesko, R. Gomperts, B. Mennucci, H. P. Hratchian, 
 J. V. Ortiz, A. F. Izmaylov, J. L. Sonnenberg, D. Williams-Young, 
 F. Ding, F. Lipparini, F. Egidi, J. Goings, B. Peng, A. Petrone, 
 T. Henderson, D. Ranasinghe, V. G. Zakrzewski, J. Gao, N. Rega, 
 G. Zheng, W. Liang, M. Hada, M. Ehara, K. Toyota, R. Fukuda, 
 J. Hasegawa, M. Ishida, T. Nakajima, Y. Honda, O. Kitao, H. Nakai, 
 T. Vreven, K. Throssell, J. A. Montgomery, Jr., J. E. Peralta, 
 F. Ogliaro, M. J. Bearpark, J. J. Heyd, E. N. Brothers, K. N. Kudin, 
 V. N. Staroverov, T. A. Keith, R. Kobayashi, J. Normand, 
 K. Raghavachari, A. P. Rendell, J. C. Burant, S. S. Iyengar, 
 J. Tomasi, M. Cossi, J. M. Millam, M. Klene, C. Adamo, R. Cammi, 
 J. W. Ochterski, R. L. Martin, K. Morokuma, O. Farkas, 
 J. B. Foresman, and D. J. Fox, Gaussian, Inc., Wallingford CT, 2019.
 
 ******************************************
 Gaussian 16:  ES64L-G16RevC.01  3-Jul-2019
                27-Oct-2021 
 ******************************************
 %mem=100GB
 %nprocshared=16
 Will use up to   16 processors via shared memory.
 ---------------------------------------------------------------
 # opt=modredundant b3lyp/6-311+g(d,p) scrf=(pcm, solvent=water)
 ---------------------------------------------------------------
 1/18=120,19=15,26=3,38=1/1,3;
 2/9=110,12=2,17=6,18=5,40=1/2;
 3/5=4,6=6,7=111,11=2,25=1,30=1,70=2201,71=1,72=1,74=-5/1,2,3;
 4//1;
 5/5=2,38=5,53=1/2;
 6/7=2,8=2,9=2,10=2,28=1/1;
 7//1,2,3,16;
 1/18=20,19=15,26=3/3(2);
 2/9=110/2;
 99//99;
 2/9=110/2;
 3/5=4,6=6,7=111,11=2,25=1,30=1,70=2205,71=1,72=1,74=-5/1,2,3;
 4/5=5,16=3,69=1/1;
 5/5=2,38=5,53=1/2;
 7//1,2,3,16;
 1/18=20,19=15,26=3/3(-5);
 2/9=110/2;
 6/7=2,8=2,9=2,10=2,19=2,28=1/1;
 99/9=1/99;
 -----------
 NDI_160.pdb
 -----------
 Symbolic Z-matrix:
 Charge =  0 Multiplicity = 1
 C                    -2.563    -2.994    -0.409 
 C                    -2.257    -1.551    -0.224 
 C                    -3.301    -0.607    -0.083 
 C                    -4.65     -1.024    -0.115 
 C                    -4.992    -2.459    -0.304 
 C                    -0.949    -1.137    -0.215 
 C                    -2.962     0.764     0.102 
 C                    -1.595     1.188     0.123 
 C                    -0.561     0.232    -0.072 
 C                    -1.328     2.616     0.446 
 C                    -3.777     3.115     0.508 
 C                    -4.035     1.679     0.268 
 C                    -5.356     1.252     0.23 
 C                    -5.672    -0.098     0.036 
 H                    -6.699    -0.442     0.008 
 H                    -6.133     1.997     0.361 
 H                    -0.19     -1.895    -0.369 
 N                    -2.432     3.476     0.608 
 N                    -3.916    -3.353    -0.438 
 O                    -1.695    -3.847    -0.532 
 O                    -6.149    -2.85     -0.34 
 O                    -4.676     3.938     0.629 
 O                    -0.212     3.097     0.596 
 C                    -2.111     4.875     0.912 
 H                    -1.54      4.931     1.84 
 H                    -1.5       5.299     0.111 
 H                    -3.05      5.414     1.003 
 C                    -4.206    -4.779    -0.625 
 H                    -3.759    -5.126    -1.559 
 H                    -3.775    -5.355     0.196 
 H                    -5.286    -4.897    -0.649 
 C                     0.876     0.482    -0.178 
 C                     1.956    -0.362    -0.005 
 S                     1.435     2.137    -0.422 
 C                     3.2       0.295    -0.071 
 H                     1.848    -1.423     0.156 
 C                     3.116     1.671    -0.305 
 O                     4.426    -0.278     0.068 
 C                     4.197     2.601    -0.465 
 C                     4.481    -1.699     0.162 
 C                     4.111     3.977    -0.675 
 S                     5.892     2.123    -0.419 
 H                     5.539    -1.957     0.184 
 H                     4.001    -2.054     1.082 
 H                     4.003    -2.172    -0.704 
 C                     5.372     4.628    -0.796 
 O                     2.887     4.562    -0.748 
 C                     6.414     3.749    -0.678 
 H                     5.5       5.689    -0.96 
 C                     2.832     5.973    -0.928 
 H                     7.471     3.971    -0.727 
 H                     3.295     6.272    -1.877 
 H                     1.774     6.233    -0.944 
 H                     3.324     6.499    -0.101 
 
 The following ModRedundant input section has been read:
 D       8       9      32      33 F                                           
 

 GradGradGradGradGradGradGradGradGradGradGradGradGradGradGradGradGradGrad
 Berny optimization.
 Initialization pass.
                           ----------------------------
                           !    Initial Parameters    !
                           ! (Angstroms and Degrees)  !
 --------------------------                            --------------------------
 ! Name  Definition              Value          Derivative Info.                !
 --------------------------------------------------------------------------------
 ! R1    R(1,2)                  1.4866         estimate D2E/DX2                !
 ! R2    R(1,19)                 1.4001         estimate D2E/DX2                !
 ! R3    R(1,20)                 1.2232         estimate D2E/DX2                !
 ! R4    R(2,3)                  1.4146         estimate D2E/DX2                !
 ! R5    R(2,6)                  1.372          estimate D2E/DX2                !
 ! R6    R(3,4)                  1.4123         estimate D2E/DX2                !
 ! R7    R(3,7)                  1.4244         estimate D2E/DX2                !
 ! R8    R(4,5)                  1.4872         estimate D2E/DX2                !
 ! R9    R(4,14)                 1.3874         estimate D2E/DX2                !
 ! R10   R(5,19)                 1.4053         estimate D2E/DX2                !
 ! R11   R(5,21)                 1.2218         estimate D2E/DX2                !
 ! R12   R(6,9)                  1.4301         estimate D2E/DX2                !
 ! R13   R(6,17)                 1.0837         estimate D2E/DX2                !
 ! R14   R(7,8)                  1.4314         estimate D2E/DX2                !
 ! R15   R(7,12)                 1.4199         estimate D2E/DX2                !
 ! R16   R(8,9)                  1.4217         estimate D2E/DX2                !
 ! R17   R(8,10)                 1.4882         estimate D2E/DX2                !
 ! R18   R(9,32)                 1.4624         estimate D2E/DX2                !
 ! R19   R(10,18)                1.4088         estimate D2E/DX2                !
 ! R20   R(10,23)                1.2245         estimate D2E/DX2                !
 ! R21   R(11,12)                1.4786         estimate D2E/DX2                !
 ! R22   R(11,18)                1.3962         estimate D2E/DX2                !
 ! R23   R(11,22)                1.2248         estimate D2E/DX2                !
 ! R24   R(12,13)                1.3888         estimate D2E/DX2                !
 ! R25   R(13,14)                1.4            estimate D2E/DX2                !
 ! R26   R(13,16)                1.0844         estimate D2E/DX2                !
 ! R27   R(14,15)                1.0834         estimate D2E/DX2                !
 ! R28   R(18,24)                1.4672         estimate D2E/DX2                !
 ! R29   R(19,28)                1.4672         estimate D2E/DX2                !
 ! R30   R(24,25)                1.091          estimate D2E/DX2                !
 ! R31   R(24,26)                1.093          estimate D2E/DX2                !
 ! R32   R(24,27)                1.0865         estimate D2E/DX2                !
 ! R33   R(28,29)                1.0921         estimate D2E/DX2                !
 ! R34   R(28,30)                1.0916         estimate D2E/DX2                !
 ! R35   R(28,31)                1.0867         estimate D2E/DX2                !
 ! R36   R(32,33)                1.3815         estimate D2E/DX2                !
 ! R37   R(32,34)                1.7638         estimate D2E/DX2                !
 ! R38   R(33,35)                1.4084         estimate D2E/DX2                !
 ! R39   R(33,36)                1.0786         estimate D2E/DX2                !
 ! R40   R(34,37)                1.7483         estimate D2E/DX2                !
 ! R41   R(35,37)                1.3983         estimate D2E/DX2                !
 ! R42   R(35,38)                1.3604         estimate D2E/DX2                !
 ! R43   R(37,39)                1.4349         estimate D2E/DX2                !
 ! R44   R(38,40)                1.4252         estimate D2E/DX2                !
 ! R45   R(39,41)                1.3946         estimate D2E/DX2                !
 ! R46   R(39,42)                1.7617         estimate D2E/DX2                !
 ! R47   R(40,43)                1.0892         estimate D2E/DX2                !
 ! R48   R(40,44)                1.0967         estimate D2E/DX2                !
 ! R49   R(40,45)                1.0964         estimate D2E/DX2                !
 ! R50   R(41,46)                1.4243         estimate D2E/DX2                !
 ! R51   R(41,47)                1.3586         estimate D2E/DX2                !
 ! R52   R(42,48)                1.7273         estimate D2E/DX2                !
 ! R53   R(46,48)                1.3683         estimate D2E/DX2                !
 ! R54   R(46,49)                1.0812         estimate D2E/DX2                !
 ! R55   R(47,50)                1.4235         estimate D2E/DX2                !
 ! R56   R(48,51)                1.0812         estimate D2E/DX2                !
 ! R57   R(50,52)                1.0974         estimate D2E/DX2                !
 ! R58   R(50,53)                1.0896         estimate D2E/DX2                !
 ! R59   R(50,54)                1.0967         estimate D2E/DX2                !
 ! A1    A(2,1,19)             116.767          estimate D2E/DX2                !
 ! A2    A(2,1,20)             122.9113         estimate D2E/DX2                !
 ! A3    A(19,1,20)            120.3217         estimate D2E/DX2                !
 ! A4    A(1,2,3)              120.5473         estimate D2E/DX2                !
 ! A5    A(1,2,6)              119.3369         estimate D2E/DX2                !
 ! A6    A(3,2,6)              120.1056         estimate D2E/DX2                !
 ! A7    A(2,3,4)              120.3743         estimate D2E/DX2                !
 ! A8    A(2,3,7)              118.662          estimate D2E/DX2                !
 ! A9    A(4,3,7)              120.9617         estimate D2E/DX2                !
 ! A10   A(3,4,5)              120.4909         estimate D2E/DX2                !
 ! A11   A(3,4,14)             120.2702         estimate D2E/DX2                !
 ! A12   A(5,4,14)             119.2382         estimate D2E/DX2                !
 ! A13   A(4,5,19)             116.7341         estimate D2E/DX2                !
 ! A14   A(4,5,21)             122.024          estimate D2E/DX2                !
 ! A15   A(19,5,21)            121.2418         estimate D2E/DX2                !
 ! A16   A(2,6,9)              123.2421         estimate D2E/DX2                !
 ! A17   A(2,6,17)             117.1119         estimate D2E/DX2                !
 ! A18   A(9,6,17)             119.589          estimate D2E/DX2                !
 ! A19   A(3,7,8)              120.9519         estimate D2E/DX2                !
 ! A20   A(3,7,12)             117.1037         estimate D2E/DX2                !
 ! A21   A(8,7,12)             121.944          estimate D2E/DX2                !
 ! A22   A(7,8,9)              119.5639         estimate D2E/DX2                !
 ! A23   A(7,8,10)             117.3064         estimate D2E/DX2                !
 ! A24   A(9,8,10)             122.9922         estimate D2E/DX2                !
 ! A25   A(6,9,8)              117.3944         estimate D2E/DX2                !
 ! A26   A(6,9,32)             115.0236         estimate D2E/DX2                !
 ! A27   A(8,9,32)             127.5648         estimate D2E/DX2                !
 ! A28   A(8,10,18)            118.042          estimate D2E/DX2                !
 ! A29   A(8,10,23)            124.5436         estimate D2E/DX2                !
 ! A30   A(18,10,23)           117.4097         estimate D2E/DX2                !
 ! A31   A(12,11,18)           115.5202         estimate D2E/DX2                !
 ! A32   A(12,11,22)           122.7205         estimate D2E/DX2                !
 ! A33   A(18,11,22)           121.7534         estimate D2E/DX2                !
 ! A34   A(7,12,11)            120.8614         estimate D2E/DX2                !
 ! A35   A(7,12,13)            121.162          estimate D2E/DX2                !
 ! A36   A(11,12,13)           117.9699         estimate D2E/DX2                !
 ! A37   A(12,13,14)           120.9948         estimate D2E/DX2                !
 ! A38   A(12,13,16)           117.8401         estimate D2E/DX2                !
 ! A39   A(14,13,16)           121.1642         estimate D2E/DX2                !
 ! A40   A(4,14,13)            119.5003         estimate D2E/DX2                !
 ! A41   A(4,14,15)            118.9169         estimate D2E/DX2                !
 ! A42   A(13,14,15)           121.5811         estimate D2E/DX2                !
 ! A43   A(10,18,11)           126.0753         estimate D2E/DX2                !
 ! A44   A(10,18,24)           115.7508         estimate D2E/DX2                !
 ! A45   A(11,18,24)           118.1737         estimate D2E/DX2                !
 ! A46   A(1,19,5)             125.0856         estimate D2E/DX2                !
 ! A47   A(1,19,28)            116.2868         estimate D2E/DX2                !
 ! A48   A(5,19,28)            118.6276         estimate D2E/DX2                !
 ! A49   A(18,24,25)           109.8574         estimate D2E/DX2                !
 ! A50   A(18,24,26)           109.8979         estimate D2E/DX2                !
 ! A51   A(18,24,27)           107.5355         estimate D2E/DX2                !
 ! A52   A(25,24,26)           108.1108         estimate D2E/DX2                !
 ! A53   A(25,24,27)           110.8301         estimate D2E/DX2                !
 ! A54   A(26,24,27)           110.6124         estimate D2E/DX2                !
 ! A55   A(19,28,29)           109.6906         estimate D2E/DX2                !
 ! A56   A(19,28,30)           109.8136         estimate D2E/DX2                !
 ! A57   A(19,28,31)           107.7461         estimate D2E/DX2                !
 ! A58   A(29,28,30)           108.2991         estimate D2E/DX2                !
 ! A59   A(29,28,31)           110.6959         estimate D2E/DX2                !
 ! A60   A(30,28,31)           110.5924         estimate D2E/DX2                !
 ! A61   A(9,32,33)            130.8915         estimate D2E/DX2                !
 ! A62   A(9,32,34)            118.8059         estimate D2E/DX2                !
 ! A63   A(33,32,34)           110.0471         estimate D2E/DX2                !
 ! A64   A(32,33,35)           113.5556         estimate D2E/DX2                !
 ! A65   A(32,33,36)           122.7773         estimate D2E/DX2                !
 ! A66   A(35,33,36)           123.665          estimate D2E/DX2                !
 ! A67   A(32,34,37)            92.6003         estimate D2E/DX2                !
 ! A68   A(33,35,37)           114.4463         estimate D2E/DX2                !
 ! A69   A(33,35,38)           126.494          estimate D2E/DX2                !
 ! A70   A(37,35,38)           119.0597         estimate D2E/DX2                !
 ! A71   A(34,37,35)           109.345          estimate D2E/DX2                !
 ! A72   A(34,37,39)           122.9648         estimate D2E/DX2                !
 ! A73   A(35,37,39)           127.6753         estimate D2E/DX2                !
 ! A74   A(35,38,40)           117.4828         estimate D2E/DX2                !
 ! A75   A(37,39,41)           127.5755         estimate D2E/DX2                !
 ! A76   A(37,39,42)           123.0966         estimate D2E/DX2                !
 ! A77   A(41,39,42)           109.3279         estimate D2E/DX2                !
 ! A78   A(38,40,43)           105.9615         estimate D2E/DX2                !
 ! A79   A(38,40,44)           111.1727         estimate D2E/DX2                !
 ! A80   A(38,40,45)           111.175          estimate D2E/DX2                !
 ! A81   A(43,40,44)           109.36           estimate D2E/DX2                !
 ! A82   A(43,40,45)           109.7082         estimate D2E/DX2                !
 ! A83   A(44,40,45)           109.3971         estimate D2E/DX2                !
 ! A84   A(39,41,46)           114.1532         estimate D2E/DX2                !
 ! A85   A(39,41,47)           119.2426         estimate D2E/DX2                !
 ! A86   A(46,41,47)           126.604          estimate D2E/DX2                !
 ! A87   A(39,42,48)            91.8013         estimate D2E/DX2                !
 ! A88   A(41,46,48)           111.9173         estimate D2E/DX2                !
 ! A89   A(41,46,49)           124.4881         estimate D2E/DX2                !
 ! A90   A(48,46,49)           123.5946         estimate D2E/DX2                !
 ! A91   A(41,47,50)           117.9319         estimate D2E/DX2                !
 ! A92   A(42,48,46)           112.8003         estimate D2E/DX2                !
 ! A93   A(42,48,51)           119.7057         estimate D2E/DX2                !
 ! A94   A(46,48,51)           127.4937         estimate D2E/DX2                !
 ! A95   A(47,50,52)           111.291          estimate D2E/DX2                !
 ! A96   A(47,50,53)           106.0156         estimate D2E/DX2                !
 ! A97   A(47,50,54)           111.2683         estimate D2E/DX2                !
 ! A98   A(52,50,53)           109.387          estimate D2E/DX2                !
 ! A99   A(52,50,54)           109.3995         estimate D2E/DX2                !
 ! A100  A(53,50,54)           109.4052         estimate D2E/DX2                !
 ! D1    D(19,1,2,3)             0.1578         estimate D2E/DX2                !
 ! D2    D(19,1,2,6)          -178.6792         estimate D2E/DX2                !
 ! D3    D(20,1,2,3)          -179.8231         estimate D2E/DX2                !
 ! D4    D(20,1,2,6)             1.3399         estimate D2E/DX2                !
 ! D5    D(2,1,19,5)            -0.124          estimate D2E/DX2                !
 ! D6    D(2,1,19,28)          179.8267         estimate D2E/DX2                !
 ! D7    D(20,1,19,5)          179.8575         estimate D2E/DX2                !
 ! D8    D(20,1,19,28)          -0.1919         estimate D2E/DX2                !
 ! D9    D(1,2,3,4)              0.0571         estimate D2E/DX2                !
 ! D10   D(1,2,3,7)            179.5453         estimate D2E/DX2                !
 ! D11   D(6,2,3,4)            178.8851         estimate D2E/DX2                !
 ! D12   D(6,2,3,7)             -1.6266         estimate D2E/DX2                !
 ! D13   D(1,2,6,9)            178.625          estimate D2E/DX2                !
 ! D14   D(1,2,6,17)             1.3881         estimate D2E/DX2                !
 ! D15   D(3,2,6,9)             -0.2173         estimate D2E/DX2                !
 ! D16   D(3,2,6,17)          -177.4541         estimate D2E/DX2                !
 ! D17   D(2,3,4,5)             -0.3074         estimate D2E/DX2                !
 ! D18   D(2,3,4,14)           179.3968         estimate D2E/DX2                !
 ! D19   D(7,3,4,5)           -179.7837         estimate D2E/DX2                !
 ! D20   D(7,3,4,14)            -0.0795         estimate D2E/DX2                !
 ! D21   D(2,3,7,8)              1.0523         estimate D2E/DX2                !
 ! D22   D(2,3,7,12)          -178.712          estimate D2E/DX2                !
 ! D23   D(4,3,7,8)           -179.4626         estimate D2E/DX2                !
 ! D24   D(4,3,7,12)             0.7731         estimate D2E/DX2                !
 ! D25   D(3,4,5,19)             0.3343         estimate D2E/DX2                !
 ! D26   D(3,4,5,21)          -179.7799         estimate D2E/DX2                !
 ! D27   D(14,4,5,19)         -179.3729         estimate D2E/DX2                !
 ! D28   D(14,4,5,21)            0.5129         estimate D2E/DX2                !
 ! D29   D(3,4,14,13)           -0.4559         estimate D2E/DX2                !
 ! D30   D(3,4,14,15)         -179.9937         estimate D2E/DX2                !
 ! D31   D(5,4,14,13)          179.252          estimate D2E/DX2                !
 ! D32   D(5,4,14,15)           -0.2858         estimate D2E/DX2                !
 ! D33   D(4,5,19,1)            -0.1141         estimate D2E/DX2                !
 ! D34   D(4,5,19,28)          179.9364         estimate D2E/DX2                !
 ! D35   D(21,5,19,1)          179.9992         estimate D2E/DX2                !
 ! D36   D(21,5,19,28)           0.0496         estimate D2E/DX2                !
 ! D37   D(2,6,9,8)              2.5984         estimate D2E/DX2                !
 ! D38   D(2,6,9,32)          -176.0103         estimate D2E/DX2                !
 ! D39   D(17,6,9,8)           179.77           estimate D2E/DX2                !
 ! D40   D(17,6,9,32)            1.1613         estimate D2E/DX2                !
 ! D41   D(3,7,8,9)              1.3551         estimate D2E/DX2                !
 ! D42   D(3,7,8,10)          -174.5099         estimate D2E/DX2                !
 ! D43   D(12,7,8,9)          -178.8921         estimate D2E/DX2                !
 ! D44   D(12,7,8,10)            5.2428         estimate D2E/DX2                !
 ! D45   D(3,7,12,11)          178.0768         estimate D2E/DX2                !
 ! D46   D(3,7,12,13)           -0.9621         estimate D2E/DX2                !
 ! D47   D(8,7,12,11)           -1.685          estimate D2E/DX2                !
 ! D48   D(8,7,12,13)          179.2761         estimate D2E/DX2                !
 ! D49   D(7,8,9,6)             -3.0809         estimate D2E/DX2                !
 ! D50   D(7,8,9,32)           175.3285         estimate D2E/DX2                !
 ! D51   D(10,8,9,6)           172.5381         estimate D2E/DX2                !
 ! D52   D(10,8,9,32)           -9.0525         estimate D2E/DX2                !
 ! D53   D(7,8,10,18)           -4.7549         estimate D2E/DX2                !
 ! D54   D(7,8,10,23)          174.4235         estimate D2E/DX2                !
 ! D55   D(9,8,10,18)          179.5335         estimate D2E/DX2                !
 ! D56   D(9,8,10,23)           -1.2882         estimate D2E/DX2                !
 ! D57   D(6,9,32,33)          -21.5515         estimate D2E/DX2                !
 ! D58   D(6,9,32,34)          164.8922         estimate D2E/DX2                !
 ! D59   D(8,9,32,33)          160.0069         Frozen                          !
 ! D60   D(8,9,32,34)          -13.5493         estimate D2E/DX2                !
 ! D61   D(8,10,18,11)           0.7189         estimate D2E/DX2                !
 ! D62   D(8,10,18,24)        -179.4089         estimate D2E/DX2                !
 ! D63   D(23,10,18,11)       -178.5188         estimate D2E/DX2                !
 ! D64   D(23,10,18,24)          1.3535         estimate D2E/DX2                !
 ! D65   D(18,11,12,7)          -2.3856         estimate D2E/DX2                !
 ! D66   D(18,11,12,13)        176.6833         estimate D2E/DX2                !
 ! D67   D(22,11,12,7)         178.4862         estimate D2E/DX2                !
 ! D68   D(22,11,12,13)         -2.445          estimate D2E/DX2                !
 ! D69   D(12,11,18,10)          2.8444         estimate D2E/DX2                !
 ! D70   D(12,11,18,24)       -177.0251         estimate D2E/DX2                !
 ! D71   D(22,11,18,10)       -178.0181         estimate D2E/DX2                !
 ! D72   D(22,11,18,24)          2.1124         estimate D2E/DX2                !
 ! D73   D(7,12,13,14)           0.461          estimate D2E/DX2                !
 ! D74   D(7,12,13,16)        -179.8781         estimate D2E/DX2                !
 ! D75   D(11,12,13,14)       -178.6049         estimate D2E/DX2                !
 ! D76   D(11,12,13,16)          1.056          estimate D2E/DX2                !
 ! D77   D(12,13,14,4)           0.2708         estimate D2E/DX2                !
 ! D78   D(12,13,14,15)        179.7958         estimate D2E/DX2                !
 ! D79   D(16,13,14,4)        -179.3788         estimate D2E/DX2                !
 ! D80   D(16,13,14,15)          0.1463         estimate D2E/DX2                !
 ! D81   D(10,18,24,25)        -59.609          estimate D2E/DX2                !
 ! D82   D(10,18,24,26)         59.2209         estimate D2E/DX2                !
 ! D83   D(10,18,24,27)        179.6858         estimate D2E/DX2                !
 ! D84   D(11,18,24,25)        120.2739         estimate D2E/DX2                !
 ! D85   D(11,18,24,26)       -120.8962         estimate D2E/DX2                !
 ! D86   D(11,18,24,27)         -0.4313         estimate D2E/DX2                !
 ! D87   D(1,19,28,29)         -58.1407         estimate D2E/DX2                !
 ! D88   D(1,19,28,30)          60.7668         estimate D2E/DX2                !
 ! D89   D(1,19,28,31)        -178.7139         estimate D2E/DX2                !
 ! D90   D(5,19,28,29)         121.8132         estimate D2E/DX2                !
 ! D91   D(5,19,28,30)        -119.2792         estimate D2E/DX2                !
 ! D92   D(5,19,28,31)           1.2401         estimate D2E/DX2                !
 ! D93   D(9,32,33,35)        -174.2321         estimate D2E/DX2                !
 ! D94   D(9,32,33,36)           6.2791         estimate D2E/DX2                !
 ! D95   D(34,32,33,35)         -0.241          estimate D2E/DX2                !
 ! D96   D(34,32,33,36)       -179.7298         estimate D2E/DX2                !
 ! D97   D(9,32,34,37)         175.3725         estimate D2E/DX2                !
 ! D98   D(33,32,34,37)          0.554          estimate D2E/DX2                !
 ! D99   D(32,33,35,37)         -0.319          estimate D2E/DX2                !
 ! D100  D(32,33,35,38)        179.7252         estimate D2E/DX2                !
 ! D101  D(36,33,35,37)        179.1646         estimate D2E/DX2                !
 ! D102  D(36,33,35,38)         -0.7911         estimate D2E/DX2                !
 ! D103  D(32,34,37,35)         -0.717          estimate D2E/DX2                !
 ! D104  D(32,34,37,39)        177.9768         estimate D2E/DX2                !
 ! D105  D(33,35,37,34)          0.7222         estimate D2E/DX2                !
 ! D106  D(33,35,37,39)       -177.8932         estimate D2E/DX2                !
 ! D107  D(38,35,37,34)       -179.3185         estimate D2E/DX2                !
 ! D108  D(38,35,37,39)          2.0661         estimate D2E/DX2                !
 ! D109  D(33,35,38,40)          6.5136         estimate D2E/DX2                !
 ! D110  D(37,35,38,40)       -173.4403         estimate D2E/DX2                !
 ! D111  D(34,37,39,41)          2.7836         estimate D2E/DX2                !
 ! D112  D(34,37,39,42)       -177.1956         estimate D2E/DX2                !
 ! D113  D(35,37,39,41)       -178.7736         estimate D2E/DX2                !
 ! D114  D(35,37,39,42)          1.2472         estimate D2E/DX2                !
 ! D115  D(35,38,40,43)        175.4748         estimate D2E/DX2                !
 ! D116  D(35,38,40,44)        -65.8047         estimate D2E/DX2                !
 ! D117  D(35,38,40,45)         56.3348         estimate D2E/DX2                !
 ! D118  D(37,39,41,46)       -179.9564         estimate D2E/DX2                !
 ! D119  D(37,39,41,47)         -0.1219         estimate D2E/DX2                !
 ! D120  D(42,39,41,46)          0.0252         estimate D2E/DX2                !
 ! D121  D(42,39,41,47)        179.8596         estimate D2E/DX2                !
 ! D122  D(37,39,42,48)        179.9579         estimate D2E/DX2                !
 ! D123  D(41,39,42,48)         -0.0247         estimate D2E/DX2                !
 ! D124  D(39,41,46,48)         -0.0118         estimate D2E/DX2                !
 ! D125  D(39,41,46,49)       -179.9265         estimate D2E/DX2                !
 ! D126  D(47,41,46,48)       -179.8319         estimate D2E/DX2                !
 ! D127  D(47,41,46,49)          0.2535         estimate D2E/DX2                !
 ! D128  D(39,41,47,50)        178.388          estimate D2E/DX2                !
 ! D129  D(46,41,47,50)         -1.8002         estimate D2E/DX2                !
 ! D130  D(39,42,48,46)          0.0189         estimate D2E/DX2                !
 ! D131  D(39,42,48,51)        179.8533         estimate D2E/DX2                !
 ! D132  D(41,46,48,42)         -0.0079         estimate D2E/DX2                !
 ! D133  D(41,46,48,51)       -179.8265         estimate D2E/DX2                !
 ! D134  D(49,46,48,42)        179.9077         estimate D2E/DX2                !
 ! D135  D(49,46,48,51)          0.0891         estimate D2E/DX2                !
 ! D136  D(41,47,50,52)         62.0052         estimate D2E/DX2                !
 ! D137  D(41,47,50,53)       -179.1454         estimate D2E/DX2                !
 ! D138  D(41,47,50,54)        -60.2864         estimate D2E/DX2                !
 --------------------------------------------------------------------------------
 Trust Radius=3.00D-01 FncErr=1.00D-07 GrdErr=1.00D-06 EigMax=2.50D+02 EigMin=1.00D-04
 Number of steps in this run=    307 maximum allowed number of steps=    324.
 GradGradGradGradGradGradGradGradGradGradGradGradGradGradGradGradGradGrad

 Stoichiometry    C26H18N2O6S2
 Framework group  C1[X(C26H18N2O6S2)]
 Deg. of freedom   156
 Full point group                 C1      NOp   1
 Largest Abelian subgroup         C1      NOp   1
 Largest concise Abelian subgroup C1      NOp   1
                         Standard orientation:                         
 ---------------------------------------------------------------------
 Center     Atomic      Atomic             Coordinates (Angstroms)
 Number     Number       Type             X           Y           Z
 ---------------------------------------------------------------------
      1          6           0       -3.873159   -2.543150   -0.182290
      2          6           0       -2.971009   -1.367221   -0.066419
      3          6           0       -3.498516   -0.054759   -0.054847
      4          6           0       -4.891671    0.155855   -0.152188
      5          6           0       -5.822493   -0.997576   -0.274970
      6          6           0       -1.615205   -1.564638    0.005431
      7          6           0       -2.598357    1.042275    0.067697
      8          6           0       -1.185597    0.829164    0.154870
      9          6           0       -0.670515   -0.494296    0.089589
     10          6           0       -0.329705    2.020364    0.406450
     11          6           0       -2.311352    3.538717    0.271820
     12          6           0       -3.165478    2.343492    0.103993
     13          6           0       -4.537684    2.532447    0.003187
     14          6           0       -5.407668    1.443460   -0.128060
     15          1           0       -6.479813    1.579708   -0.204152
     16          1           0       -4.912531    3.549494    0.035133
     17          1           0       -1.261450   -2.587460   -0.049832
     18          7           0       -0.948675    3.285436    0.440060
     19          7           0       -5.244536   -2.278554   -0.280493
     20          8           0       -3.464309   -3.695921   -0.193453
     21          8           0       -7.031720   -0.847558   -0.364917
     22          8           0       -2.761140    4.677919    0.280746
     23          8           0        0.878388    1.978557    0.601593
     24          6           0       -0.056396    4.425526    0.678161
     25          1           0        0.449518    4.306178    1.637415
     26          1           0        0.705375    4.471489   -0.104330
     27          1           0       -0.665796    5.325035    0.672033
     28          6           0       -6.124789   -3.446380   -0.398323
     29          1           0       -5.844339   -4.031407   -1.276768
     30          1           0       -6.018487   -4.080365    0.483913
     31          1           0       -7.145407   -3.084161   -0.487960
     32          6           0        0.732966   -0.904633    0.065764
     33          6           0        1.326111   -2.116414    0.363137
     34         16           0        1.969829    0.314701   -0.241541
     35          6           0        2.733697   -2.074559    0.340981
     36          1           0        0.757797   -3.006687    0.581629
     37          6           0        3.270426   -0.824603    0.017377
     38          8           0        3.578071   -3.109876    0.597646
     39          6           0        4.654728   -0.475117   -0.126251
     40          6           0        3.000269   -4.399457    0.782654
     41          6           0        5.188852    0.777751   -0.426091
     42         16           0        5.965021   -1.637311    0.063652
     43          1           0        3.836090   -5.089280    0.892014
     44          1           0        2.382393   -4.430462    1.688244
     45          1           0        2.392639   -4.689065   -0.082842
     46          6           0        6.610922    0.802150   -0.501496
     47          8           0        4.349316    1.828569   -0.617638
     48          6           0        7.156437   -0.429143   -0.259302
     49          1           0        7.197293    1.683464   -0.721623
     50          6           0        4.925629    3.101870   -0.887668
     51          1           0        8.204540   -0.694348   -0.250330
     52          1           0        5.504629    3.087613   -1.819830
     53          1           0        4.090484    3.793996   -0.991176
     54          1           0        5.570418    3.429570   -0.063332
 ---------------------------------------------------------------------
 Rotational constants (GHZ):           0.1746620           0.0584641           0.0444215
 Standard basis: 6-311+G(d,p) (5D, 7F)
 There are   952 symmetry adapted cartesian basis functions of A   symmetry.
 There are   916 symmetry adapted basis functions of A   symmetry.
   916 basis functions,  1468 primitive gaussians,   952 cartesian basis functions
   134 alpha electrons      134 beta electrons
       nuclear repulsion energy      4126.8413272294 Hartrees.
 NAtoms=   54 NActive=   54 NUniq=   54 SFac= 1.00D+00 NAtFMM=   60 NAOKFM=F Big=F
 Integral buffers will be    131072 words long.
 Raffenetti 2 integral format.
 Two-electron integral symmetry is turned on.
 ------------------------------------------------------------------------------
 Polarizable Continuum Model (PCM)
 =================================
 Model                : PCM.
 Atomic radii         : UFF (Universal Force Field).
 Polarization charges : Total charges.
 Charge compensation  : None.
 Solution method      : On-the-fly selection.
 Cavity type          : Scaled VdW (van der Waals Surface) (Alpha=1.100).
 Cavity algorithm     : GePol (No added spheres)
                        Default sphere list used, NSphG=   54.
                        Lebedev-Laikov grids with approx.  5.0 points / Ang**2.
                        Smoothing algorithm: York/Karplus (Gamma=1.0000).
                        Polarization charges: spherical gaussians, with
                                              point-specific exponents (IZeta= 3).
                        Self-potential: point-specific (ISelfS= 7).
                        Self-field    : sphere-specific E.n sum rule (ISelfD= 2).
 1st derivatives      : Analytical E(r).r(x)/FMM algorithm (CHGder, D1EAlg=3).
                        Cavity 1st derivative terms included.
 Solvent              : Water, Eps=  78.355300 Eps(inf)=   1.777849
 ------------------------------------------------------------------------------
 One-electron integrals computed using PRISM.
 NBasis=   916 RedAO= T EigKep=  1.08D-06  NBF=   916
 NBsUse=   901 1.00D-06 EigRej=  7.34D-07 NBFU=   901
 ExpMin= 4.05D-02 ExpMax= 9.34D+04 ExpMxC= 3.17D+03 IAcc=3 IRadAn=         5 AccDes= 0.00D+00
 Harris functional with IExCor=  402 and IRadAn=       5 diagonalized for initial guess.
 HarFok:  IExCor=  402 AccDes= 0.00D+00 IRadAn=         5 IDoV= 1 UseB2=F ITyADJ=14
 ICtDFT=  3500011 ScaDFX=  1.000000  1.000000  1.000000  1.000000
 FoFCou: FMM=F IPFlag=           0 FMFlag=      100000 FMFlg1=           0
         NFxFlg=           0 DoJE=T BraDBF=F KetDBF=T FulRan=T
         wScrn=  0.000000 ICntrl=       500 IOpCl=  0 I1Cent=   200000004 NGrid=           0
         NMat0=    1 NMatS0=      1 NMatT0=    0 NMatD0=    1 NMtDS0=    0 NMtDT0=    0
 Petite list used in FoFCou.
 Requested convergence on RMS density matrix=1.00D-08 within 128 cycles.
 Requested convergence on MAX density matrix=1.00D-06.
 Requested convergence on             energy=1.00D-06.
 No special actions if energy rises.
 Inv3:  Mode=1 IEnd=    52091667.
 Iteration    1 A*A^-1 deviation from unit magnitude is 4.33D-15 for   4141.
 Iteration    1 A*A^-1 deviation from orthogonality  is 3.19D-15 for   4141   3701.
 Iteration    1 A^-1*A deviation from unit magnitude is 4.00D-15 for   4130.
 Iteration    1 A^-1*A deviation from orthogonality  is 2.44D-15 for   2841   1240.
 Error on total polarization charges =  0.02326
 SCF Done:  E(RB3LYP) =  -2359.32381656     A.U. after   17 cycles
            NFock= 17  Conv=0.39D-08     -V/T= 2.0031

 **********************************************************************

            Population analysis using the SCF Density.

 **********************************************************************

 Orbital symmetries:
       Occupied  (A) (A) (A) (A) (A) (A) (A) (A) (A) (A) (A) (A)
                 (A) (A) (A) (A) (A) (A) (A) (A) (A) (A) (A) (A)
                 (A) (A) (A) (A) (A) (A) (A) (A) (A) (A) (A) (A)
                 (A) (A) (A) (A) (A) (A) (A) (A) (A) (A) (A) (A)
                 (A) (A) (A) (A) (A) (A) (A) (A) (A) (A) (A) (A)
                 (A) (A) (A) (A) (A) (A) (A) (A) (A) (A) (A) (A)
                 (A) (A) (A) (A) (A) (A) (A) (A) (A) (A) (A) (A)
                 (A) (A) (A) (A) (A) (A) (A) (A) (A) (A) (A) (A)
                 (A) (A) (A) (A) (A) (A) (A) (A) (A) (A) (A) (A)
                 (A) (A) (A) (A) (A) (A) (A) (A) (A) (A) (A) (A)
                 (A) (A) (A) (A) (A) (A) (A) (A) (A) (A) (A) (A)
                 (A) (A)
       Virtual   (A) (A) (A) (A) (A) (A) (A) (A) (A) (A) (A) (A)
                 (A) (A) (A) (A) (A) (A) (A) (A) (A) (A) (A) (A)
                 (A) (A) (A) (A) (A) (A) (A) (A) (A) (A) (A) (A)
                 (A) (A) (A) (A) (A) (A) (A) (A) (A) (A) (A) (A)
                 (A) (A) (A) (A) (A) (A) (A) (A) (A) (A) (A) (A)
                 (A) (A) (A) (A) (A) (A) (A) (A) (A) (A) (A) (A)
                 (A) (A) (A) (A) (A) (A) (A) (A) (A) (A) (A) (A)
                 (A) (A) (A) (A) (A) (A) (A) (A) (A) (A) (A) (A)
                 (A) (A) (A) (A) (A) (A) (A) (A) (A) (A) (A) (A)
                 (A) (A) (A) (A) (A) (A) (A) (A) (A) (A) (A) (A)
                 (A) (A) (A) (A) (A) (A) (A) (A) (A) (A) (A) (A)
                 (A) (A) (A) (A) (A) (A) (A) (A) (A) (A) (A) (A)
                 (A) (A) (A) (A) (A) (A) (A) (A) (A) (A) (A) (A)
                 (A) (A) (A) (A) (A) (A) (A) (A) (A) (A) (A) (A)
                 (A) (A) (A) (A) (A) (A) (A) (A) (A) (A) (A) (A)
                 (A) (A) (A) (A) (A) (A) (A) (A) (A) (A) (A) (A)
                 (A) (A) (A) (A) (A) (A) (A) (A) (A) (A) (A) (A)
                 (A) (A) (A) (A) (A) (A) (A) (A) (A) (A) (A) (A)
                 (A) (A) (A) (A) (A) (A) (A) (A) (A) (A) (A) (A)
                 (A) (A) (A) (A) (A) (A) (A) (A) (A) (A) (A) (A)
                 (A) (A) (A) (A) (A) (A) (A) (A) (A) (A) (A) (A)
                 (A) (A) (A) (A) (A) (A) (A) (A) (A) (A) (A) (A)
                 (A) (A) (A) (A) (A) (A) (A) (A) (A) (A) (A) (A)
                 (A) (A) (A) (A) (A) (A) (A) (A) (A) (A) (A) (A)
                 (A) (A) (A) (A) (A) (A) (A) (A) (A) (A) (A) (A)
                 (A) (A) (A) (A) (A) (A) (A) (A) (A) (A) (A) (A)
                 (A) (A) (A) (A) (A) (A) (A) (A) (A) (A) (A) (A)
                 (A) (A) (A) (A) (A) (A) (A) (A) (A) (A) (A) (A)
                 (A) (A) (A) (A) (A) (A) (A) (A) (A) (A) (A) (A)
                 (A) (A) (A) (A) (A) (A) (A) (A) (A) (A) (A) (A)
                 (A) (A) (A) (A) (A) (A) (A) (A) (A) (A) (A) (A)
                 (A) (A) (A) (A) (A) (A) (A) (A) (A) (A) (A) (A)
                 (A) (A) (A) (A) (A) (A) (A) (A) (A) (A) (A) (A)
                 (A) (A) (A) (A) (A) (A) (A) (A) (A) (A) (A) (A)
                 (A) (A) (A) (A) (A) (A) (A) (A) (A) (A) (A) (A)
                 (A) (A) (A) (A) (A) (A) (A) (A) (A) (A) (A) (A)
                 (A) (A) (A) (A) (A) (A) (A) (A) (A) (A) (A) (A)
                 (A) (A) (A) (A) (A) (A) (A) (A) (A) (A) (A) (A)
                 (A) (A) (A) (A) (A) (A) (A) (A) (A) (A) (A) (A)
                 (A) (A) (A) (A) (A) (A) (A) (A) (A) (A) (A) (A)
                 (A) (A) (A) (A) (A) (A) (A) (A) (A) (A) (A) (A)
                 (A) (A) (A) (A) (A) (A) (A) (A) (A) (A) (A) (A)
                 (A) (A) (A) (A) (A) (A) (A) (A) (A) (A) (A) (A)
                 (A) (A) (A) (A) (A) (A) (A) (A) (A) (A) (A) (A)
                 (A) (A) (A) (A) (A) (A) (A) (A) (A) (A) (A) (A)
                 (A) (A) (A) (A) (A) (A) (A) (A) (A) (A) (A) (A)
                 (A) (A) (A) (A) (A) (A) (A) (A) (A) (A) (A) (A)
                 (A) (A) (A) (A) (A) (A) (A) (A) (A) (A) (A) (A)
                 (A) (A) (A) (A) (A) (A) (A) (A) (A) (A) (A) (A)
                 (A) (A) (A) (A) (A) (A) (A) (A) (A) (A) (A) (A)
                 (A) (A) (A) (A) (A) (A) (A) (A) (A) (A) (A) (A)
                 (A) (A) (A) (A) (A) (A) (A) (A) (A) (A) (A) (A)
                 (A) (A) (A) (A) (A) (A) (A) (A) (A) (A) (A) (A)
                 (A) (A) (A) (A) (A) (A) (A) (A) (A) (A) (A) (A)
                 (A) (A) (A) (A) (A) (A) (A) (A) (A) (A) (A) (A)
                 (A) (A) (A) (A) (A) (A) (A) (A) (A) (A) (A) (A)
                 (A) (A) (A) (A) (A) (A) (A) (A) (A) (A) (A) (A)
                 (A) (A) (A) (A) (A) (A) (A) (A) (A) (A) (A) (A)
                 (A) (A) (A) (A) (A) (A) (A) (A) (A) (A) (A) (A)
                 (A) (A) (A) (A) (A) (A) (A) (A) (A) (A) (A) (A)
                 (A) (A) (A) (A) (A) (A) (A) (A) (A) (A) (A) (A)
                 (A) (A) (A) (A) (A) (A) (A) (A) (A) (A) (A) (A)
                 (A) (A) (A) (A) (A) (A) (A) (A) (A) (A) (A) (A)
                 (A) (A) (A) (A) (A) (A) (A) (A) (A) (A) (A)
 The electronic state is 1-A.
 Alpha  occ. eigenvalues --  -88.88635 -88.87869 -19.17162 -19.16722 -19.12953
 Alpha  occ. eigenvalues --  -19.12941 -19.12813 -19.12255 -14.38852 -14.38564
 Alpha  occ. eigenvalues --  -10.31497 -10.31386 -10.31374 -10.30774 -10.25182
 Alpha  occ. eigenvalues --  -10.24520 -10.24060 -10.22823 -10.22823 -10.22688
 Alpha  occ. eigenvalues --  -10.22436 -10.22286 -10.22278 -10.22201 -10.22092
 Alpha  occ. eigenvalues --  -10.21951 -10.21898 -10.21738 -10.21557 -10.21194
 Alpha  occ. eigenvalues --  -10.20884 -10.20835 -10.20678 -10.20673 -10.19228
 Alpha  occ. eigenvalues --  -10.18958  -7.97194  -7.96408  -5.93499  -5.93115
 Alpha  occ. eigenvalues --   -5.92766  -5.92715  -5.92286  -5.91972  -1.09334
 Alpha  occ. eigenvalues --   -1.08877  -1.08653  -1.08248  -1.07109  -1.07009
 Alpha  occ. eigenvalues --   -0.96435  -0.96189  -0.92147  -0.90264  -0.88779
 Alpha  occ. eigenvalues --   -0.86441  -0.84055  -0.80369  -0.78323  -0.77579
 Alpha  occ. eigenvalues --   -0.76288  -0.75259  -0.75106  -0.73162  -0.72431
 Alpha  occ. eigenvalues --   -0.71674  -0.70166  -0.68744  -0.67248  -0.65855
 Alpha  occ. eigenvalues --   -0.65361  -0.65024  -0.60896  -0.59880  -0.58685
 Alpha  occ. eigenvalues --   -0.57482  -0.56670  -0.56097  -0.55118  -0.54670
 Alpha  occ. eigenvalues --   -0.53784  -0.51704  -0.50713  -0.50155  -0.49767
 Alpha  occ. eigenvalues --   -0.49503  -0.49352  -0.48601  -0.48271  -0.47991
 Alpha  occ. eigenvalues --   -0.47887  -0.47794  -0.47067  -0.46370  -0.46344
 Alpha  occ. eigenvalues --   -0.45707  -0.45291  -0.44687  -0.44173  -0.43751
 Alpha  occ. eigenvalues --   -0.42995  -0.42764  -0.42383  -0.41915  -0.41678
 Alpha  occ. eigenvalues --   -0.41490  -0.41431  -0.41169  -0.40751  -0.40179
 Alpha  occ. eigenvalues --   -0.39575  -0.39117  -0.38666  -0.37474  -0.37174
 Alpha  occ. eigenvalues --   -0.36340  -0.35883  -0.34346  -0.34004  -0.33617
 Alpha  occ. eigenvalues --   -0.33390  -0.32213  -0.31202  -0.30402  -0.30198
 Alpha  occ. eigenvalues --   -0.29604  -0.29471  -0.29167  -0.28303  -0.27270
 Alpha  occ. eigenvalues --   -0.26178  -0.24975  -0.22572  -0.19591
 Alpha virt. eigenvalues --   -0.13191  -0.07713  -0.06522  -0.04890  -0.03739
 Alpha virt. eigenvalues --   -0.00603  -0.00445   0.00209   0.00370   0.00628
 Alpha virt. eigenvalues --    0.00800   0.01339   0.01655   0.01737   0.02207
 Alpha virt. eigenvalues --    0.02454   0.02776   0.02988   0.03224   0.03574
 Alpha virt. eigenvalues --    0.03784   0.03853   0.04046   0.04484   0.04616
 Alpha virt. eigenvalues --    0.04691   0.05084   0.05368   0.05904   0.05997
 Alpha virt. eigenvalues --    0.06141   0.06530   0.06727   0.06909   0.07259
 Alpha virt. eigenvalues --    0.07572   0.07851   0.08079   0.08178   0.08454
 Alpha virt. eigenvalues --    0.08728   0.08885   0.09123   0.09515   0.09659
 Alpha virt. eigenvalues --    0.09976   0.10041   0.10175   0.10206   0.10812
 Alpha virt. eigenvalues --    0.11088   0.11295   0.11663   0.12067   0.12455
 Alpha virt. eigenvalues --    0.12632   0.12812   0.13079   0.13506   0.13667
 Alpha virt. eigenvalues --    0.13826   0.13969   0.14162   0.14335   0.14476
 Alpha virt. eigenvalues --    0.14667   0.14820   0.14998   0.15342   0.15488
 Alpha virt. eigenvalues --    0.15679   0.15895   0.16110   0.16315   0.16839
 Alpha virt. eigenvalues --    0.16909   0.17008   0.17438   0.17633   0.17789
 Alpha virt. eigenvalues --    0.18106   0.18313   0.18484   0.18563   0.18690
 Alpha virt. eigenvalues --    0.18964   0.19269   0.19357   0.19471   0.19904
 Alpha virt. eigenvalues --    0.19945   0.20151   0.20354   0.20507   0.20678
 Alpha virt. eigenvalues --    0.20866   0.20949   0.21181   0.21406   0.21620
 Alpha virt. eigenvalues --    0.21820   0.21930   0.22267   0.22409   0.22550
 Alpha virt. eigenvalues --    0.22912   0.23132   0.23205   0.23408   0.23700
 Alpha virt. eigenvalues --    0.23957   0.24093   0.24169   0.24483   0.24574
 Alpha virt. eigenvalues --    0.24679   0.24963   0.25040   0.25162   0.25501
 Alpha virt. eigenvalues --    0.25708   0.25821   0.26002   0.26293   0.26415
 Alpha virt. eigenvalues --    0.26671   0.26743   0.27105   0.27273   0.27357
 Alpha virt. eigenvalues --    0.27543   0.27665   0.27864   0.28238   0.28545
 Alpha virt. eigenvalues --    0.28738   0.28847   0.29086   0.29360   0.29486
 Alpha virt. eigenvalues --    0.29781   0.30005   0.30113   0.30316   0.30956
 Alpha virt. eigenvalues --    0.31103   0.31255   0.31484   0.31689   0.31749
 Alpha virt. eigenvalues --    0.31983   0.32421   0.32631   0.32779   0.32975
 Alpha virt. eigenvalues --    0.33847   0.33873   0.34094   0.34362   0.34526
 Alpha virt. eigenvalues --    0.34993   0.35169   0.35688   0.35924   0.36287
 Alpha virt. eigenvalues --    0.36667   0.37241   0.37408   0.37704   0.37925
 Alpha virt. eigenvalues --    0.38223   0.38461   0.39119   0.39344   0.39477
 Alpha virt. eigenvalues --    0.40057   0.40377   0.41324   0.41404   0.41725
 Alpha virt. eigenvalues --    0.42348   0.42884   0.43198   0.43490   0.44200
 Alpha virt. eigenvalues --    0.44237   0.44528   0.44757   0.45042   0.45439
 Alpha virt. eigenvalues --    0.45773   0.45954   0.46764   0.47071   0.47225
 Alpha virt. eigenvalues --    0.47606   0.48146   0.48541   0.48722   0.49601
 Alpha virt. eigenvalues --    0.49756   0.50184   0.50436   0.51229   0.51667
 Alpha virt. eigenvalues --    0.52458   0.52864   0.53344   0.53776   0.53938
 Alpha virt. eigenvalues --    0.54619   0.54926   0.55192   0.55735   0.56049
 Alpha virt. eigenvalues --    0.56297   0.56372   0.56868   0.56998   0.57573
 Alpha virt. eigenvalues --    0.57705   0.58304   0.59015   0.59281   0.59548
 Alpha virt. eigenvalues --    0.59902   0.60037   0.60845   0.61252   0.61518
 Alpha virt. eigenvalues --    0.61976   0.62127   0.62530   0.62813   0.63223
 Alpha virt. eigenvalues --    0.63703   0.63884   0.64615   0.64700   0.65263
 Alpha virt. eigenvalues --    0.65415   0.65705   0.65881   0.66056   0.66112
 Alpha virt. eigenvalues --    0.66944   0.67307   0.67832   0.68212   0.68675
 Alpha virt. eigenvalues --    0.69039   0.69339   0.69849   0.70078   0.70388
 Alpha virt. eigenvalues --    0.70877   0.71354   0.71689   0.72107   0.72524
 Alpha virt. eigenvalues --    0.72728   0.73214   0.73622   0.73804   0.73970
 Alpha virt. eigenvalues --    0.74293   0.74625   0.74849   0.75321   0.75708
 Alpha virt. eigenvalues --    0.75840   0.76371   0.76526   0.76902   0.77487
 Alpha virt. eigenvalues --    0.77590   0.78354   0.78993   0.79426   0.79825
 Alpha virt. eigenvalues --    0.79994   0.81001   0.81541   0.82429   0.83170
 Alpha virt. eigenvalues --    0.83258   0.83754   0.84313   0.84919   0.85194
 Alpha virt. eigenvalues --    0.86288   0.87459   0.87835   0.88056   0.89006
 Alpha virt. eigenvalues --    0.89455   0.89905   0.90553   0.90854   0.91931
 Alpha virt. eigenvalues --    0.92050   0.92391   0.92711   0.93201   0.93361
 Alpha virt. eigenvalues --    0.93859   0.94037   0.94494   0.95068   0.95154
 Alpha virt. eigenvalues --    0.95569   0.95901   0.96627   0.97034   0.97347
 Alpha virt. eigenvalues --    0.98093   0.98994   0.99261   0.99502   1.00324
 Alpha virt. eigenvalues --    1.00993   1.01399   1.01558   1.01848   1.02381
 Alpha virt. eigenvalues --    1.02715   1.03511   1.03626   1.04251   1.04855
 Alpha virt. eigenvalues --    1.05033   1.05128   1.05492   1.06366   1.06623
 Alpha virt. eigenvalues --    1.07107   1.07246   1.08015   1.08409   1.08542
 Alpha virt. eigenvalues --    1.09190   1.09943   1.10180   1.10539   1.11017
 Alpha virt. eigenvalues --    1.11970   1.12371   1.13342   1.13906   1.14944
 Alpha virt. eigenvalues --    1.15925   1.16783   1.17247   1.17576   1.17800
 Alpha virt. eigenvalues --    1.18462   1.19007   1.19716   1.20286   1.20709
 Alpha virt. eigenvalues --    1.21311   1.21784   1.24602   1.24775   1.25295
 Alpha virt. eigenvalues --    1.26050   1.26295   1.26508   1.26833   1.27832
 Alpha virt. eigenvalues --    1.28274   1.29311   1.29964   1.30493   1.30815
 Alpha virt. eigenvalues --    1.32250   1.32826   1.32991   1.34924   1.35106
 Alpha virt. eigenvalues --    1.35543   1.37271   1.37518   1.39254   1.39415
 Alpha virt. eigenvalues --    1.40266   1.40888   1.42021   1.42260   1.42895
 Alpha virt. eigenvalues --    1.43310   1.43528   1.43962   1.44253   1.44745
 Alpha virt. eigenvalues --    1.44962   1.45242   1.45845   1.45963   1.46370
 Alpha virt. eigenvalues --    1.47232   1.47533   1.48127   1.48443   1.49408
 Alpha virt. eigenvalues --    1.50395   1.50868   1.51219   1.51924   1.52452
 Alpha virt. eigenvalues --    1.53671   1.54331   1.54807   1.54917   1.55110
 Alpha virt. eigenvalues --    1.55414   1.55818   1.56119   1.56475   1.57282
 Alpha virt. eigenvalues --    1.57381   1.58628   1.59595   1.60632   1.60962
 Alpha virt. eigenvalues --    1.62418   1.62846   1.63076   1.64339   1.64731
 Alpha virt. eigenvalues --    1.65525   1.66420   1.66528   1.67249   1.67368
 Alpha virt. eigenvalues --    1.67881   1.68139   1.69345   1.69546   1.69649
 Alpha virt. eigenvalues --    1.70126   1.70160   1.71164   1.71349   1.71852
 Alpha virt. eigenvalues --    1.73208   1.74000   1.74930   1.75186   1.75908
 Alpha virt. eigenvalues --    1.76595   1.77266   1.77430   1.78081   1.79203
 Alpha virt. eigenvalues --    1.79469   1.80191   1.80424   1.81271   1.82633
 Alpha virt. eigenvalues --    1.83211   1.84206   1.85553   1.86104   1.86623
 Alpha virt. eigenvalues --    1.86777   1.86977   1.87217   1.88284   1.88489
 Alpha virt. eigenvalues --    1.89008   1.89667   1.90716   1.91036   1.91558
 Alpha virt. eigenvalues --    1.92493   1.92805   1.93905   1.94354   1.95313
 Alpha virt. eigenvalues --    1.95812   1.96326   1.97323   1.98593   1.98980
 Alpha virt. eigenvalues --    1.99995   2.00745   2.01285   2.01991   2.02294
 Alpha virt. eigenvalues --    2.03286   2.03443   2.03910   2.04366   2.04854
 Alpha virt. eigenvalues --    2.05776   2.06435   2.07366   2.07759   2.08862
 Alpha virt. eigenvalues --    2.09227   2.09594   2.09850   2.11760   2.12545
 Alpha virt. eigenvalues --    2.12784   2.13993   2.14212   2.14545   2.15296
 Alpha virt. eigenvalues --    2.15959   2.17020   2.17768   2.18527   2.19551
 Alpha virt. eigenvalues --    2.19866   2.20306   2.20731   2.22322   2.22829
 Alpha virt. eigenvalues --    2.23690   2.25595   2.26207   2.26613   2.28769
 Alpha virt. eigenvalues --    2.32658   2.32933   2.34162   2.35230   2.36323
 Alpha virt. eigenvalues --    2.37800   2.39424   2.40175   2.41109   2.43108
 Alpha virt. eigenvalues --    2.43733   2.44005   2.44379   2.45749   2.46392
 Alpha virt. eigenvalues --    2.46945   2.47354   2.48135   2.48852   2.49716
 Alpha virt. eigenvalues --    2.50210   2.52054   2.52449   2.52894   2.53272
 Alpha virt. eigenvalues --    2.53787   2.54224   2.54673   2.55089   2.56483
 Alpha virt. eigenvalues --    2.57018   2.58369   2.58902   2.59031   2.61014
 Alpha virt. eigenvalues --    2.63059   2.63431   2.64179   2.65181   2.66814
 Alpha virt. eigenvalues --    2.66936   2.67548   2.68100   2.68656   2.68952
 Alpha virt. eigenvalues --    2.69124   2.69706   2.70694   2.71241   2.71343
 Alpha virt. eigenvalues --    2.72615   2.72959   2.73096   2.74681   2.75066
 Alpha virt. eigenvalues --    2.76152   2.76637   2.78206   2.78853   2.80394
 Alpha virt. eigenvalues --    2.81276   2.81636   2.82140   2.83709   2.83952
 Alpha virt. eigenvalues --    2.84331   2.84673   2.85491   2.85500   2.86595
 Alpha virt. eigenvalues --    2.87019   2.87926   2.88553   2.88878   2.89717
 Alpha virt. eigenvalues --    2.90716   2.91919   2.92541   2.93373   2.94203
 Alpha virt. eigenvalues --    2.94475   2.95453   2.96877   2.97538   2.98009
 Alpha virt. eigenvalues --    3.00081   3.01573   3.02546   3.03559   3.04456
 Alpha virt. eigenvalues --    3.05160   3.06178   3.08881   3.09277   3.10984
 Alpha virt. eigenvalues --    3.11332   3.12835   3.14133   3.14439   3.15145
 Alpha virt. eigenvalues --    3.16346   3.17897   3.18487   3.20150   3.21831
 Alpha virt. eigenvalues --    3.23003   3.23252   3.23835   3.24790   3.27246
 Alpha virt. eigenvalues --    3.28561   3.29963   3.31307   3.31839   3.33227
 Alpha virt. eigenvalues --    3.33650   3.34108   3.34176   3.34654   3.37756
 Alpha virt. eigenvalues --    3.38643   3.40224   3.41614   3.42086   3.42740
 Alpha virt. eigenvalues --    3.44294   3.45114   3.46110   3.48677   3.49089
 Alpha virt. eigenvalues --    3.51106   3.53873   3.55236   3.57545   3.59305
 Alpha virt. eigenvalues --    3.60009   3.61425   3.64699   3.66105   3.66282
 Alpha virt. eigenvalues --    3.69998   3.70327   3.72208   3.72823   3.75730
 Alpha virt. eigenvalues --    3.77005   3.77209   3.80336   3.83315   3.85024
 Alpha virt. eigenvalues --    3.85340   3.86322   3.89294   3.90563   3.92646
 Alpha virt. eigenvalues --    3.93054   3.94742   3.96639   4.01200   4.03184
 Alpha virt. eigenvalues --    4.04651   4.08511   4.10777   4.12906   4.14303
 Alpha virt. eigenvalues --    4.20682   4.24101   4.25313   4.27077   4.35115
 Alpha virt. eigenvalues --    4.39814   4.40802   4.52857   4.71083   4.84432
 Alpha virt. eigenvalues --    4.86282   4.87441   4.90390   5.01746   5.02547
 Alpha virt. eigenvalues --    5.03210   5.04725   5.05393   5.07901   5.10944
 Alpha virt. eigenvalues --    5.12895   5.24286   5.26383   5.28867   5.33559
 Alpha virt. eigenvalues --    5.42412   5.43312   5.75151   5.76511   5.79750
 Alpha virt. eigenvalues --    5.80220   5.81334   5.84817   8.02564   8.08452
 Alpha virt. eigenvalues --   17.28824  17.35072  17.49823  17.52697  17.59803
 Alpha virt. eigenvalues --   17.66639  23.48866  23.56838  23.71165  23.78466
 Alpha virt. eigenvalues --   23.81749  23.82341  23.84158  23.86296  23.86507
 Alpha virt. eigenvalues --   23.87923  23.89060  23.90934  23.91854  23.93038
 Alpha virt. eigenvalues --   23.94707  23.95189  23.96173  23.98197  24.00743
 Alpha virt. eigenvalues --   24.01445  24.02256  24.05174  24.11776  24.13156
 Alpha virt. eigenvalues --   24.14233  24.14363  35.55925  35.58827  49.96055
 Alpha virt. eigenvalues --   49.97861  50.01482  50.03472  50.05084  50.06625
 Alpha virt. eigenvalues --  189.19965 189.26725
          Condensed to atoms (all electrons):
 Mulliken charges:
               1
     1  C    0.415858
     2  C   -0.128471
     3  C    0.227540
     4  C    0.219138
     5  C    0.317465
     6  C   -0.042266
     7  C    0.169733
     8  C    0.311051
     9  C    0.300383
    10  C   -0.344087
    11  C    0.229591
    12  C    0.209728
    13  C   -0.529340
    14  C   -0.624866
    15  H    0.163437
    16  H    0.165129
    17  H    0.170642
    18  N   -0.095001
    19  N   -0.102648
    20  O   -0.349826
    21  O   -0.331446
    22  O   -0.347623
    23  O   -0.149737
    24  C   -0.213285
    25  H    0.186604
    26  H    0.187235
    27  H    0.181559
    28  C   -0.215593
    29  H    0.181423
    30  H    0.183166
    31  H    0.179904
    32  C    0.098321
    33  C   -0.471946
    34  S   -0.578862
    35  C   -0.425268
    36  H    0.160508
    37  C    0.641211
    38  O   -0.165846
    39  C    0.708642
    40  C   -0.247853
    41  C   -0.054854
    42  S   -0.254130
    43  H    0.176184
    44  H    0.159381
    45  H    0.164008
    46  C   -0.541177
    47  O   -0.132927
    48  C   -0.351384
    49  H    0.164219
    50  C   -0.264424
    51  H    0.192347
    52  H    0.160724
    53  H    0.175507
    54  H    0.162226
 Sum of Mulliken charges =  -0.00000
 Mulliken charges with hydrogens summed into heavy atoms:
               1
     1  C    0.415858
     2  C   -0.128471
     3  C    0.227540
     4  C    0.219138
     5  C    0.317465
     6  C    0.128375
     7  C    0.169733
     8  C    0.311051
     9  C    0.300383
    10  C   -0.344087
    11  C    0.229591
    12  C    0.209728
    13  C   -0.364211
    14  C   -0.461430
    18  N   -0.095001
    19  N   -0.102648
    20  O   -0.349826
    21  O   -0.331446
    22  O   -0.347623
    23  O   -0.149737
    24  C    0.342113
    28  C    0.328901
    32  C    0.098321
    33  C   -0.311438
    34  S   -0.578862
    35  C   -0.425268
    37  C    0.641211
    38  O   -0.165846
    39  C    0.708642
    40  C    0.251720
    41  C   -0.054854
    42  S   -0.254130
    46  C   -0.376958
    47  O   -0.132927
    48  C   -0.159037
    50  C    0.234033
 Electronic spatial extent (au):  <R**2>=          22137.9431
 Charge=             -0.0000 electrons
 Dipole moment (field-independent basis, Debye):
    X=              5.7892    Y=             -0.5622    Z=             -0.2226  Tot=              5.8207
 Quadrupole moment (field-independent basis, Debye-Ang):
   XX=           -211.4823   YY=           -213.3118   ZZ=           -222.4353
   XY=             17.9865   XZ=             -5.8009   YZ=             -6.5860
 Traceless Quadrupole moment (field-independent basis, Debye-Ang):
   XX=              4.2608   YY=              2.4313   ZZ=             -6.6921
   XY=             17.9865   XZ=             -5.8009   YZ=             -6.5860
 Octapole moment (field-independent basis, Debye-Ang**2):
  XXX=            477.8926  YYY=            -83.5252  ZZZ=              2.9843  XYY=            152.9608
  XXY=             45.8364  XXZ=            -26.0126  XZZ=            -10.9588  YZZ=              2.2536
  YYZ=              6.4803  XYZ=            -23.5482
 Hexadecapole moment (field-independent basis, Debye-Ang**3):
 XXXX=         -21390.3909 YYYY=          -7563.7152 ZZZZ=           -462.6577 XXXY=            593.8085
 XXXZ=           -320.0944 YYYX=            387.5922 YYYZ=           -112.9038 ZZZX=             15.9754
 ZZZY=              0.8532 XXYY=          -4495.0282 XXZZ=          -3854.0670 YYZZ=          -1275.9719
 XXYZ=           -121.9821 YYXZ=             24.6785 ZZXY=             72.5034
 N-N= 4.126841327229D+03 E-N=-1.379430554897D+04  KE= 2.352059344745D+03
 D1PCM: PCM CHGder 1st derivatives, ID1Alg=3 FixD1E=F DoIter=F DoCFld=F I1PDM=0.
 Calling FoFJK, ICntrl=      2127 FMM=F ISym2X=0 I1Cent= 0 IOpClX= 0 NMat=1 NMatS=1 NMatT=0.
 ***** Axes restored to original set *****
 -------------------------------------------------------------------
 Center     Atomic                   Forces (Hartrees/Bohr)
 Number     Number              X              Y              Z
 -------------------------------------------------------------------
      1        6          -0.001614860    0.000086423    0.000141368
      2        6           0.005393239   -0.000172391   -0.000390769
      3        6          -0.003155896    0.000548605    0.000181267
      4        6           0.002916697    0.001003014    0.000157913
      5        6           0.002243488    0.000871318    0.000196460
      6        6          -0.001569937   -0.002145709   -0.001474113
      7        6          -0.000677843    0.000646563    0.000131903
      8        6          -0.000693456    0.006063726    0.002184513
      9        6           0.011135679   -0.007267555   -0.002724892
     10        6          -0.023324358   -0.006668334    0.000705559
     11        6           0.002142719   -0.003486533   -0.000820205
     12        6           0.001794627    0.001255923    0.000511081
     13        6          -0.001801390   -0.002568827   -0.000409355
     14        6          -0.000321302    0.002398075    0.000358839
     15        1           0.000626933    0.001839460    0.000202273
     16        1           0.000113189   -0.002188991   -0.000325828
     17        1          -0.000315824    0.001794450    0.000859086
     18        7           0.001224334   -0.002657755   -0.000661470
     19        7           0.001172031    0.001744080    0.000150164
     20        8          -0.002759611    0.002217646    0.000343964
     21        8           0.002649189   -0.000044575   -0.000120014
     22        8           0.001698183   -0.000241543   -0.000061012
     23        8          -0.038714070    0.016101241    0.020273000
     24        6           0.001753370    0.002797838   -0.000520691
     25        1          -0.001445111    0.000139085   -0.000032303
     26        1          -0.002008212   -0.000370807    0.000935601
     27        1           0.002013960    0.000340977    0.000227352
     28        6           0.000097095   -0.002443031   -0.000680103
     29        1          -0.001490024    0.000607177    0.000709558
     30        1          -0.001239585    0.000546301   -0.000188460
     31        1           0.001724003   -0.001094764   -0.000137419
     32        6          -0.017104300    0.031707763    0.006527711
     33        6           0.009218258   -0.007726644   -0.002365913
     34       16           0.053173530   -0.016594310   -0.015369646
     35        6          -0.001637949   -0.008736862    0.000473544
     36        1           0.001183914   -0.000881605    0.001864974
     37        6          -0.003895773   -0.005383379   -0.013457130
     38        8          -0.000852986    0.000343783    0.001071147
     39        6          -0.001190820   -0.000519996    0.000608712
     40        6           0.000591110   -0.004853226    0.001587282
     41        6          -0.002080372   -0.000091110   -0.000327181
     42       16           0.001314951    0.001117521    0.000285235
     43        1          -0.000764661   -0.000196557   -0.000098806
     44        1           0.000693910    0.000859287   -0.001179466
     45        1           0.001027698    0.001189094    0.000859577
     46        6          -0.000834598   -0.000216772    0.000414204
     47        8           0.005075597   -0.004086101    0.000055523
     48        6           0.000084676    0.000663183   -0.000097602
     49        1           0.000125617   -0.000884074    0.000124033
     50        6           0.000498267    0.007997202   -0.001297244
     51        1          -0.001083862   -0.000477039   -0.000099226
     52        1          -0.001127698   -0.001219678    0.001806117
     53        1           0.001001542   -0.000311622   -0.000009159
     54        1          -0.000983308   -0.001349943   -0.001099956
 -------------------------------------------------------------------
 Cartesian Forces:  Max     0.053173530 RMS     0.007237143

 GradGradGradGradGradGradGradGradGradGradGradGradGradGradGradGradGradGrad
 Berny optimization.
 FormGI is forming the generalized inverse of G from B-inverse, IUseBI=4.
 Internal  Forces:  Max     0.169653461 RMS     0.019985957
 Search for a local minimum.
 Step number   1 out of a maximum of  307
 All quantities printed in internal units (Hartrees-Bohrs-Radians)
 Mixed Optimization -- RFO/linear search
 Second derivative matrix not updated -- first step.
 ITU=  0
     Eigenvalues ---    0.00803   0.00803   0.01176   0.01203   0.01245
     Eigenvalues ---    0.01292   0.01308   0.01311   0.01359   0.01381
     Eigenvalues ---    0.01419   0.01429   0.01458   0.01496   0.01516
     Eigenvalues ---    0.01568   0.01569   0.01577   0.01627   0.01651
     Eigenvalues ---    0.01691   0.01711   0.01715   0.01719   0.01754
     Eigenvalues ---    0.01783   0.01803   0.01847   0.01958   0.02040
     Eigenvalues ---    0.02049   0.02069   0.02073   0.02080   0.02135
     Eigenvalues ---    0.02149   0.02163   0.02179   0.02197   0.02215
     Eigenvalues ---    0.02240   0.02251   0.07556   0.07572   0.07690
     Eigenvalues ---    0.07700   0.10057   0.10073   0.10634   0.10635
     Eigenvalues ---    0.15983   0.15999   0.15999   0.16000   0.16000
     Eigenvalues ---    0.16000   0.16000   0.16000   0.16000   0.16000
     Eigenvalues ---    0.16000   0.16000   0.16000   0.16000   0.16000
     Eigenvalues ---    0.16000   0.16000   0.16000   0.22530   0.22583
     Eigenvalues ---    0.23518   0.23582   0.24516   0.24747   0.24865
     Eigenvalues ---    0.24931   0.24952   0.24986   0.24987   0.24988
     Eigenvalues ---    0.24992   0.24994   0.24997   0.24997   0.24998
     Eigenvalues ---    0.24998   0.25000   0.25000   0.25000   0.25000
     Eigenvalues ---    0.25000   0.25000   0.25000   0.25000   0.25000
     Eigenvalues ---    0.25000   0.28829   0.28885   0.30104   0.32051
     Eigenvalues ---    0.32582   0.32774   0.33111   0.33787   0.33967
     Eigenvalues ---    0.34046   0.34054   0.34079   0.34354   0.34466
     Eigenvalues ---    0.34577   0.34629   0.34693   0.34859   0.34902
     Eigenvalues ---    0.35198   0.35218   0.35468   0.35553   0.35582
     Eigenvalues ---    0.35849   0.35853   0.36078   0.36083   0.36168
     Eigenvalues ---    0.36396   0.36662   0.39352   0.40194   0.40287
     Eigenvalues ---    0.40646   0.40651   0.41524   0.41692   0.41938
     Eigenvalues ---    0.42300   0.42779   0.43455   0.43937   0.44092
     Eigenvalues ---    0.44484   0.44594   0.45014   0.45406   0.46251
     Eigenvalues ---    0.47305   0.47579   0.49310   0.49650   0.52864
     Eigenvalues ---    0.53236   0.93281   0.93432   0.93989   0.94585
     Eigenvalues --- 1000.000001000.000001000.000001000.000001000.00000
     Eigenvalues --- 1000.000001000.000001000.000001000.000001000.00000
     Eigenvalues --- 1000.000001000.000001000.000001000.000001000.00000
     Eigenvalues --- 1000.000001000.000001000.000001000.000001000.00000
     Eigenvalues --- 1000.000001000.000001000.000001000.000001000.00000
     Eigenvalues --- 1000.000001000.000001000.000001000.000001000.00000
     Eigenvalues --- 1000.000001000.000001000.000001000.000001000.00000
     Eigenvalues --- 1000.000001000.000001000.000001000.000001000.00000
     Eigenvalues --- 1000.000001000.000001000.000001000.000001000.00000
     Eigenvalues --- 1000.000001000.000001000.000001000.000001000.00000
     Eigenvalues --- 1000.000001000.000001000.000001000.000001000.00000
     Eigenvalues --- 1000.000001000.000001000.000001000.000001000.00000
     Eigenvalues --- 1000.000001000.000001000.000001000.000001000.00000
     Eigenvalues --- 1000.000001000.000001000.000001000.000001000.00000
     Eigenvalues --- 1000.000001000.000001000.000001000.000001000.00000
     Eigenvalues --- 1000.000001000.000001000.000001000.000001000.00000
     Eigenvalues --- 1000.000001000.000001000.000001000.000001000.00000
     Eigenvalues --- 1000.000001000.000001000.000001000.000001000.00000
     Eigenvalues --- 1000.000001000.000001000.000001000.000001000.00000
     Eigenvalues --- 1000.000001000.000001000.000001000.000001000.00000
     Eigenvalues --- 1000.000001000.000001000.000001000.000001000.00000
     Eigenvalues --- 1000.000001000.000001000.000001000.000001000.00000
     Eigenvalues --- 1000.000001000.000001000.000001000.000001000.00000
     Eigenvalues --- 1000.000001000.000001000.000001000.000001000.00000
     Eigenvalues --- 1000.000001000.000001000.000001000.000001000.00000
     Eigenvalues --- 1000.000001000.000001000.000001000.000001000.00000
     Eigenvalues --- 1000.000001000.000001000.000001000.000001000.00000
     Eigenvalues --- 1000.000001000.000001000.000001000.000001000.00000
     Eigenvalues --- 1000.000001000.00000
 RFO step:  Lambda=-2.41709739D-01 EMin= 8.02933640D-03
 Linear search not attempted -- first point.
 Maximum step size (   0.300) exceeded in Quadratic search.
    -- Step size scaled by   0.448
 Iteration  1 RMS(Cart)=  0.32491415 RMS(Int)=  0.00824449
 Iteration  2 RMS(Cart)=  0.12904600 RMS(Int)=  0.00104681
 Iteration  3 RMS(Cart)=  0.00371895 RMS(Int)=  0.00026992
 Iteration  4 RMS(Cart)=  0.00000142 RMS(Int)=  0.00026992
 Iteration  5 RMS(Cart)=  0.00000000 RMS(Int)=  0.00026992
 Iteration  1 RMS(Cart)=  0.00009916 RMS(Int)=  0.00001620
 Iteration  2 RMS(Cart)=  0.00005579 RMS(Int)=  0.00001808
 Iteration  3 RMS(Cart)=  0.00003139 RMS(Int)=  0.00002049
 Iteration  4 RMS(Cart)=  0.00001766 RMS(Int)=  0.00002214
 Iteration  5 RMS(Cart)=  0.00000994 RMS(Int)=  0.00002314
 Iteration  6 RMS(Cart)=  0.00000559 RMS(Int)=  0.00002373
 Iteration  7 RMS(Cart)=  0.00000315 RMS(Int)=  0.00002406
 Iteration  8 RMS(Cart)=  0.00000177 RMS(Int)=  0.00002425
 Iteration  9 RMS(Cart)=  0.00000100 RMS(Int)=  0.00002436
 Variable       Old X    -DE/DX   Delta X   Delta X   Delta X     New X
                                 (Linear)    (Quad)   (Total)
    R1        2.80935  -0.00085   0.00000  -0.00095  -0.00095   2.80840
    R2        2.64584  -0.00813   0.00000  -0.00535  -0.00533   2.64051
    R3        2.31147  -0.00354   0.00000  -0.00134  -0.00134   2.31013
    R4        2.67311  -0.01666   0.00000  -0.01265  -0.01273   2.66039
    R5        2.59267  -0.02287   0.00000  -0.01545  -0.01546   2.57721
    R6        2.66894   0.00229   0.00000   0.00160   0.00158   2.67053
    R7        2.69164   0.00526   0.00000   0.00478   0.00475   2.69639
    R8        2.81049  -0.00167   0.00000  -0.00100  -0.00100   2.80949
    R9        2.62173  -0.00901   0.00000  -0.00631  -0.00633   2.61540
   R10        2.65570  -0.00790   0.00000  -0.00503  -0.00502   2.65067
   R11        2.30889  -0.00249   0.00000  -0.00094  -0.00094   2.30795
   R12        2.70248   0.00080   0.00000  -0.00005   0.00000   2.70248
   R13        2.04786  -0.00160   0.00000  -0.00120  -0.00120   2.04666
   R14        2.70495   0.03784   0.00000   0.02957   0.02965   2.73460
   R15        2.68322   0.01098   0.00000   0.00894   0.00893   2.69215
   R16        2.68655   0.07666   0.00000   0.05326   0.05332   2.73987
   R17        2.81233   0.02016   0.00000   0.01630   0.01639   2.82872
   R18        2.76359   0.04147   0.00000   0.03057   0.03057   2.79416
   R19        2.66221  -0.00952   0.00000  -0.00709  -0.00707   2.65514
   R20        2.31391  -0.02648   0.00000  -0.01009  -0.01009   2.30381
   R21        2.79415  -0.02013   0.00000  -0.01599  -0.01608   2.77807
   R22        2.63842  -0.02436   0.00000  -0.01684  -0.01691   2.62151
   R23        2.31456  -0.00141   0.00000  -0.00054  -0.00054   2.31402
   R24        2.62448  -0.00111   0.00000  -0.00065  -0.00065   2.62383
   R25        2.64561  -0.01569   0.00000  -0.01075  -0.01077   2.63485
   R26        2.04921  -0.00162   0.00000  -0.00122  -0.00122   2.04799
   R27        2.04741  -0.00118   0.00000  -0.00089  -0.00089   2.04652
   R28        2.77259   0.00297   0.00000   0.00221   0.00221   2.77480
   R29        2.77252   0.00254   0.00000   0.00189   0.00189   2.77441
   R30        2.06176  -0.00078   0.00000  -0.00059  -0.00059   2.06117
   R31        2.06551  -0.00195   0.00000  -0.00149  -0.00149   2.06402
   R32        2.05322  -0.00155   0.00000  -0.00117  -0.00117   2.05205
   R33        2.06368  -0.00141   0.00000  -0.00108  -0.00108   2.06260
   R34        2.06281  -0.00092   0.00000  -0.00070  -0.00070   2.06211
   R35        2.05355  -0.00159   0.00000  -0.00120  -0.00120   2.05235
   R36        2.61074   0.02187   0.00000   0.01361   0.01368   2.62443
   R37        3.33313   0.00850   0.00000   0.00763   0.00769   3.34082
   R38        2.66146  -0.01330   0.00000  -0.00895  -0.00896   2.65250
   R39        2.03820   0.00103   0.00000   0.00076   0.00076   2.03896
   R40        3.30384  -0.00120   0.00000  -0.00103  -0.00108   3.30276
   R41        2.64237  -0.00762   0.00000  -0.00525  -0.00534   2.63703
   R42        2.57081   0.00197   0.00000   0.00115   0.00115   2.57196
   R43        2.71165   0.00097   0.00000   0.00067   0.00067   2.71232
   R44        2.69318   0.00313   0.00000   0.00213   0.00213   2.69530
   R45        2.63539   0.00143   0.00000   0.00096   0.00096   2.63634
   R46        3.32915   0.00112   0.00000   0.00101   0.00101   3.33016
   R47        2.05834  -0.00070   0.00000  -0.00053  -0.00053   2.05781
   R48        2.07253  -0.00157   0.00000  -0.00121  -0.00121   2.07132
   R49        2.07196  -0.00164   0.00000  -0.00126  -0.00126   2.07070
   R50        2.69149  -0.00112   0.00000  -0.00077  -0.00077   2.69072
   R51        2.56734  -0.00354   0.00000  -0.00205  -0.00205   2.56528
   R52        3.26406  -0.00138   0.00000  -0.00113  -0.00113   3.26293
   R53        2.58577  -0.00162   0.00000  -0.00102  -0.00102   2.58475
   R54        2.04318  -0.00087   0.00000  -0.00065  -0.00065   2.04253
   R55        2.69002   0.00517   0.00000   0.00351   0.00351   2.69353
   R56        2.04312  -0.00115   0.00000  -0.00086  -0.00086   2.04226
   R57        2.07386  -0.00237   0.00000  -0.00183  -0.00183   2.07203
   R58        2.05904  -0.00105   0.00000  -0.00079  -0.00079   2.05824
   R59        2.07239  -0.00192   0.00000  -0.00148  -0.00148   2.07092
    A1        2.03797   0.00251   0.00000   0.00144   0.00144   2.03941
    A2        2.14521  -0.00085   0.00000  -0.00035  -0.00035   2.14486
    A3        2.10001  -0.00166   0.00000  -0.00109  -0.00109   2.09892
    A4        2.10395   0.00723   0.00000   0.00781   0.00783   2.11178
    A5        2.08282  -0.00917   0.00000  -0.00593  -0.00587   2.07695
    A6        2.09624   0.00190   0.00000  -0.00194  -0.00202   2.09422
    A7        2.10093  -0.01017   0.00000  -0.01002  -0.00999   2.09094
    A8        2.07104  -0.00025   0.00000  -0.00167  -0.00177   2.06927
    A9        2.11118   0.01042   0.00000   0.01168   0.01174   2.12292
   A10        2.10296   0.00472   0.00000   0.00474   0.00472   2.10769
   A11        2.09911   0.00382   0.00000   0.00301   0.00298   2.10209
   A12        2.08110  -0.00854   0.00000  -0.00775  -0.00770   2.07340
   A13        2.03739   0.00127   0.00000   0.00140   0.00138   2.03878
   A14        2.12972   0.00041   0.00000   0.00026   0.00027   2.12999
   A15        2.11607  -0.00168   0.00000  -0.00166  -0.00165   2.11442
   A16        2.15098   0.03363   0.00000   0.02973   0.02976   2.18074
   A17        2.04399  -0.01592   0.00000  -0.01396  -0.01397   2.03002
   A18        2.08722  -0.01787   0.00000  -0.01607  -0.01611   2.07111
   A19        2.11101   0.01362   0.00000   0.01291   0.01285   2.12386
   A20        2.04385  -0.02543   0.00000  -0.02451  -0.02450   2.01935
   A21        2.12832   0.01180   0.00000   0.01160   0.01164   2.13997
   A22        2.08678  -0.02594   0.00000  -0.02033  -0.02034   2.06644
   A23        2.04738  -0.04860   0.00000  -0.04320  -0.04304   2.00434
[...]
 Alpha  occ. eigenvalues --   -0.57548  -0.56815  -0.56126  -0.55014  -0.54899
 Alpha  occ. eigenvalues --   -0.53893  -0.51697  -0.50346  -0.50139  -0.49768
 Alpha  occ. eigenvalues --   -0.49599  -0.49165  -0.48586  -0.48412  -0.48079
 Alpha  occ. eigenvalues --   -0.48009  -0.47260  -0.46985  -0.46555  -0.45836
 Alpha  occ. eigenvalues --   -0.45505  -0.45382  -0.45087  -0.44309  -0.43785
 Alpha  occ. eigenvalues --   -0.42874  -0.42627  -0.42244  -0.42063  -0.41968
 Alpha  occ. eigenvalues --   -0.41850  -0.41537  -0.41125  -0.40739  -0.40092
 Alpha  occ. eigenvalues --   -0.39684  -0.39247  -0.38892  -0.37848  -0.37466
 Alpha  occ. eigenvalues --   -0.36494  -0.36280  -0.34382  -0.34112  -0.33853
 Alpha  occ. eigenvalues --   -0.33709  -0.32036  -0.31504  -0.30746  -0.30201
 Alpha  occ. eigenvalues --   -0.29664  -0.29320  -0.29107  -0.28637  -0.27526
 Alpha  occ. eigenvalues --   -0.26149  -0.25270  -0.24807  -0.19707
 Alpha virt. eigenvalues --   -0.13248  -0.07857  -0.06462  -0.04780  -0.03978
 Alpha virt. eigenvalues --   -0.00768  -0.00577   0.00124   0.00280   0.00368
 Alpha virt. eigenvalues --    0.00801   0.01274   0.01291   0.01564   0.02023
 Alpha virt. eigenvalues --    0.02292   0.02671   0.02743   0.02956   0.03122
 Alpha virt. eigenvalues --    0.03691   0.03784   0.03853   0.04421   0.04497
 Alpha virt. eigenvalues --    0.04675   0.04789   0.05292   0.05648   0.05951
 Alpha virt. eigenvalues --    0.06151   0.06363   0.06540   0.06678   0.07252
 Alpha virt. eigenvalues --    0.07345   0.07651   0.07895   0.08027   0.08125
 Alpha virt. eigenvalues --    0.08451   0.08622   0.09006   0.09064   0.09562
 Alpha virt. eigenvalues --    0.09635   0.09874   0.10126   0.10220   0.10561
 Alpha virt. eigenvalues --    0.10991   0.11099   0.11615   0.11636   0.11846
 Alpha virt. eigenvalues --    0.12433   0.12769   0.12962   0.13154   0.13549
 Alpha virt. eigenvalues --    0.13645   0.13954   0.14061   0.14106   0.14398
 Alpha virt. eigenvalues --    0.14563   0.14713   0.14801   0.15029   0.15274
 Alpha virt. eigenvalues --    0.15719   0.15829   0.15996   0.16170   0.16473
 Alpha virt. eigenvalues --    0.16682   0.16950   0.17214   0.17459   0.17674
 Alpha virt. eigenvalues --    0.17792   0.18178   0.18285   0.18421   0.18590
 Alpha virt. eigenvalues --    0.18748   0.18855   0.19435   0.19457   0.19908
 Alpha virt. eigenvalues --    0.20030   0.20110   0.20129   0.20236   0.20547
 Alpha virt. eigenvalues --    0.20715   0.20932   0.21100   0.21210   0.21522
 Alpha virt. eigenvalues --    0.21699   0.21903   0.21926   0.22161   0.22305
 Alpha virt. eigenvalues --    0.22555   0.23100   0.23331   0.23399   0.23537
 Alpha virt. eigenvalues --    0.23837   0.23920   0.24045   0.24174   0.24367
 Alpha virt. eigenvalues --    0.24697   0.24772   0.24963   0.25232   0.25446
 Alpha virt. eigenvalues --    0.25604   0.25870   0.26022   0.26299   0.26405
 Alpha virt. eigenvalues --    0.26513   0.26657   0.26836   0.26895   0.27226
 Alpha virt. eigenvalues --    0.27480   0.27630   0.27738   0.28088   0.28380
 Alpha virt. eigenvalues --    0.28460   0.28728   0.29123   0.29209   0.29443
 Alpha virt. eigenvalues --    0.29855   0.29975   0.30130   0.30391   0.30602
 Alpha virt. eigenvalues --    0.30967   0.31086   0.31297   0.31462   0.31654
 Alpha virt. eigenvalues --    0.31785   0.31958   0.32359   0.32592   0.32799
 Alpha virt. eigenvalues --    0.32957   0.33451   0.33649   0.33897   0.34167
 Alpha virt. eigenvalues --    0.34533   0.35272   0.35318   0.35557   0.35726
 Alpha virt. eigenvalues --    0.36131   0.36369   0.36734   0.37377   0.37576
 Alpha virt. eigenvalues --    0.37697   0.37814   0.38506   0.38729   0.39156
 Alpha virt. eigenvalues --    0.39528   0.40004   0.40264   0.40395   0.40530
 Alpha virt. eigenvalues --    0.41252   0.42448   0.42590   0.42935   0.43120
 Alpha virt. eigenvalues --    0.43416   0.43628   0.44013   0.44342   0.44572
 Alpha virt. eigenvalues --    0.45406   0.45453   0.46024   0.46532   0.46830
 Alpha virt. eigenvalues --    0.47328   0.47946   0.48270   0.48671   0.49108
 Alpha virt. eigenvalues --    0.49468   0.49843   0.50160   0.50593   0.51258
 Alpha virt. eigenvalues --    0.51428   0.51888   0.52768   0.52992   0.54036
 Alpha virt. eigenvalues --    0.54308   0.54724   0.54960   0.55273   0.55593
 Alpha virt. eigenvalues --    0.55710   0.55939   0.56546   0.56900   0.57256
 Alpha virt. eigenvalues --    0.57495   0.57824   0.58211   0.58386   0.59377
 Alpha virt. eigenvalues --    0.59942   0.60151   0.60646   0.60849   0.61263
 Alpha virt. eigenvalues --    0.61368   0.61632   0.61900   0.62469   0.63546
 Alpha virt. eigenvalues --    0.63731   0.63983   0.64556   0.64729   0.64970
 Alpha virt. eigenvalues --    0.65501   0.65945   0.66184   0.66561   0.66858
 Alpha virt. eigenvalues --    0.67376   0.67537   0.67790   0.68111   0.68732
 Alpha virt. eigenvalues --    0.69140   0.69359   0.69752   0.70237   0.70451
 Alpha virt. eigenvalues --    0.70934   0.71246   0.71357   0.71679   0.72427
 Alpha virt. eigenvalues --    0.72602   0.72776   0.72983   0.73363   0.73704
 Alpha virt. eigenvalues --    0.74105   0.74396   0.74516   0.74796   0.75044
 Alpha virt. eigenvalues --    0.75375   0.75662   0.75995   0.76495   0.76855
 Alpha virt. eigenvalues --    0.77204   0.77850   0.78088   0.78668   0.79155
 Alpha virt. eigenvalues --    0.79470   0.79960   0.80445   0.80981   0.81201
 Alpha virt. eigenvalues --    0.82641   0.83391   0.83561   0.84182   0.85340
 Alpha virt. eigenvalues --    0.85658   0.86588   0.87140   0.87696   0.88159
 Alpha virt. eigenvalues --    0.88697   0.89840   0.89980   0.90250   0.91082
 Alpha virt. eigenvalues --    0.91558   0.91884   0.92269   0.92602   0.92775
 Alpha virt. eigenvalues --    0.93453   0.93733   0.93919   0.94479   0.94997
 Alpha virt. eigenvalues --    0.95161   0.95474   0.96250   0.96619   0.97205
 Alpha virt. eigenvalues --    0.97570   0.98016   0.98462   0.99063   0.99866
 Alpha virt. eigenvalues --    1.00788   1.01232   1.01351   1.01682   1.02160
 Alpha virt. eigenvalues --    1.02705   1.02880   1.03014   1.03765   1.04290
 Alpha virt. eigenvalues --    1.04914   1.05151   1.05367   1.05817   1.06044
 Alpha virt. eigenvalues --    1.06567   1.07133   1.07623   1.08165   1.08540
 Alpha virt. eigenvalues --    1.09127   1.09408   1.09786   1.09965   1.10806
 Alpha virt. eigenvalues --    1.11252   1.11954   1.12923   1.14366   1.14445
 Alpha virt. eigenvalues --    1.15173   1.15863   1.17271   1.17670   1.17881
 Alpha virt. eigenvalues --    1.18597   1.19160   1.19981   1.20354   1.20487
 Alpha virt. eigenvalues --    1.21435   1.21834   1.22592   1.23766   1.24170
 Alpha virt. eigenvalues --    1.24837   1.25403   1.25897   1.26259   1.26714
 Alpha virt. eigenvalues --    1.27831   1.27861   1.29836   1.30374   1.30550
 Alpha virt. eigenvalues --    1.32042   1.32898   1.33606   1.34283   1.34981
 Alpha virt. eigenvalues --    1.35330   1.35398   1.35904   1.37093   1.39763
 Alpha virt. eigenvalues --    1.39991   1.41113   1.41299   1.41792   1.42517
 Alpha virt. eigenvalues --    1.43082   1.43247   1.43680   1.44054   1.44306
 Alpha virt. eigenvalues --    1.44717   1.45180   1.45658   1.46013   1.46149
 Alpha virt. eigenvalues --    1.46785   1.47932   1.48464   1.49167   1.49565
 Alpha virt. eigenvalues --    1.49951   1.50975   1.51570   1.52032   1.52516
 Alpha virt. eigenvalues --    1.53165   1.53818   1.54390   1.54570   1.55096
 Alpha virt. eigenvalues --    1.55349   1.55605   1.55823   1.56557   1.57406
 Alpha virt. eigenvalues --    1.57905   1.58797   1.59286   1.59784   1.60921
 Alpha virt. eigenvalues --    1.61242   1.62758   1.62910   1.63824   1.64280
 Alpha virt. eigenvalues --    1.65340   1.65606   1.66208   1.66804   1.67162
 Alpha virt. eigenvalues --    1.67565   1.68477   1.69335   1.69844   1.70129
 Alpha virt. eigenvalues --    1.70436   1.70703   1.70832   1.71977   1.72503
 Alpha virt. eigenvalues --    1.73109   1.73562   1.74392   1.74811   1.75999
 Alpha virt. eigenvalues --    1.76680   1.76750   1.77305   1.77707   1.78623
 Alpha virt. eigenvalues --    1.79184   1.79567   1.80403   1.80565   1.81922
 Alpha virt. eigenvalues --    1.82606   1.83747   1.84327   1.85219   1.86349
 Alpha virt. eigenvalues --    1.86767   1.86909   1.87076   1.87880   1.88281
 Alpha virt. eigenvalues --    1.88627   1.89350   1.89704   1.90504   1.91089
 Alpha virt. eigenvalues --    1.91409   1.91793   1.93648   1.93806   1.95637
 Alpha virt. eigenvalues --    1.96010   1.97084   1.97500   1.98711   1.99115
 Alpha virt. eigenvalues --    1.99411   1.99694   2.00600   2.00847   2.01731
 Alpha virt. eigenvalues --    2.02632   2.02780   2.03344   2.03717   2.05017
 Alpha virt. eigenvalues --    2.05958   2.06095   2.07498   2.07753   2.08160
 Alpha virt. eigenvalues --    2.08291   2.09284   2.10328   2.11234   2.11566
 Alpha virt. eigenvalues --    2.12240   2.12633   2.13242   2.14268   2.15085
 Alpha virt. eigenvalues --    2.15434   2.16546   2.17221   2.18406   2.19004
 Alpha virt. eigenvalues --    2.19240   2.20130   2.20528   2.21842   2.22320
 Alpha virt. eigenvalues --    2.22975   2.25209   2.25984   2.26734   2.29192
 Alpha virt. eigenvalues --    2.31793   2.32635   2.33722   2.34678   2.37764
 Alpha virt. eigenvalues --    2.38116   2.39143   2.40236   2.41383   2.43410
 Alpha virt. eigenvalues --    2.43613   2.43938   2.44597   2.45672   2.45987
 Alpha virt. eigenvalues --    2.46752   2.47727   2.47840   2.48857   2.49733
 Alpha virt. eigenvalues --    2.50376   2.51589   2.52540   2.52718   2.53430
 Alpha virt. eigenvalues --    2.53827   2.54178   2.54982   2.55684   2.56583
 Alpha virt. eigenvalues --    2.57590   2.57969   2.58584   2.59257   2.61197
 Alpha virt. eigenvalues --    2.62203   2.63504   2.64083   2.64915   2.66362
 Alpha virt. eigenvalues --    2.67194   2.67373   2.67999   2.68554   2.68885
 Alpha virt. eigenvalues --    2.69419   2.70333   2.70927   2.71315   2.71676
 Alpha virt. eigenvalues --    2.72416   2.72745   2.73190   2.74454   2.75153
 Alpha virt. eigenvalues --    2.76569   2.77336   2.77969   2.78655   2.80829
 Alpha virt. eigenvalues --    2.81320   2.82315   2.82900   2.83249   2.83455
 Alpha virt. eigenvalues --    2.83766   2.84373   2.85624   2.86354   2.86645
 Alpha virt. eigenvalues --    2.87251   2.88157   2.88461   2.89662   2.90309
 Alpha virt. eigenvalues --    2.90532   2.91810   2.92501   2.92740   2.94635
 Alpha virt. eigenvalues --    2.94867   2.95267   2.96127   2.96983   2.98953
 Alpha virt. eigenvalues --    3.00573   3.02307   3.02846   3.03262   3.03872
 Alpha virt. eigenvalues --    3.05709   3.06274   3.06553   3.08629   3.09042
 Alpha virt. eigenvalues --    3.10839   3.12341   3.12948   3.14743   3.14884
 Alpha virt. eigenvalues --    3.16660   3.16943   3.18680   3.20935   3.21515
 Alpha virt. eigenvalues --    3.22729   3.23023   3.23487   3.25175   3.26982
 Alpha virt. eigenvalues --    3.29171   3.29578   3.30631   3.31820   3.33472
 Alpha virt. eigenvalues --    3.33816   3.34200   3.34331   3.36065   3.37789
 Alpha virt. eigenvalues --    3.38096   3.40230   3.40561   3.42387   3.42964
 Alpha virt. eigenvalues --    3.43524   3.45097   3.45631   3.48398   3.49022
 Alpha virt. eigenvalues --    3.50852   3.53394   3.55599   3.57797   3.59577
 Alpha virt. eigenvalues --    3.60514   3.61269   3.64538   3.65611   3.66329
 Alpha virt. eigenvalues --    3.68539   3.70276   3.73320   3.74830   3.75558
 Alpha virt. eigenvalues --    3.77770   3.77831   3.81172   3.83026   3.84350
 Alpha virt. eigenvalues --    3.85061   3.85146   3.89305   3.90640   3.92656
 Alpha virt. eigenvalues --    3.93463   3.94652   3.96847   4.00935   4.02341
 Alpha virt. eigenvalues --    4.03909   4.07881   4.10117   4.12198   4.13840
 Alpha virt. eigenvalues --    4.19876   4.23814   4.25094   4.26546   4.34625
 Alpha virt. eigenvalues --    4.38275   4.40564   4.51072   4.68036   4.84680
 Alpha virt. eigenvalues --    4.84893   4.86998   4.89628   5.01413   5.02165
 Alpha virt. eigenvalues --    5.03434   5.04925   5.05735   5.09427   5.10971
 Alpha virt. eigenvalues --    5.12041   5.23862   5.25255   5.26532   5.28057
 Alpha virt. eigenvalues --    5.41286   5.42326   5.75152   5.75933   5.78459
 Alpha virt. eigenvalues --    5.79933   5.81460   5.81878   8.01923   8.05412
 Alpha virt. eigenvalues --   17.28667  17.32359  17.49154  17.52168  17.57263
 Alpha virt. eigenvalues --   17.63128  23.48665  23.55821  23.71575  23.79506
 Alpha virt. eigenvalues --   23.82107  23.82432  23.84460  23.86765  23.86870
 Alpha virt. eigenvalues --   23.87936  23.88621  23.91228  23.92212  23.93617
 Alpha virt. eigenvalues --   23.94959  23.95957  23.96380  23.99770  24.01180
 Alpha virt. eigenvalues --   24.01798  24.02301  24.05308  24.10211  24.13207
 Alpha virt. eigenvalues --   24.14571  24.14973  35.55394  35.57797  49.95963
 Alpha virt. eigenvalues --   49.97621  50.01437  50.02768  50.04867  50.06101
 Alpha virt. eigenvalues --  189.19164 189.23472
          Condensed to atoms (all electrons):
 Mulliken charges:
               1
     1  C    0.428448
     2  C   -0.071964
     3  C    0.142914
     4  C    0.254728
     5  C    0.281013
     6  C    0.053807
     7  C    0.111903
     8  C    0.369658
     9  C    0.282048
    10  C   -0.620084
    11  C    0.372633
    12  C    0.067147
    13  C   -0.495570
    14  C   -0.595645
    15  H    0.164784
    16  H    0.165085
    17  H    0.165414
    18  N    0.049047
    19  N   -0.113983
    20  O   -0.347263
    21  O   -0.334883
    22  O   -0.357541
    23  O   -0.288598
    24  C   -0.210084
    25  H    0.191207
    26  H    0.183015
    27  H    0.180615
    28  C   -0.211602
    29  H    0.186644
    30  H    0.180242
    31  H    0.179861
    32  C    0.069302
    33  C   -0.660880
    34  S   -0.704206
    35  C   -0.244602
    36  H    0.165229
    37  C    0.717295
    38  O   -0.160637
    39  C    0.868702
    40  C   -0.240899
    41  C   -0.010109
    42  S   -0.215237
    43  H    0.178823
    44  H    0.163317
    45  H    0.166659
    46  C   -0.596584
    47  O   -0.154554
    48  C   -0.311104
    49  H    0.164000
    50  C   -0.254334
    51  H    0.192799
    52  H    0.163544
    53  H    0.176266
    54  H    0.164212
 Sum of Mulliken charges =  -0.00000
 Mulliken charges with hydrogens summed into heavy atoms:
               1
     1  C    0.428448
     2  C   -0.071964
     3  C    0.142914
     4  C    0.254728
     5  C    0.281013
     6  C    0.219221
     7  C    0.111903
     8  C    0.369658
     9  C    0.282048
    10  C   -0.620084
    11  C    0.372633
    12  C    0.067147
    13  C   -0.330486
    14  C   -0.430861
    18  N    0.049047
    19  N   -0.113983
    20  O   -0.347263
    21  O   -0.334883
    22  O   -0.357541
    23  O   -0.288598
    24  C    0.344752
    28  C    0.335144
    32  C    0.069302
    33  C   -0.495651
    34  S   -0.704206
    35  C   -0.244602
    37  C    0.717295
    38  O   -0.160637
    39  C    0.868702
    40  C    0.267899
    41  C   -0.010109
    42  S   -0.215237
    46  C   -0.432584
    47  O   -0.154554
    48  C   -0.118305
    50  C    0.249689
 Electronic spatial extent (au):  <R**2>=          21974.8961
 Charge=             -0.0000 electrons
 Dipole moment (field-independent basis, Debye):
    X=              5.6876    Y=             -1.1913    Z=             -1.3156  Tot=              5.9580
 Quadrupole moment (field-independent basis, Debye-Ang):
   XX=           -206.8265   YY=           -215.0493   ZZ=           -220.0342
   XY=             13.9857   XZ=            -15.8078   YZ=            -14.3576
 Traceless Quadrupole moment (field-independent basis, Debye-Ang):
   XX=              7.1435   YY=             -1.0793   ZZ=             -6.0642
   XY=             13.9857   XZ=            -15.8078   YZ=            -14.3576
 Octapole moment (field-independent basis, Debye-Ang**2):
  XXX=            445.5877  YYY=            -68.2465  ZZZ=             -7.1938  XYY=            138.0183
  XXY=             34.8423  XXZ=            -47.7740  XZZ=             17.9615  YZZ=             -4.3720
  YYZ=             14.8252  XYZ=            -56.0942
 Hexadecapole moment (field-independent basis, Debye-Ang**3):
 XXXX=         -20429.9470 YYYY=          -7425.9941 ZZZZ=          -1188.4444 XXXY=            337.0195
 XXXZ=           -839.5311 YYYX=            458.6223 YYYZ=           -106.1782 ZZZX=            -18.2808
 ZZZY=            -53.0115 XXYY=          -4423.1890 XXZZ=          -3729.5839 YYZZ=          -1283.7378
 XXYZ=           -279.5671 YYXZ=             38.6882 ZZXY=             61.9993
 N-N= 4.106405850667D+03 E-N=-1.375314735493D+04  KE= 2.351994804735D+03
 Unable to Open any file for archive entry.
 1\1\GINC-CX3-6-21\FOpt\RB3LYP\6-311+G(d,p)\C26H18N2O6S2\NS5018\28-Oct-
 2021\0\\# opt=modredundant b3lyp/6-311+g(d,p) scrf=(pcm, solvent=water
 )\\NDI_160.pdb\\0,1\C,-2.3916521813,-2.8575347838,-0.5752312751\C,-2.1
 611450366,-1.4416412873,-0.1947005647\C,-3.2475457219,-0.5383298696,-0
 .1300493729\C,-4.5553327446,-0.9607568732,-0.4386936785\C,-4.810820321
 2,-2.3702446922,-0.8311908025\C,-0.8837210213,-1.000811629,0.040599733
 6\C,-2.9952961491,0.8039242225,0.2596474345\C,-1.6735668417,1.23085270
 77,0.5712336471\C,-0.5845335969,0.3494379129,0.3871227584\C,-1.5314875
 116,2.5484328563,1.2375339071\C,-3.8929368906,3.1048448111,0.723257332
 8\C,-4.094107932,1.6961416993,0.319221627\C,-5.3728037903,1.2644272271
 ,-0.0028913518\C,-5.6097084831,-0.0619336736,-0.3788911333\H,-6.609687
 5349,-0.3954940638,-0.6219494073\H,-6.1890258184,1.9734119246,0.043582
 2883\H,-0.0738627651,-1.7037404446,-0.0950233863\N,-2.6101386586,3.444
 5857448,1.1451238496\N,-3.7068117034,-3.2339961479,-0.8562922477\O,-1.
 48917095,-3.6778692009,-0.6451408709\O,-5.9283289282,-2.7704269826,-1.
 1167628347\O,-4.799054642,3.9276648024,0.7194724619\O,-0.5465914312,2.
 8751463674,1.882120225\C,-2.3951812095,4.7956836201,1.6849909817\H,-2.
 4900306333,4.7941977451,2.7727730371\H,-1.3958642355,5.1288418694,1.41
 71213292\H,-3.1442543741,5.4540400286,1.2568644376\C,-3.919376793,-4.6
 425037399,-1.2243632365\H,-3.4076677284,-4.8629079713,-2.1616199053\H,
 -3.5192817786,-5.2866552732,-0.4426073717\H,-4.9857067265,-4.804671274
 6,-1.3368142341\C,0.8325790633,0.7006288243,0.3741692986\C,1.885876912
 6,-0.1772771927,0.5821180581\S,1.4290171898,2.2211672056,-0.2505070547
 \C,3.1469353739,0.3733451323,0.2871102088\H,1.750434721,-1.176822068,0
 .9677243355\C,3.0954274022,1.6789543972,-0.2073143758\O,4.3520754101,-
 0.235389534,0.4318966024\C,4.1909278956,2.506605495,-0.6237336381\C,4.
 3696384319,-1.5896052286,0.8993055527\C,4.1366812659,3.8050658677,-1.1
 271572553\S,5.8718132061,1.976775586,-0.5607143565\H,5.4179034826,-1.8
 780740943,0.9326425342\H,3.9376655342,-1.6611938689,1.9010283901\H,3.8
 297375902,-2.2458050604,0.211415201\C,5.4076867729,4.3580077751,-1.449
 3233199\O,2.9359377702,4.4156999803,-1.2684266452\C,6.4265283293,3.483
 3303188,-1.1947193955\H,5.5607284884,5.3493737614,-1.8495407179\C,2.91
 39792946,5.7611222072,-1.7650310687\H,7.4838719809,3.6395959907,-1.345
 7754908\H,3.3324374616,5.8089932847,-2.7734020215\H,1.8656159395,6.049
 6759966,-1.7898619678\H,3.464194616,6.4297095923,-1.0983462513\\Versio
 n=ES64L-G16RevC.01\State=1-A\HF=-2359.3583633\RMSD=4.969e-09\RMSF=4.68
 4e-04\Dipole=2.1925813,0.5241521,-0.6423\Quadrupole=-4.2579725,10.6007
 779,-6.3428053,8.7970532,-5.7291113,-13.7549404\PG=C01 [X(C26H18N2O6S2
 )]\\@
 The archive entry for this job was punched.


 MUD THROWN IS GROUND LOST -- FROM A TEA BAG
 Job cpu time:       6 days 13 hours 24 minutes 47.1 seconds.
 Elapsed time:       0 days  9 hours 58 minutes  9.3 seconds.
 File lengths (MBytes):  RWF=    853 Int=      0 D2E=      0 Chk=     65 Scr=      1
 Normal termination of Gaussian 16 at Thu Oct 28 08:45:07 2021.
