 Entering Gaussian System, Link 0=g16
 Input=NDI_10.gjf
 Output=NDI_10.log
 Initial command:
 /apps/gaussian/g16-c01-avx/g16/l1.exe "/tmp/pbs.4768611[185].pbs/Gau-1446813.inp" -scrdir="/tmp/pbs.4768611[185].pbs/"
 Entering Link 1 = /apps/gaussian/g16-c01-avx/g16/l1.exe PID=   1446814.
  
 Copyright (c) 1988-2019, Gaussian, Inc.  All Rights Reserved.
  
 This is part of the Gaussian(R) 16 program.  It is based on
 the Gaussian(R) 09 system (copyright 2009, Gaussian, Inc.),
 the Gaussian(R) 03 system (copyright 2003, Gaussian, Inc.),
 the Gaussian(R) 98 system (copyright 1998, Gaussian, Inc.),
 the Gaussian(R) 94 system (copyright 1995, Gaussian, Inc.),
 the Gaussian 92(TM) system (copyright 1992, Gaussian, Inc.),
 the Gaussian 90(TM) system (copyright 1990, Gaussian, Inc.),
 the Gaussian 88(TM) system (copyright 1988, Gaussian, Inc.),
 the Gaussian 86(TM) system (copyright 1986, Carnegie Mellon
 University), and the Gaussian 82(TM) system (copyright 1983,
 Carnegie Mellon University). Gaussian is a federally registered
 trademark of Gaussian, Inc.
  
 This software contains proprietary and confidential information,
 including trade secrets, belonging to Gaussian, Inc.
  
 This software is provided under written license and may be
 used, copied, transmitted, or stored only in accord with that
 written license.
  
 The following legend is applicable only to US Government
 contracts under FAR:
  
                    RESTRICTED RIGHTS LEGEND
  
 Use, reproduction and disclosure by the US Government is
 subject to restrictions as set forth in subparagraphs (a)
 and (c) of the Commercial Computer Software - Restricted
 Rights clause in FAR 52.227-19.
  
 Gaussian, Inc.
 340 Quinnipiac St., Bldg. 40, Wallingford CT 06492
  
  
 ---------------------------------------------------------------
 Warning -- This program may not be used in any manner that
 competes with the business of Gaussian, Inc. or will provide
 assistance to any competitor of Gaussian, Inc.  The licensee
 of this program is prohibited from giving any competitor of
 Gaussian, Inc. access to this program.  By using this program,
 the user acknowledges that Gaussian, Inc. is engaged in the
 business of creating and licensing software in the field of
 computational chemistry and represents and warrants to the
 licensee that it is not a competitor of Gaussian, Inc. and that
 it will not use this program in any manner prohibited above.
 ---------------------------------------------------------------
  

 Cite this work as:
 Gaussian 16, Revision C.01,
 M. J. Frisch, G. W. Trucks, H. B. Schlegel, G. E. Scuseria, 
 M. A. Robb, J. R. Cheeseman, G. Scalmani, V. Barone, 
 G. A. Petersson, H. Nakatsuji, X. Li, M. Caricato, A. V. Marenich, 
 J. Bloino, B. G. Janesko, R. Gomperts, B. Mennucci, H. P. Hratchian, 
 J. V. Ortiz, A. F. Izmaylov, J. L. Sonnenberg, D. Williams-Young, 
 F. Ding, F. Lipparini, F. Egidi, J. Goings, B. Peng, A. Petrone, 
 T. Henderson, D. Ranasinghe, V. G. Zakrzewski, J. Gao, N. Rega, 
 G. Zheng, W. Liang, M. Hada, M. Ehara, K. Toyota, R. Fukuda, 
 J. Hasegawa, M. Ishida, T. Nakajima, Y. Honda, O. Kitao, H. Nakai, 
 T. Vreven, K. Throssell, J. A. Montgomery, Jr., J. E. Peralta, 
 F. Ogliaro, M. J. Bearpark, J. J. Heyd, E. N. Brothers, K. N. Kudin, 
 V. N. Staroverov, T. A. Keith, R. Kobayashi, J. Normand, 
 K. Raghavachari, A. P. Rendell, J. C. Burant, S. S. Iyengar, 
 J. Tomasi, M. Cossi, J. M. Millam, M. Klene, C. Adamo, R. Cammi, 
 J. W. Ochterski, R. L. Martin, K. Morokuma, O. Farkas, 
 J. B. Foresman, and D. J. Fox, Gaussian, Inc., Wallingford CT, 2019.
 
 ******************************************
 Gaussian 16:  ES64L-G16RevC.01  3-Jul-2019
                27-Oct-2021 
 ******************************************
 %mem=100GB
 %nprocshared=16
 Will use up to   16 processors via shared memory.
 ---------------------------------------------------------------
 # opt=modredundant b3lyp/6-311+g(d,p) scrf=(pcm, solvent=water)
 ---------------------------------------------------------------
 1/18=120,19=15,26=3,38=1/1,3;
 2/9=110,12=2,17=6,18=5,40=1/2;
 3/5=4,6=6,7=111,11=2,25=1,30=1,70=2201,71=1,72=1,74=-5/1,2,3;
 4//1;
 5/5=2,38=5,53=1/2;
 6/7=2,8=2,9=2,10=2,28=1/1;
 7//1,2,3,16;
 1/18=20,19=15,26=3/3(2);
 2/9=110/2;
 99//99;
 2/9=110/2;
 3/5=4,6=6,7=111,11=2,25=1,30=1,70=2205,71=1,72=1,74=-5/1,2,3;
 4/5=5,16=3,69=1/1;
 5/5=2,38=5,53=1/2;
 7//1,2,3,16;
 1/18=20,19=15,26=3/3(-5);
 2/9=110/2;
 6/7=2,8=2,9=2,10=2,19=2,28=1/1;
 99/9=1/99;
 ----------
 NDI_10.pdb
 ----------
 Symbolic Z-matrix:
 Charge =  0 Multiplicity = 1
 C                    -2.563    -2.994    -0.409 
 C                    -2.257    -1.551    -0.224 
 C                    -3.301    -0.607    -0.083 
 C                    -4.65     -1.024    -0.115 
 C                    -4.992    -2.459    -0.304 
 C                    -0.949    -1.137    -0.215 
 C                    -2.962     0.764     0.102 
 C                    -1.595     1.188     0.123 
 C                    -0.561     0.232    -0.072 
 C                    -1.328     2.616     0.446 
 C                    -3.777     3.115     0.508 
 C                    -4.035     1.679     0.268 
 C                    -5.356     1.252     0.23 
 C                    -5.672    -0.098     0.036 
 H                    -6.699    -0.442     0.008 
 H                    -6.133     1.997     0.361 
 H                    -0.19     -1.895    -0.369 
 N                    -2.432     3.476     0.608 
 N                    -3.916    -3.353    -0.438 
 O                    -1.695    -3.847    -0.532 
 O                    -6.149    -2.85     -0.34 
 O                    -4.676     3.938     0.629 
 O                    -0.212     3.097     0.596 
 C                    -2.111     4.875     0.912 
 H                    -1.54      4.931     1.84 
 H                    -1.5       5.299     0.111 
 H                    -3.05      5.414     1.003 
 C                    -4.206    -4.779    -0.625 
 H                    -3.759    -5.126    -1.559 
 H                    -3.775    -5.355     0.196 
 H                    -5.286    -4.897    -0.649 
 C                     0.876     0.482    -0.178 
 C                     1.614     1.626     0.057 
 S                     1.911    -0.78     -0.847 
 C                     2.975     1.497    -0.284 
 H                     1.184     2.524     0.47 
 C                     3.329     0.241    -0.787 
 O                     3.933     2.455    -0.166 
 C                     4.634    -0.211    -1.18 
 C                     3.57      3.671     0.482 
 C                     4.981    -1.455    -1.704 
 S                     6.077     0.791    -1.054 
 H                     4.484     4.261     0.546 
 H                     2.822     4.223    -0.1 
 H                     3.181     3.483     1.49 
 C                     6.367    -1.599    -1.995 
 O                     4.014    -2.393    -1.884 
 C                     7.073    -0.466    -1.693 
 H                     6.816    -2.493    -2.406 
 C                     4.392    -3.641    -2.454 
 H                     8.134    -0.3      -1.816 
 H                     5.115    -4.166    -1.817 
 H                     3.478    -4.229    -2.523 
 H                     4.818    -3.508    -3.455 
 
 The following ModRedundant input section has been read:
 D       8       9      32      33 F                                           
 

 GradGradGradGradGradGradGradGradGradGradGradGradGradGradGradGradGradGrad
 Berny optimization.
 Initialization pass.
                           ----------------------------
                           !    Initial Parameters    !
                           ! (Angstroms and Degrees)  !
 --------------------------                            --------------------------
 ! Name  Definition              Value          Derivative Info.                !
 --------------------------------------------------------------------------------
 ! R1    R(1,2)                  1.4866         estimate D2E/DX2                !
 ! R2    R(1,19)                 1.4001         estimate D2E/DX2                !
 ! R3    R(1,20)                 1.2232         estimate D2E/DX2                !
 ! R4    R(2,3)                  1.4146         estimate D2E/DX2                !
 ! R5    R(2,6)                  1.372          estimate D2E/DX2                !
 ! R6    R(3,4)                  1.4123         estimate D2E/DX2                !
 ! R7    R(3,7)                  1.4244         estimate D2E/DX2                !
 ! R8    R(4,5)                  1.4872         estimate D2E/DX2                !
 ! R9    R(4,14)                 1.3874         estimate D2E/DX2                !
 ! R10   R(5,19)                 1.4053         estimate D2E/DX2                !
 ! R11   R(5,21)                 1.2218         estimate D2E/DX2                !
 ! R12   R(6,9)                  1.4301         estimate D2E/DX2                !
 ! R13   R(6,17)                 1.0837         estimate D2E/DX2                !
 ! R14   R(7,8)                  1.4314         estimate D2E/DX2                !
 ! R15   R(7,12)                 1.4199         estimate D2E/DX2                !
 ! R16   R(8,9)                  1.4217         estimate D2E/DX2                !
 ! R17   R(8,10)                 1.4882         estimate D2E/DX2                !
 ! R18   R(9,32)                 1.4624         estimate D2E/DX2                !
 ! R19   R(10,18)                1.4088         estimate D2E/DX2                !
 ! R20   R(10,23)                1.2245         estimate D2E/DX2                !
 ! R21   R(11,12)                1.4786         estimate D2E/DX2                !
 ! R22   R(11,18)                1.3962         estimate D2E/DX2                !
 ! R23   R(11,22)                1.2248         estimate D2E/DX2                !
 ! R24   R(12,13)                1.3888         estimate D2E/DX2                !
 ! R25   R(13,14)                1.4            estimate D2E/DX2                !
 ! R26   R(13,16)                1.0844         estimate D2E/DX2                !
 ! R27   R(14,15)                1.0834         estimate D2E/DX2                !
 ! R28   R(18,24)                1.4672         estimate D2E/DX2                !
 ! R29   R(19,28)                1.4672         estimate D2E/DX2                !
 ! R30   R(24,25)                1.091          estimate D2E/DX2                !
 ! R31   R(24,26)                1.093          estimate D2E/DX2                !
 ! R32   R(24,27)                1.0865         estimate D2E/DX2                !
 ! R33   R(28,29)                1.0921         estimate D2E/DX2                !
 ! R34   R(28,30)                1.0916         estimate D2E/DX2                !
 ! R35   R(28,31)                1.0867         estimate D2E/DX2                !
 ! R36   R(32,33)                1.3815         estimate D2E/DX2                !
 ! R37   R(32,34)                1.7639         estimate D2E/DX2                !
 ! R38   R(33,35)                1.409          estimate D2E/DX2                !
 ! R39   R(33,36)                1.0779         estimate D2E/DX2                !
 ! R40   R(34,37)                1.7484         estimate D2E/DX2                !
 ! R41   R(35,37)                1.3985         estimate D2E/DX2                !
 ! R42   R(35,38)                1.3599         estimate D2E/DX2                !
 ! R43   R(37,39)                1.4359         estimate D2E/DX2                !
 ! R44   R(38,40)                1.4249         estimate D2E/DX2                !
 ! R45   R(39,41)                1.3937         estimate D2E/DX2                !
 ! R46   R(39,42)                1.7613         estimate D2E/DX2                !
 ! R47   R(40,43)                1.0898         estimate D2E/DX2                !
 ! R48   R(40,44)                1.0968         estimate D2E/DX2                !
 ! R49   R(40,45)                1.0967         estimate D2E/DX2                !
 ! R50   R(41,46)                1.4235         estimate D2E/DX2                !
 ! R51   R(41,47)                1.3592         estimate D2E/DX2                !
 ! R52   R(42,48)                1.7264         estimate D2E/DX2                !
 ! R53   R(46,48)                1.3687         estimate D2E/DX2                !
 ! R54   R(46,49)                1.0816         estimate D2E/DX2                !
 ! R55   R(47,50)                1.4231         estimate D2E/DX2                !
 ! R56   R(48,51)                1.0809         estimate D2E/DX2                !
 ! R57   R(50,52)                1.0973         estimate D2E/DX2                !
 ! R58   R(50,53)                1.089          estimate D2E/DX2                !
 ! R59   R(50,54)                1.096          estimate D2E/DX2                !
 ! A1    A(2,1,19)             116.767          estimate D2E/DX2                !
 ! A2    A(2,1,20)             122.9113         estimate D2E/DX2                !
 ! A3    A(19,1,20)            120.3217         estimate D2E/DX2                !
 ! A4    A(1,2,3)              120.5473         estimate D2E/DX2                !
 ! A5    A(1,2,6)              119.3369         estimate D2E/DX2                !
 ! A6    A(3,2,6)              120.1056         estimate D2E/DX2                !
 ! A7    A(2,3,4)              120.3743         estimate D2E/DX2                !
 ! A8    A(2,3,7)              118.662          estimate D2E/DX2                !
 ! A9    A(4,3,7)              120.9617         estimate D2E/DX2                !
 ! A10   A(3,4,5)              120.4909         estimate D2E/DX2                !
 ! A11   A(3,4,14)             120.2702         estimate D2E/DX2                !
 ! A12   A(5,4,14)             119.2382         estimate D2E/DX2                !
 ! A13   A(4,5,19)             116.7341         estimate D2E/DX2                !
 ! A14   A(4,5,21)             122.024          estimate D2E/DX2                !
 ! A15   A(19,5,21)            121.2418         estimate D2E/DX2                !
 ! A16   A(2,6,9)              123.2421         estimate D2E/DX2                !
 ! A17   A(2,6,17)             117.1119         estimate D2E/DX2                !
 ! A18   A(9,6,17)             119.589          estimate D2E/DX2                !
 ! A19   A(3,7,8)              120.9519         estimate D2E/DX2                !
 ! A20   A(3,7,12)             117.1037         estimate D2E/DX2                !
 ! A21   A(8,7,12)             121.944          estimate D2E/DX2                !
 ! A22   A(7,8,9)              119.5639         estimate D2E/DX2                !
 ! A23   A(7,8,10)             117.3064         estimate D2E/DX2                !
 ! A24   A(9,8,10)             122.9922         estimate D2E/DX2                !
 ! A25   A(6,9,8)              117.3944         estimate D2E/DX2                !
 ! A26   A(6,9,32)             115.0236         estimate D2E/DX2                !
 ! A27   A(8,9,32)             127.5648         estimate D2E/DX2                !
 ! A28   A(8,10,18)            118.042          estimate D2E/DX2                !
 ! A29   A(8,10,23)            124.5436         estimate D2E/DX2                !
 ! A30   A(18,10,23)           117.4097         estimate D2E/DX2                !
 ! A31   A(12,11,18)           115.5202         estimate D2E/DX2                !
 ! A32   A(12,11,22)           122.7205         estimate D2E/DX2                !
 ! A33   A(18,11,22)           121.7534         estimate D2E/DX2                !
 ! A34   A(7,12,11)            120.8614         estimate D2E/DX2                !
 ! A35   A(7,12,13)            121.162          estimate D2E/DX2                !
 ! A36   A(11,12,13)           117.9699         estimate D2E/DX2                !
 ! A37   A(12,13,14)           120.9948         estimate D2E/DX2                !
 ! A38   A(12,13,16)           117.8401         estimate D2E/DX2                !
 ! A39   A(14,13,16)           121.1642         estimate D2E/DX2                !
 ! A40   A(4,14,13)            119.5003         estimate D2E/DX2                !
 ! A41   A(4,14,15)            118.9169         estimate D2E/DX2                !
 ! A42   A(13,14,15)           121.5811         estimate D2E/DX2                !
 ! A43   A(10,18,11)           126.0753         estimate D2E/DX2                !
 ! A44   A(10,18,24)           115.7508         estimate D2E/DX2                !
 ! A45   A(11,18,24)           118.1737         estimate D2E/DX2                !
 ! A46   A(1,19,5)             125.0856         estimate D2E/DX2                !
 ! A47   A(1,19,28)            116.2868         estimate D2E/DX2                !
 ! A48   A(5,19,28)            118.6276         estimate D2E/DX2                !
 ! A49   A(18,24,25)           109.8574         estimate D2E/DX2                !
 ! A50   A(18,24,26)           109.8979         estimate D2E/DX2                !
 ! A51   A(18,24,27)           107.5355         estimate D2E/DX2                !
 ! A52   A(25,24,26)           108.1108         estimate D2E/DX2                !
 ! A53   A(25,24,27)           110.8301         estimate D2E/DX2                !
 ! A54   A(26,24,27)           110.6124         estimate D2E/DX2                !
 ! A55   A(19,28,29)           109.6906         estimate D2E/DX2                !
 ! A56   A(19,28,30)           109.8136         estimate D2E/DX2                !
 ! A57   A(19,28,31)           107.7461         estimate D2E/DX2                !
 ! A58   A(29,28,30)           108.2991         estimate D2E/DX2                !
 ! A59   A(29,28,31)           110.6959         estimate D2E/DX2                !
 ! A60   A(30,28,31)           110.5924         estimate D2E/DX2                !
 ! A61   A(9,32,33)            130.8538         estimate D2E/DX2                !
 ! A62   A(9,32,34)            118.7992         estimate D2E/DX2                !
 ! A63   A(33,32,34)           110.0912         estimate D2E/DX2                !
 ! A64   A(32,33,35)           113.5168         estimate D2E/DX2                !
 ! A65   A(32,33,36)           122.8158         estimate D2E/DX2                !
 ! A66   A(35,33,36)           123.6653         estimate D2E/DX2                !
 ! A67   A(32,34,37)            92.5831         estimate D2E/DX2                !
 ! A68   A(33,35,37)           114.4421         estimate D2E/DX2                !
 ! A69   A(33,35,38)           126.5093         estimate D2E/DX2                !
 ! A70   A(37,35,38)           119.0484         estimate D2E/DX2                !
 ! A71   A(34,37,35)           109.3605         estimate D2E/DX2                !
 ! A72   A(34,37,39)           122.9491         estimate D2E/DX2                !
 ! A73   A(35,37,39)           127.6762         estimate D2E/DX2                !
 ! A74   A(35,38,40)           117.4623         estimate D2E/DX2                !
 ! A75   A(37,39,41)           127.5998         estimate D2E/DX2                !
 ! A76   A(37,39,42)           123.089          estimate D2E/DX2                !
 ! A77   A(41,39,42)           109.3111         estimate D2E/DX2                !
 ! A78   A(38,40,43)           105.9662         estimate D2E/DX2                !
 ! A79   A(38,40,44)           111.2186         estimate D2E/DX2                !
 ! A80   A(38,40,45)           111.2269         estimate D2E/DX2                !
 ! A81   A(43,40,44)           109.31           estimate D2E/DX2                !
 ! A82   A(43,40,45)           109.6531         estimate D2E/DX2                !
 ! A83   A(44,40,45)           109.3963         estimate D2E/DX2                !
 ! A84   A(39,41,46)           114.1767         estimate D2E/DX2                !
 ! A85   A(39,41,47)           119.2512         estimate D2E/DX2                !
 ! A86   A(46,41,47)           126.5717         estimate D2E/DX2                !
 ! A87   A(39,42,48)            91.8319         estimate D2E/DX2                !
 ! A88   A(41,46,48)           111.9242         estimate D2E/DX2                !
 ! A89   A(41,46,49)           124.437          estimate D2E/DX2                !
 ! A90   A(48,46,49)           123.6388         estimate D2E/DX2                !
 ! A91   A(41,47,50)           117.9871         estimate D2E/DX2                !
 ! A92   A(42,48,46)           112.756          estimate D2E/DX2                !
 ! A93   A(42,48,51)           119.7749         estimate D2E/DX2                !
 ! A94   A(46,48,51)           127.4687         estimate D2E/DX2                !
 ! A95   A(47,50,52)           111.2267         estimate D2E/DX2                !
 ! A96   A(47,50,53)           106.0187         estimate D2E/DX2                !
 ! A97   A(47,50,54)           111.2624         estimate D2E/DX2                !
 ! A98   A(52,50,53)           109.3568         estimate D2E/DX2                !
 ! A99   A(52,50,54)           109.3996         estimate D2E/DX2                !
 ! A100  A(53,50,54)           109.505          estimate D2E/DX2                !
 ! D1    D(19,1,2,3)             0.1578         estimate D2E/DX2                !
 ! D2    D(19,1,2,6)          -178.6792         estimate D2E/DX2                !
 ! D3    D(20,1,2,3)          -179.8231         estimate D2E/DX2                !
 ! D4    D(20,1,2,6)             1.3399         estimate D2E/DX2                !
 ! D5    D(2,1,19,5)            -0.124          estimate D2E/DX2                !
 ! D6    D(2,1,19,28)          179.8267         estimate D2E/DX2                !
 ! D7    D(20,1,19,5)          179.8575         estimate D2E/DX2                !
 ! D8    D(20,1,19,28)          -0.1919         estimate D2E/DX2                !
 ! D9    D(1,2,3,4)              0.0571         estimate D2E/DX2                !
 ! D10   D(1,2,3,7)            179.5453         estimate D2E/DX2                !
 ! D11   D(6,2,3,4)            178.8851         estimate D2E/DX2                !
 ! D12   D(6,2,3,7)             -1.6266         estimate D2E/DX2                !
 ! D13   D(1,2,6,9)            178.625          estimate D2E/DX2                !
 ! D14   D(1,2,6,17)             1.3881         estimate D2E/DX2                !
 ! D15   D(3,2,6,9)             -0.2173         estimate D2E/DX2                !
 ! D16   D(3,2,6,17)          -177.4541         estimate D2E/DX2                !
 ! D17   D(2,3,4,5)             -0.3074         estimate D2E/DX2                !
 ! D18   D(2,3,4,14)           179.3968         estimate D2E/DX2                !
 ! D19   D(7,3,4,5)           -179.7837         estimate D2E/DX2                !
 ! D20   D(7,3,4,14)            -0.0795         estimate D2E/DX2                !
 ! D21   D(2,3,7,8)              1.0523         estimate D2E/DX2                !
 ! D22   D(2,3,7,12)          -178.712          estimate D2E/DX2                !
 ! D23   D(4,3,7,8)           -179.4626         estimate D2E/DX2                !
 ! D24   D(4,3,7,12)             0.7731         estimate D2E/DX2                !
 ! D25   D(3,4,5,19)             0.3343         estimate D2E/DX2                !
 ! D26   D(3,4,5,21)          -179.7799         estimate D2E/DX2                !
 ! D27   D(14,4,5,19)         -179.3729         estimate D2E/DX2                !
 ! D28   D(14,4,5,21)            0.5129         estimate D2E/DX2                !
 ! D29   D(3,4,14,13)           -0.4559         estimate D2E/DX2                !
 ! D30   D(3,4,14,15)         -179.9937         estimate D2E/DX2                !
 ! D31   D(5,4,14,13)          179.252          estimate D2E/DX2                !
 ! D32   D(5,4,14,15)           -0.2858         estimate D2E/DX2                !
 ! D33   D(4,5,19,1)            -0.1141         estimate D2E/DX2                !
 ! D34   D(4,5,19,28)          179.9364         estimate D2E/DX2                !
 ! D35   D(21,5,19,1)          179.9992         estimate D2E/DX2                !
 ! D36   D(21,5,19,28)           0.0496         estimate D2E/DX2                !
 ! D37   D(2,6,9,8)              2.5984         estimate D2E/DX2                !
 ! D38   D(2,6,9,32)          -176.0103         estimate D2E/DX2                !
 ! D39   D(17,6,9,8)           179.77           estimate D2E/DX2                !
 ! D40   D(17,6,9,32)            1.1613         estimate D2E/DX2                !
 ! D41   D(3,7,8,9)              1.3551         estimate D2E/DX2                !
 ! D42   D(3,7,8,10)          -174.5099         estimate D2E/DX2                !
 ! D43   D(12,7,8,9)          -178.8921         estimate D2E/DX2                !
 ! D44   D(12,7,8,10)            5.2428         estimate D2E/DX2                !
 ! D45   D(3,7,12,11)          178.0768         estimate D2E/DX2                !
 ! D46   D(3,7,12,13)           -0.9621         estimate D2E/DX2                !
 ! D47   D(8,7,12,11)           -1.685          estimate D2E/DX2                !
 ! D48   D(8,7,12,13)          179.2761         estimate D2E/DX2                !
 ! D49   D(7,8,9,6)             -3.0809         estimate D2E/DX2                !
 ! D50   D(7,8,9,32)           175.3285         estimate D2E/DX2                !
 ! D51   D(10,8,9,6)           172.5381         estimate D2E/DX2                !
 ! D52   D(10,8,9,32)           -9.0525         estimate D2E/DX2                !
 ! D53   D(7,8,10,18)           -4.7549         estimate D2E/DX2                !
 ! D54   D(7,8,10,23)          174.4235         estimate D2E/DX2                !
 ! D55   D(9,8,10,18)          179.5335         estimate D2E/DX2                !
 ! D56   D(9,8,10,23)           -1.2882         estimate D2E/DX2                !
 ! D57   D(6,9,32,33)         -171.5541         estimate D2E/DX2                !
 ! D58   D(6,9,32,34)           14.8907         estimate D2E/DX2                !
 ! D59   D(8,9,32,33)           10.0043         Frozen                          !
 ! D60   D(8,9,32,34)         -163.5508         estimate D2E/DX2                !
 ! D61   D(8,10,18,11)           0.7189         estimate D2E/DX2                !
 ! D62   D(8,10,18,24)        -179.4089         estimate D2E/DX2                !
 ! D63   D(23,10,18,11)       -178.5188         estimate D2E/DX2                !
 ! D64   D(23,10,18,24)          1.3535         estimate D2E/DX2                !
 ! D65   D(18,11,12,7)          -2.3856         estimate D2E/DX2                !
 ! D66   D(18,11,12,13)        176.6833         estimate D2E/DX2                !
 ! D67   D(22,11,12,7)         178.4862         estimate D2E/DX2                !
 ! D68   D(22,11,12,13)         -2.445          estimate D2E/DX2                !
 ! D69   D(12,11,18,10)          2.8444         estimate D2E/DX2                !
 ! D70   D(12,11,18,24)       -177.0251         estimate D2E/DX2                !
 ! D71   D(22,11,18,10)       -178.0181         estimate D2E/DX2                !
 ! D72   D(22,11,18,24)          2.1124         estimate D2E/DX2                !
 ! D73   D(7,12,13,14)           0.461          estimate D2E/DX2                !
 ! D74   D(7,12,13,16)        -179.8781         estimate D2E/DX2                !
 ! D75   D(11,12,13,14)       -178.6049         estimate D2E/DX2                !
 ! D76   D(11,12,13,16)          1.056          estimate D2E/DX2                !
 ! D77   D(12,13,14,4)           0.2708         estimate D2E/DX2                !
 ! D78   D(12,13,14,15)        179.7958         estimate D2E/DX2                !
 ! D79   D(16,13,14,4)        -179.3788         estimate D2E/DX2                !
 ! D80   D(16,13,14,15)          0.1463         estimate D2E/DX2                !
 ! D81   D(10,18,24,25)        -59.609          estimate D2E/DX2                !
 ! D82   D(10,18,24,26)         59.2209         estimate D2E/DX2                !
 ! D83   D(10,18,24,27)        179.6858         estimate D2E/DX2                !
 ! D84   D(11,18,24,25)        120.2739         estimate D2E/DX2                !
 ! D85   D(11,18,24,26)       -120.8962         estimate D2E/DX2                !
 ! D86   D(11,18,24,27)         -0.4313         estimate D2E/DX2                !
 ! D87   D(1,19,28,29)         -58.1407         estimate D2E/DX2                !
 ! D88   D(1,19,28,30)          60.7668         estimate D2E/DX2                !
 ! D89   D(1,19,28,31)        -178.7139         estimate D2E/DX2                !
 ! D90   D(5,19,28,29)         121.8132         estimate D2E/DX2                !
 ! D91   D(5,19,28,30)        -119.2792         estimate D2E/DX2                !
 ! D92   D(5,19,28,31)           1.2401         estimate D2E/DX2                !
 ! D93   D(9,32,33,35)        -174.2148         estimate D2E/DX2                !
 ! D94   D(9,32,33,36)           6.297          estimate D2E/DX2                !
 ! D95   D(34,32,33,35)         -0.2268         estimate D2E/DX2                !
 ! D96   D(34,32,33,36)       -179.715          estimate D2E/DX2                !
 ! D97   D(9,32,34,37)         175.3753         estimate D2E/DX2                !
 ! D98   D(33,32,34,37)          0.5621         estimate D2E/DX2                !
 ! D99   D(32,33,35,37)         -0.3558         estimate D2E/DX2                !
 ! D100  D(32,33,35,38)        179.7693         estimate D2E/DX2                !
 ! D101  D(36,33,35,37)        179.1274         estimate D2E/DX2                !
 ! D102  D(36,33,35,38)         -0.7475         estimate D2E/DX2                !
 ! D103  D(32,34,37,35)         -0.7445         estimate D2E/DX2                !
 ! D104  D(32,34,37,39)        177.9801         estimate D2E/DX2                !
 ! D105  D(33,35,37,34)          0.7635         estimate D2E/DX2                !
 ! D106  D(33,35,37,39)       -177.8843         estimate D2E/DX2                !
 ! D107  D(38,35,37,34)       -179.3515         estimate D2E/DX2                !
 ! D108  D(38,35,37,39)          2.0006         estimate D2E/DX2                !
 ! D109  D(33,35,38,40)          6.4689         estimate D2E/DX2                !
 ! D110  D(37,35,38,40)       -173.4008         estimate D2E/DX2                !
 ! D111  D(34,37,39,41)          2.7979         estimate D2E/DX2                !
 ! D112  D(34,37,39,42)       -177.2035         estimate D2E/DX2                !
 ! D113  D(35,37,39,41)       -178.7224         estimate D2E/DX2                !
 ! D114  D(35,37,39,42)          1.2762         estimate D2E/DX2                !
 ! D115  D(35,38,40,43)        175.4942         estimate D2E/DX2                !
 ! D116  D(35,38,40,44)        -65.8178         estimate D2E/DX2                !
 ! D117  D(35,38,40,45)         56.3894         estimate D2E/DX2                !
 ! D118  D(37,39,41,46)       -179.9613         estimate D2E/DX2                !
 ! D119  D(37,39,41,47)         -0.1766         estimate D2E/DX2                !
 ! D120  D(42,39,41,46)          0.0399         estimate D2E/DX2                !
 ! D121  D(42,39,41,47)        179.8246         estimate D2E/DX2                !
 ! D122  D(37,39,42,48)        179.958          estimate D2E/DX2                !
 ! D123  D(41,39,42,48)         -0.0431         estimate D2E/DX2                !
 ! D124  D(39,41,46,48)         -0.0133         estimate D2E/DX2                !
 ! D125  D(39,41,46,49)       -179.9845         estimate D2E/DX2                !
 ! D126  D(47,41,46,48)       -179.7793         estimate D2E/DX2                !
 ! D127  D(47,41,46,49)          0.2495         estimate D2E/DX2                !
 ! D128  D(39,41,47,50)        178.3519         estimate D2E/DX2                !
 ! D129  D(46,41,47,50)         -1.8927         estimate D2E/DX2                !
 ! D130  D(39,42,48,46)          0.0373         estimate D2E/DX2                !
 ! D131  D(39,42,48,51)        179.83           estimate D2E/DX2                !
 ! D132  D(41,46,48,42)         -0.0209         estimate D2E/DX2                !
 ! D133  D(41,46,48,51)       -179.7942         estimate D2E/DX2                !
 ! D134  D(49,46,48,42)        179.9505         estimate D2E/DX2                !
 ! D135  D(49,46,48,51)          0.1773         estimate D2E/DX2                !
 ! D136  D(41,47,50,52)         62.0847         estimate D2E/DX2                !
 ! D137  D(41,47,50,53)       -179.1351         estimate D2E/DX2                !
 ! D138  D(41,47,50,54)        -60.1575         estimate D2E/DX2                !
 --------------------------------------------------------------------------------
 Trust Radius=3.00D-01 FncErr=1.00D-07 GrdErr=1.00D-06 EigMax=2.50D+02 EigMin=1.00D-04
 Number of steps in this run=    307 maximum allowed number of steps=    324.
 GradGradGradGradGradGradGradGradGradGradGradGradGradGradGradGradGradGrad

 Stoichiometry    C26H18N2O6S2
 Framework group  C1[X(C26H18N2O6S2)]
 Deg. of freedom   156
 Full point group                 C1      NOp   1
 Largest Abelian subgroup         C1      NOp   1
 Largest concise Abelian subgroup C1      NOp   1
                         Standard orientation:                         
 ---------------------------------------------------------------------
 Center     Atomic      Atomic             Coordinates (Angstroms)
 Number     Number       Type             X           Y           Z
 ---------------------------------------------------------------------
      1          6           0       -2.532230   -3.013446    0.326716
      2          6           0       -2.239376   -1.559480    0.225086
      3          6           0       -3.283258   -0.629040    0.011674
      4          6           0       -4.619791   -1.069945   -0.106637
      5          6           0       -4.947694   -2.517728   -0.015460
      6          6           0       -0.940399   -1.127432    0.316376
      7          6           0       -2.958435    0.755404   -0.069522
      8          6           0       -1.602515    1.201056    0.039013
      9          6           0       -0.561387    0.246734    0.201611
     10          6           0       -1.367049    2.670230    0.068781
     11          6           0       -3.796901    3.120908   -0.309581
     12          6           0       -4.034713    1.662533   -0.256212
     13          6           0       -5.342795    1.211115   -0.374351
     14          6           0       -5.643404   -0.154388   -0.303447
     15          1           0       -6.660691   -0.516727   -0.391126
     16          1           0       -6.122790    1.950739   -0.517459
     17          1           0       -0.175272   -1.885196    0.437762
     18          7           0       -2.474060    3.522227   -0.113672
     19          7           0       -3.872544   -3.397224    0.197859
     20          8           0       -1.664239   -3.854739    0.513745
     21          8           0       -6.093186   -2.930290   -0.117771
     22          8           0       -4.695641    3.931885   -0.496006
     23          8           0       -0.276632    3.194995    0.255675
     24          6           0       -2.182823    4.960007   -0.088584
     25          1           0       -1.741531    5.232052    0.871423
     26          1           0       -1.465214    5.207983   -0.874869
     27          1           0       -3.120024    5.486656   -0.246114
     28          6           0       -4.149102   -4.834738    0.295911
     29          1           0       -3.583863   -5.371209   -0.469123
     30          1           0       -3.838498   -5.205379    1.274547
     31          1           0       -5.217157   -4.976942    0.154714
     32          6           0        0.879245    0.495997    0.235579
     33          6           0        1.590377    1.678311    0.306496
     34         16           0        1.982137   -0.861784    0.008666
     35          6           0        2.983538    1.504422    0.187720
     36          1           0        1.117751    2.636678    0.448025
     37          6           0        3.389370    0.175547    0.028803
     38          8           0        3.926538    2.483901    0.216437
     39          6           0        4.730786   -0.325894   -0.075782
     40          6           0        3.491848    3.805771    0.523084
     41          6           0        5.132632   -1.647871   -0.258585
     42         16           0        6.153704    0.708065    0.015662
     43          1           0        4.394806    4.413629    0.575680
     44          1           0        2.834705    4.199633   -0.261753
     45          1           0        2.968698    3.838283    1.486404
     46          6           0        6.543675   -1.824783   -0.322397
     47          8           0        4.189271   -2.621791   -0.352830
     48          6           0        7.213963   -0.638974   -0.188602
     49          1           0        7.034899   -2.778422   -0.460346
     50          6           0        4.627991   -3.957247   -0.575025
     51          1           0        8.283484   -0.482977   -0.202588
     52          1           0        5.253225   -4.313090    0.253577
     53          1           0        3.725726   -4.564265   -0.632894
     54          1           0        5.186303   -4.041075   -1.514401
 ---------------------------------------------------------------------
 Rotational constants (GHZ):           0.1522948           0.0606640           0.0437177
 Standard basis: 6-311+G(d,p) (5D, 7F)
 There are   952 symmetry adapted cartesian basis functions of A   symmetry.
 There are   916 symmetry adapted basis functions of A   symmetry.
   916 basis functions,  1468 primitive gaussians,   952 cartesian basis functions
   134 alpha electrons      134 beta electrons
       nuclear repulsion energy      4092.7383117113 Hartrees.
 NAtoms=   54 NActive=   54 NUniq=   54 SFac= 1.00D+00 NAtFMM=   60 NAOKFM=F Big=F
 Integral buffers will be    131072 words long.
 Raffenetti 2 integral format.
 Two-electron integral symmetry is turned on.
 ------------------------------------------------------------------------------
 Polarizable Continuum Model (PCM)
 =================================
 Model                : PCM.
 Atomic radii         : UFF (Universal Force Field).
 Polarization charges : Total charges.
 Charge compensation  : None.
 Solution method      : On-the-fly selection.
 Cavity type          : Scaled VdW (van der Waals Surface) (Alpha=1.100).
 Cavity algorithm     : GePol (No added spheres)
                        Default sphere list used, NSphG=   54.
                        Lebedev-Laikov grids with approx.  5.0 points / Ang**2.
                        Smoothing algorithm: York/Karplus (Gamma=1.0000).
                        Polarization charges: spherical gaussians, with
                                              point-specific exponents (IZeta= 3).
                        Self-potential: point-specific (ISelfS= 7).
                        Self-field    : sphere-specific E.n sum rule (ISelfD= 2).
 1st derivatives      : Analytical E(r).r(x)/FMM algorithm (CHGder, D1EAlg=3).
                        Cavity 1st derivative terms included.
 Solvent              : Water, Eps=  78.355300 Eps(inf)=   1.777849
 ------------------------------------------------------------------------------
 One-electron integrals computed using PRISM.
 NBasis=   916 RedAO= T EigKep=  1.22D-06  NBF=   916
 NBsUse=   901 1.00D-06 EigRej=  6.95D-07 NBFU=   901
 ExpMin= 4.05D-02 ExpMax= 9.34D+04 ExpMxC= 3.17D+03 IAcc=3 IRadAn=         5 AccDes= 0.00D+00
 Harris functional with IExCor=  402 and IRadAn=       5 diagonalized for initial guess.
 HarFok:  IExCor=  402 AccDes= 0.00D+00 IRadAn=         5 IDoV= 1 UseB2=F ITyADJ=14
 ICtDFT=  3500011 ScaDFX=  1.000000  1.000000  1.000000  1.000000
 FoFCou: FMM=F IPFlag=           0 FMFlag=      100000 FMFlg1=           0
         NFxFlg=           0 DoJE=T BraDBF=F KetDBF=T FulRan=T
         wScrn=  0.000000 ICntrl=       500 IOpCl=  0 I1Cent=   200000004 NGrid=           0
         NMat0=    1 NMatS0=      1 NMatT0=    0 NMatD0=    1 NMtDS0=    0 NMtDT0=    0
 Petite list used in FoFCou.
 Requested convergence on RMS density matrix=1.00D-08 within 128 cycles.
 Requested convergence on MAX density matrix=1.00D-06.
 Requested convergence on             energy=1.00D-06.
 No special actions if energy rises.
 Inv3:  Mode=1 IEnd=    52116672.
 Iteration    1 A*A^-1 deviation from unit magnitude is 8.66D-15 for   4167.
 Iteration    1 A*A^-1 deviation from orthogonality  is 2.18D-15 for   4146   4063.
 Iteration    1 A^-1*A deviation from unit magnitude is 8.66D-15 for   4167.
 Iteration    1 A^-1*A deviation from orthogonality  is 2.44D-15 for   3040    596.
 Error on total polarization charges =  0.02323
 SCF Done:  E(RB3LYP) =  -2359.33779092     A.U. after   16 cycles
            NFock= 16  Conv=0.83D-08     -V/T= 2.0031

 **********************************************************************

            Population analysis using the SCF Density.

 **********************************************************************

 Orbital symmetries:
       Occupied  (A) (A) (A) (A) (A) (A) (A) (A) (A) (A) (A) (A)
                 (A) (A) (A) (A) (A) (A) (A) (A) (A) (A) (A) (A)
                 (A) (A) (A) (A) (A) (A) (A) (A) (A) (A) (A) (A)
                 (A) (A) (A) (A) (A) (A) (A) (A) (A) (A) (A) (A)
                 (A) (A) (A) (A) (A) (A) (A) (A) (A) (A) (A) (A)
                 (A) (A) (A) (A) (A) (A) (A) (A) (A) (A) (A) (A)
                 (A) (A) (A) (A) (A) (A) (A) (A) (A) (A) (A) (A)
                 (A) (A) (A) (A) (A) (A) (A) (A) (A) (A) (A) (A)
                 (A) (A) (A) (A) (A) (A) (A) (A) (A) (A) (A) (A)
                 (A) (A) (A) (A) (A) (A) (A) (A) (A) (A) (A) (A)
                 (A) (A) (A) (A) (A) (A) (A) (A) (A) (A) (A) (A)
                 (A) (A)
       Virtual   (A) (A) (A) (A) (A) (A) (A) (A) (A) (A) (A) (A)
                 (A) (A) (A) (A) (A) (A) (A) (A) (A) (A) (A) (A)
                 (A) (A) (A) (A) (A) (A) (A) (A) (A) (A) (A) (A)
                 (A) (A) (A) (A) (A) (A) (A) (A) (A) (A) (A) (A)
                 (A) (A) (A) (A) (A) (A) (A) (A) (A) (A) (A) (A)
                 (A) (A) (A) (A) (A) (A) (A) (A) (A) (A) (A) (A)
                 (A) (A) (A) (A) (A) (A) (A) (A) (A) (A) (A) (A)
                 (A) (A) (A) (A) (A) (A) (A) (A) (A) (A) (A) (A)
                 (A) (A) (A) (A) (A) (A) (A) (A) (A) (A) (A) (A)
                 (A) (A) (A) (A) (A) (A) (A) (A) (A) (A) (A) (A)
                 (A) (A) (A) (A) (A) (A) (A) (A) (A) (A) (A) (A)
                 (A) (A) (A) (A) (A) (A) (A) (A) (A) (A) (A) (A)
                 (A) (A) (A) (A) (A) (A) (A) (A) (A) (A) (A) (A)
                 (A) (A) (A) (A) (A) (A) (A) (A) (A) (A) (A) (A)
                 (A) (A) (A) (A) (A) (A) (A) (A) (A) (A) (A) (A)
                 (A) (A) (A) (A) (A) (A) (A) (A) (A) (A) (A) (A)
                 (A) (A) (A) (A) (A) (A) (A) (A) (A) (A) (A) (A)
                 (A) (A) (A) (A) (A) (A) (A) (A) (A) (A) (A) (A)
                 (A) (A) (A) (A) (A) (A) (A) (A) (A) (A) (A) (A)
                 (A) (A) (A) (A) (A) (A) (A) (A) (A) (A) (A) (A)
                 (A) (A) (A) (A) (A) (A) (A) (A) (A) (A) (A) (A)
                 (A) (A) (A) (A) (A) (A) (A) (A) (A) (A) (A) (A)
                 (A) (A) (A) (A) (A) (A) (A) (A) (A) (A) (A) (A)
                 (A) (A) (A) (A) (A) (A) (A) (A) (A) (A) (A) (A)
                 (A) (A) (A) (A) (A) (A) (A) (A) (A) (A) (A) (A)
                 (A) (A) (A) (A) (A) (A) (A) (A) (A) (A) (A) (A)
                 (A) (A) (A) (A) (A) (A) (A) (A) (A) (A) (A) (A)
                 (A) (A) (A) (A) (A) (A) (A) (A) (A) (A) (A) (A)
                 (A) (A) (A) (A) (A) (A) (A) (A) (A) (A) (A) (A)
                 (A) (A) (A) (A) (A) (A) (A) (A) (A) (A) (A) (A)
                 (A) (A) (A) (A) (A) (A) (A) (A) (A) (A) (A) (A)
                 (A) (A) (A) (A) (A) (A) (A) (A) (A) (A) (A) (A)
                 (A) (A) (A) (A) (A) (A) (A) (A) (A) (A) (A) (A)
                 (A) (A) (A) (A) (A) (A) (A) (A) (A) (A) (A) (A)
                 (A) (A) (A) (A) (A) (A) (A) (A) (A) (A) (A) (A)
                 (A) (A) (A) (A) (A) (A) (A) (A) (A) (A) (A) (A)
                 (A) (A) (A) (A) (A) (A) (A) (A) (A) (A) (A) (A)
                 (A) (A) (A) (A) (A) (A) (A) (A) (A) (A) (A) (A)
                 (A) (A) (A) (A) (A) (A) (A) (A) (A) (A) (A) (A)
                 (A) (A) (A) (A) (A) (A) (A) (A) (A) (A) (A) (A)
                 (A) (A) (A) (A) (A) (A) (A) (A) (A) (A) (A) (A)
                 (A) (A) (A) (A) (A) (A) (A) (A) (A) (A) (A) (A)
                 (A) (A) (A) (A) (A) (A) (A) (A) (A) (A) (A) (A)
                 (A) (A) (A) (A) (A) (A) (A) (A) (A) (A) (A) (A)
                 (A) (A) (A) (A) (A) (A) (A) (A) (A) (A) (A) (A)
                 (A) (A) (A) (A) (A) (A) (A) (A) (A) (A) (A) (A)
                 (A) (A) (A) (A) (A) (A) (A) (A) (A) (A) (A) (A)
                 (A) (A) (A) (A) (A) (A) (A) (A) (A) (A) (A) (A)
                 (A) (A) (A) (A) (A) (A) (A) (A) (A) (A) (A) (A)
                 (A) (A) (A) (A) (A) (A) (A) (A) (A) (A) (A) (A)
                 (A) (A) (A) (A) (A) (A) (A) (A) (A) (A) (A) (A)
                 (A) (A) (A) (A) (A) (A) (A) (A) (A) (A) (A) (A)
                 (A) (A) (A) (A) (A) (A) (A) (A) (A) (A) (A) (A)
                 (A) (A) (A) (A) (A) (A) (A) (A) (A) (A) (A) (A)
                 (A) (A) (A) (A) (A) (A) (A) (A) (A) (A) (A) (A)
                 (A) (A) (A) (A) (A) (A) (A) (A) (A) (A) (A) (A)
                 (A) (A) (A) (A) (A) (A) (A) (A) (A) (A) (A) (A)
                 (A) (A) (A) (A) (A) (A) (A) (A) (A) (A) (A) (A)
                 (A) (A) (A) (A) (A) (A) (A) (A) (A) (A) (A) (A)
                 (A) (A) (A) (A) (A) (A) (A) (A) (A) (A) (A) (A)
                 (A) (A) (A) (A) (A) (A) (A) (A) (A) (A) (A) (A)
                 (A) (A) (A) (A) (A) (A) (A) (A) (A) (A) (A) (A)
                 (A) (A) (A) (A) (A) (A) (A) (A) (A) (A) (A) (A)
                 (A) (A) (A) (A) (A) (A) (A) (A) (A) (A) (A)
 The electronic state is 1-A.
 Alpha  occ. eigenvalues --  -88.88803 -88.88737 -19.17334 -19.16862 -19.13003
 Alpha  occ. eigenvalues --  -19.12998 -19.12411 -19.12262 -14.38894 -14.38513
 Alpha  occ. eigenvalues --  -10.31547 -10.31460 -10.31436 -10.30799 -10.25310
 Alpha  occ. eigenvalues --  -10.24480 -10.24148 -10.23040 -10.22900 -10.22891
 Alpha  occ. eigenvalues --  -10.22657 -10.22620 -10.22494 -10.22403 -10.22322
 Alpha  occ. eigenvalues --  -10.22181 -10.22162 -10.21853 -10.21658 -10.21288
 Alpha  occ. eigenvalues --  -10.20921 -10.20904 -10.20802 -10.20649 -10.19051
 Alpha  occ. eigenvalues --  -10.17195  -7.97358  -7.97327  -5.93666  -5.93650
 Alpha  occ. eigenvalues --   -5.93279  -5.93258  -5.92927  -5.92861  -1.08997
 Alpha  occ. eigenvalues --   -1.08923  -1.08813  -1.08349  -1.07158  -1.06908
 Alpha  occ. eigenvalues --   -0.96474  -0.96112  -0.92263  -0.90585  -0.88981
 Alpha  occ. eigenvalues --   -0.86559  -0.84128  -0.80511  -0.78429  -0.77787
 Alpha  occ. eigenvalues --   -0.76347  -0.75262  -0.75135  -0.73421  -0.72347
 Alpha  occ. eigenvalues --   -0.71783  -0.70154  -0.68798  -0.67510  -0.65789
 Alpha  occ. eigenvalues --   -0.65637  -0.64880  -0.61295  -0.59875  -0.58682
 Alpha  occ. eigenvalues --   -0.57408  -0.56848  -0.56354  -0.55558  -0.55190
 Alpha  occ. eigenvalues --   -0.53367  -0.51743  -0.51730  -0.50160  -0.49781
 Alpha  occ. eigenvalues --   -0.49693  -0.49046  -0.48521  -0.48349  -0.48065
 Alpha  occ. eigenvalues --   -0.47907  -0.47844  -0.46848  -0.46469  -0.46093
 Alpha  occ. eigenvalues --   -0.45487  -0.45365  -0.44519  -0.44086  -0.43120
 Alpha  occ. eigenvalues --   -0.43058  -0.42756  -0.42264  -0.42087  -0.41795
 Alpha  occ. eigenvalues --   -0.41522  -0.41205  -0.41178  -0.40628  -0.39877
 Alpha  occ. eigenvalues --   -0.39644  -0.39180  -0.38579  -0.37683  -0.37170
 Alpha  occ. eigenvalues --   -0.36366  -0.36194  -0.34400  -0.34133  -0.33567
 Alpha  occ. eigenvalues --   -0.33505  -0.32236  -0.31383  -0.30696  -0.30229
 Alpha  occ. eigenvalues --   -0.29659  -0.29374  -0.29172  -0.27891  -0.27365
 Alpha  occ. eigenvalues --   -0.26359  -0.25107  -0.24989  -0.19830
 Alpha virt. eigenvalues --   -0.13159  -0.07966  -0.06727  -0.04925  -0.03535
 Alpha virt. eigenvalues --   -0.00751  -0.00556   0.00174   0.00349   0.00521
 Alpha virt. eigenvalues --    0.00745   0.01284   0.01469   0.01548   0.01975
 Alpha virt. eigenvalues --    0.02252   0.02754   0.02861   0.02886   0.03439
 Alpha virt. eigenvalues --    0.03609   0.03841   0.04132   0.04271   0.04556
 Alpha virt. eigenvalues --    0.04790   0.04940   0.05417   0.05637   0.06002
 Alpha virt. eigenvalues --    0.06113   0.06347   0.06685   0.06961   0.07271
 Alpha virt. eigenvalues --    0.07477   0.07748   0.07839   0.07920   0.08252
 Alpha virt. eigenvalues --    0.08556   0.08699   0.08948   0.09282   0.09683
 Alpha virt. eigenvalues --    0.09802   0.10005   0.10316   0.10460   0.10808
 Alpha virt. eigenvalues --    0.11007   0.11655   0.11708   0.12033   0.12183
 Alpha virt. eigenvalues --    0.12299   0.12888   0.13074   0.13528   0.13646
 Alpha virt. eigenvalues --    0.13722   0.13888   0.13960   0.14273   0.14475
 Alpha virt. eigenvalues --    0.14536   0.14748   0.15267   0.15352   0.15485
 Alpha virt. eigenvalues --    0.15644   0.15923   0.15996   0.16213   0.16596
 Alpha virt. eigenvalues --    0.16806   0.17023   0.17304   0.17517   0.17859
 Alpha virt. eigenvalues --    0.18055   0.18143   0.18445   0.18547   0.18760
 Alpha virt. eigenvalues --    0.18927   0.19141   0.19437   0.19638   0.19667
 Alpha virt. eigenvalues --    0.19854   0.20158   0.20217   0.20377   0.20457
 Alpha virt. eigenvalues --    0.20688   0.21029   0.21205   0.21312   0.21670
 Alpha virt. eigenvalues --    0.21917   0.22035   0.22174   0.22527   0.22751
 Alpha virt. eigenvalues --    0.22928   0.23197   0.23268   0.23438   0.23654
 Alpha virt. eigenvalues --    0.23881   0.24026   0.24170   0.24440   0.24545
 Alpha virt. eigenvalues --    0.24646   0.24765   0.24968   0.25298   0.25546
 Alpha virt. eigenvalues --    0.25707   0.25855   0.26048   0.26331   0.26389
 Alpha virt. eigenvalues --    0.26651   0.26792   0.26934   0.27181   0.27440
 Alpha virt. eigenvalues --    0.27563   0.27668   0.27996   0.28243   0.28514
 Alpha virt. eigenvalues --    0.28659   0.28837   0.28976   0.29196   0.29421
 Alpha virt. eigenvalues --    0.29606   0.29995   0.30171   0.30411   0.30479
 Alpha virt. eigenvalues --    0.31170   0.31415   0.31565   0.31771   0.31881
 Alpha virt. eigenvalues --    0.32225   0.32497   0.32675   0.32994   0.33527
 Alpha virt. eigenvalues --    0.33680   0.34137   0.34174   0.34445   0.34939
 Alpha virt. eigenvalues --    0.35130   0.35396   0.35677   0.36237   0.36473
 Alpha virt. eigenvalues --    0.36697   0.36825   0.37280   0.37554   0.37711
 Alpha virt. eigenvalues --    0.38413   0.38540   0.38717   0.39307   0.39589
 Alpha virt. eigenvalues --    0.40589   0.41109   0.41296   0.41793   0.42317
 Alpha virt. eigenvalues --    0.42647   0.42974   0.43160   0.43387   0.43975
 Alpha virt. eigenvalues --    0.44377   0.44797   0.45334   0.45577   0.46010
 Alpha virt. eigenvalues --    0.46199   0.46271   0.46454   0.46804   0.47731
 Alpha virt. eigenvalues --    0.47799   0.48031   0.48508   0.48700   0.49804
 Alpha virt. eigenvalues --    0.49969   0.50617   0.50877   0.51160   0.51882
 Alpha virt. eigenvalues --    0.52421   0.52551   0.53138   0.53789   0.54159
 Alpha virt. eigenvalues --    0.54335   0.55239   0.55464   0.55906   0.56132
 Alpha virt. eigenvalues --    0.56215   0.56430   0.56657   0.56891   0.57797
 Alpha virt. eigenvalues --    0.58169   0.58630   0.58775   0.59309   0.59522
 Alpha virt. eigenvalues --    0.59939   0.60107   0.60815   0.61016   0.61133
 Alpha virt. eigenvalues --    0.61549   0.61778   0.62196   0.62633   0.62747
 Alpha virt. eigenvalues --    0.63473   0.63781   0.64449   0.64829   0.65078
 Alpha virt. eigenvalues --    0.65402   0.65496   0.65699   0.65857   0.66408
 Alpha virt. eigenvalues --    0.66576   0.66994   0.67352   0.67585   0.68116
 Alpha virt. eigenvalues --    0.68482   0.69117   0.69638   0.69769   0.70410
 Alpha virt. eigenvalues --    0.70990   0.71584   0.71803   0.72144   0.72464
 Alpha virt. eigenvalues --    0.72747   0.73189   0.73650   0.74057   0.74103
 Alpha virt. eigenvalues --    0.75042   0.75258   0.75448   0.75854   0.75960
 Alpha virt. eigenvalues --    0.76098   0.76557   0.77406   0.77438   0.77687
 Alpha virt. eigenvalues --    0.78260   0.78689   0.78887   0.79302   0.79725
 Alpha virt. eigenvalues --    0.79996   0.81194   0.82458   0.82606   0.83393
 Alpha virt. eigenvalues --    0.83935   0.84275   0.85084   0.85839   0.86230
 Alpha virt. eigenvalues --    0.86700   0.87699   0.88395   0.88731   0.88892
 Alpha virt. eigenvalues --    0.88911   0.90161   0.91045   0.91459   0.91823
 Alpha virt. eigenvalues --    0.91979   0.92291   0.92874   0.93200   0.93573
 Alpha virt. eigenvalues --    0.94042   0.94366   0.95066   0.95298   0.95600
 Alpha virt. eigenvalues --    0.96230   0.96743   0.97101   0.97655   0.97821
 Alpha virt. eigenvalues --    0.97938   0.98913   0.99216   1.00237   1.00551
 Alpha virt. eigenvalues --    1.00834   1.01375   1.01510   1.01889   1.02460
 Alpha virt. eigenvalues --    1.02998   1.03185   1.03739   1.04651   1.05042
 Alpha virt. eigenvalues --    1.05101   1.05637   1.05941   1.06466   1.06668
 Alpha virt. eigenvalues --    1.06771   1.07224   1.07815   1.08397   1.08546
 Alpha virt. eigenvalues --    1.08704   1.09462   1.10243   1.10946   1.11179
 Alpha virt. eigenvalues --    1.11875   1.12972   1.13474   1.14303   1.14749
 Alpha virt. eigenvalues --    1.15288   1.16235   1.16690   1.17135   1.17572
 Alpha virt. eigenvalues --    1.17818   1.18401   1.18632   1.20365   1.20927
 Alpha virt. eigenvalues --    1.21387   1.22042   1.24691   1.24925   1.25034
 Alpha virt. eigenvalues --    1.25356   1.25785   1.26004   1.26720   1.27303
 Alpha virt. eigenvalues --    1.28696   1.29113   1.30120   1.30669   1.31917
 Alpha virt. eigenvalues --    1.32296   1.32667   1.33634   1.35008   1.35188
 Alpha virt. eigenvalues --    1.35394   1.36251   1.37132   1.38285   1.40366
 Alpha virt. eigenvalues --    1.41714   1.42231   1.42282   1.42481   1.43199
 Alpha virt. eigenvalues --    1.43453   1.43583   1.43719   1.44222   1.44500
 Alpha virt. eigenvalues --    1.44985   1.45339   1.45688   1.45709   1.46746
 Alpha virt. eigenvalues --    1.46870   1.47827   1.48496   1.48604   1.49076
 Alpha virt. eigenvalues --    1.49841   1.51120   1.51355   1.52681   1.53037
 Alpha virt. eigenvalues --    1.54073   1.54363   1.55046   1.55180   1.55270
 Alpha virt. eigenvalues --    1.55507   1.55948   1.56454   1.56831   1.57582
 Alpha virt. eigenvalues --    1.58059   1.59239   1.60176   1.60701   1.61388
 Alpha virt. eigenvalues --    1.62424   1.62920   1.63527   1.64304   1.64399
 Alpha virt. eigenvalues --    1.65461   1.66292   1.67049   1.67655   1.67678
 Alpha virt. eigenvalues --    1.68234   1.68826   1.69342   1.69724   1.69831
 Alpha virt. eigenvalues --    1.70411   1.70790   1.71063   1.71607   1.72058
 Alpha virt. eigenvalues --    1.73574   1.73769   1.74834   1.74971   1.76156
 Alpha virt. eigenvalues --    1.76938   1.77134   1.77789   1.78655   1.78735
 Alpha virt. eigenvalues --    1.78890   1.79347   1.80624   1.82405   1.82564
 Alpha virt. eigenvalues --    1.83793   1.84610   1.85468   1.85889   1.86396
 Alpha virt. eigenvalues --    1.86894   1.87066   1.87939   1.88253   1.88540
 Alpha virt. eigenvalues --    1.89636   1.90244   1.90713   1.91306   1.92209
 Alpha virt. eigenvalues --    1.93312   1.93441   1.93578   1.94629   1.95131
 Alpha virt. eigenvalues --    1.95997   1.96358   1.97826   1.98076   1.99200
 Alpha virt. eigenvalues --    2.00326   2.00834   2.01443   2.01867   2.02445
 Alpha virt. eigenvalues --    2.03192   2.03610   2.03872   2.04340   2.05701
 Alpha virt. eigenvalues --    2.06192   2.06860   2.07274   2.07943   2.08359
 Alpha virt. eigenvalues --    2.09130   2.09841   2.11088   2.11495   2.12392
 Alpha virt. eigenvalues --    2.13591   2.13856   2.14322   2.15190   2.15714
 Alpha virt. eigenvalues --    2.16219   2.16730   2.18236   2.19167   2.19482
 Alpha virt. eigenvalues --    2.20167   2.20805   2.21912   2.22259   2.23080
 Alpha virt. eigenvalues --    2.24382   2.25431   2.26473   2.27148   2.29900
 Alpha virt. eigenvalues --    2.31882   2.32307   2.33216   2.35032   2.37445
 Alpha virt. eigenvalues --    2.38804   2.39535   2.39835   2.42227   2.43428
 Alpha virt. eigenvalues --    2.43759   2.44210   2.45108   2.45476   2.46769
 Alpha virt. eigenvalues --    2.46952   2.47601   2.48495   2.48755   2.49384
 Alpha virt. eigenvalues --    2.50467   2.51702   2.52497   2.52719   2.53086
 Alpha virt. eigenvalues --    2.53342   2.53602   2.54813   2.55232   2.56422
 Alpha virt. eigenvalues --    2.58340   2.58925   2.59149   2.59717   2.60469
 Alpha virt. eigenvalues --    2.62489   2.63247   2.63567   2.65385   2.66354
 Alpha virt. eigenvalues --    2.67065   2.67608   2.68007   2.68459   2.69132
 Alpha virt. eigenvalues --    2.69832   2.70117   2.70577   2.70703   2.71515
 Alpha virt. eigenvalues --    2.72869   2.73401   2.74455   2.75206   2.75520
 Alpha virt. eigenvalues --    2.75714   2.76466   2.78540   2.80041   2.80546
 Alpha virt. eigenvalues --    2.80815   2.81759   2.83192   2.83967   2.84349
 Alpha virt. eigenvalues --    2.84786   2.84924   2.85122   2.85500   2.86280
 Alpha virt. eigenvalues --    2.87192   2.87897   2.88702   2.89049   2.89421
 Alpha virt. eigenvalues --    2.91161   2.91613   2.92349   2.93490   2.93615
 Alpha virt. eigenvalues --    2.95201   2.95783   2.96227   2.97285   2.99928
 Alpha virt. eigenvalues --    3.01385   3.02713   3.03291   3.04393   3.04896
 Alpha virt. eigenvalues --    3.06125   3.08831   3.09291   3.10562   3.11602
 Alpha virt. eigenvalues --    3.12669   3.13544   3.14668   3.15202   3.16379
 Alpha virt. eigenvalues --    3.17937   3.18382   3.19785   3.20609   3.22438
 Alpha virt. eigenvalues --    3.23061   3.23547   3.23976   3.25449   3.27529
 Alpha virt. eigenvalues --    3.28616   3.29925   3.30685   3.32099   3.33142
 Alpha virt. eigenvalues --    3.33627   3.33762   3.34151   3.36229   3.37617
 Alpha virt. eigenvalues --    3.38831   3.40392   3.41221   3.42188   3.43312
 Alpha virt. eigenvalues --    3.44255   3.45944   3.46873   3.48868   3.49341
 Alpha virt. eigenvalues --    3.51538   3.52954   3.55911   3.57456   3.59319
 Alpha virt. eigenvalues --    3.60283   3.63649   3.65592   3.66249   3.67326
 Alpha virt. eigenvalues --    3.70310   3.72228   3.72642   3.73594   3.76861
 Alpha virt. eigenvalues --    3.77123   3.77427   3.81899   3.83335   3.85242
 Alpha virt. eigenvalues --    3.85300   3.86395   3.89611   3.92122   3.92734
 Alpha virt. eigenvalues --    3.93153   3.94255   3.98636   4.01329   4.03428
 Alpha virt. eigenvalues --    4.04980   4.08489   4.10617   4.12978   4.14567
 Alpha virt. eigenvalues --    4.21453   4.23983   4.25326   4.28971   4.35439
 Alpha virt. eigenvalues --    4.40316   4.41632   4.53925   4.72742   4.84359
 Alpha virt. eigenvalues --    4.86249   4.87571   4.90389   5.01055   5.02307
 Alpha virt. eigenvalues --    5.03116   5.04664   5.04894   5.06790   5.11015
 Alpha virt. eigenvalues --    5.13229   5.24369   5.26520   5.28858   5.37335
 Alpha virt. eigenvalues --    5.42278   5.44074   5.75291   5.76464   5.79528
 Alpha virt. eigenvalues --    5.80338   5.81552   5.84970   8.02309   8.04172
 Alpha virt. eigenvalues --   17.28478  17.30401  17.49384  17.52148  17.58183
 Alpha virt. eigenvalues --   17.63050  23.48820  23.56776  23.71506  23.78263
 Alpha virt. eigenvalues --   23.81741  23.82660  23.83820  23.86210  23.86741
 Alpha virt. eigenvalues --   23.88052  23.88948  23.91076  23.92088  23.92972
 Alpha virt. eigenvalues --   23.94692  23.95252  23.96130  23.98040  24.00658
 Alpha virt. eigenvalues --   24.01236  24.02006  24.05106  24.13100  24.13690
 Alpha virt. eigenvalues --   24.14151  24.14434  35.56180  35.59636  49.95961
 Alpha virt. eigenvalues --   49.98094  50.01489  50.03798  50.05270  50.07297
 Alpha virt. eigenvalues --  189.19724 189.22006
          Condensed to atoms (all electrons):
 Mulliken charges:
               1
     1  C    0.380892
     2  C    0.052013
     3  C    0.200516
     4  C    0.278230
     5  C    0.353183
     6  C    0.036831
     7  C    0.171626
     8  C    0.133251
     9  C    0.077041
    10  C   -0.096069
    11  C    0.179137
    12  C    0.229584
    13  C   -0.468590
    14  C   -0.714543
    15  H    0.164591
    16  H    0.166041
    17  H    0.164453
    18  N   -0.161076
    19  N   -0.103771
    20  O   -0.346265
    21  O   -0.333481
    22  O   -0.339879
    23  O   -0.302359
    24  C   -0.219365
    25  H    0.182721
    26  H    0.184626
    27  H    0.184321
    28  C   -0.213044
    29  H    0.182179
    30  H    0.183229
    31  H    0.179858
    32  C   -0.373191
    33  C   -0.228981
    34  S   -0.778617
    35  C   -0.183193
    36  H    0.253005
    37  C    0.577613
    38  O   -0.154756
    39  C    0.867267
    40  C   -0.244814
    41  C    0.024198
    42  S   -0.188378
    43  H    0.176544
    44  H    0.161941
    45  H    0.160086
    46  C   -0.587555
    47  O   -0.146133
    48  C   -0.322956
    49  H    0.164669
    50  C   -0.255852
    51  H    0.194017
    52  H    0.161953
    53  H    0.175351
    54  H    0.161902
 Sum of Mulliken charges =  -0.00000
 Mulliken charges with hydrogens summed into heavy atoms:
               1
     1  C    0.380892
     2  C    0.052013
     3  C    0.200516
     4  C    0.278230
     5  C    0.353183
     6  C    0.201284
     7  C    0.171626
     8  C    0.133251
     9  C    0.077041
    10  C   -0.096069
    11  C    0.179137
    12  C    0.229584
    13  C   -0.302549
    14  C   -0.549952
    18  N   -0.161076
    19  N   -0.103771
    20  O   -0.346265
    21  O   -0.333481
    22  O   -0.339879
    23  O   -0.302359
    24  C    0.332303
    28  C    0.332222
    32  C   -0.373191
    33  C    0.024025
    34  S   -0.778617
    35  C   -0.183193
    37  C    0.577613
    38  O   -0.154756
    39  C    0.867267
    40  C    0.253757
    41  C    0.024198
    42  S   -0.188378
    46  C   -0.422886
    47  O   -0.146133
    48  C   -0.128939
    50  C    0.243353
 Electronic spatial extent (au):  <R**2>=          22408.8406
 Charge=             -0.0000 electrons
 Dipole moment (field-independent basis, Debye):
    X=              6.0375    Y=             -0.8193    Z=             -0.0462  Tot=              6.0930
 Quadrupole moment (field-independent basis, Debye-Ang):
   XX=           -214.1075   YY=           -206.3492   ZZ=           -223.2979
   XY=             -8.0893   XZ=             -5.4048   YZ=              7.2612
 Traceless Quadrupole moment (field-independent basis, Debye-Ang):
   XX=              0.4773   YY=              8.2357   ZZ=             -8.7130
   XY=             -8.0893   XZ=             -5.4048   YZ=              7.2612
 Octapole moment (field-independent basis, Debye-Ang**2):
  XXX=            498.6214  YYY=            -23.8800  ZZZ=              2.3385  XYY=            179.2978
  XXY=           -120.8451  XXZ=              1.4190  XZZ=            -11.9137  YZZ=             -1.0400
  YYZ=              0.9842  XYZ=             15.9900
 Hexadecapole moment (field-independent basis, Debye-Ang**3):
 XXXX=         -20419.2896 YYYY=          -7917.0104 ZZZZ=           -372.8387 XXXY=           -789.9883
 XXXZ=           -207.8750 YYYX=            221.0612 YYYZ=            135.4983 ZZZX=             -5.3002
 ZZZY=              2.5610 XXYY=          -4951.7432 XXZZ=          -3754.3512 YYZZ=          -1465.3431
 XXYZ=            130.3327 YYXZ=           -109.6827 ZZXY=             27.5785
 N-N= 4.092738311711D+03 E-N=-1.372567283287D+04  KE= 2.352021410696D+03
 D1PCM: PCM CHGder 1st derivatives, ID1Alg=3 FixD1E=F DoIter=F DoCFld=F I1PDM=0.
 Calling FoFJK, ICntrl=      2127 FMM=F ISym2X=0 I1Cent= 0 IOpClX= 0 NMat=1 NMatS=1 NMatT=0.
 ***** Axes restored to original set *****
 -------------------------------------------------------------------
 Center     Atomic                   Forces (Hartrees/Bohr)
 Number     Number              X              Y              Z
 -------------------------------------------------------------------
      1        6          -0.001786404   -0.000408330    0.000714199
      2        6           0.005330564   -0.000097007   -0.001216962
      3        6          -0.002634839    0.000523542    0.000250968
      4        6           0.002500135    0.001086642    0.000346638
      5        6           0.002055889    0.000567843    0.000117726
      6        6          -0.005855064   -0.000585015   -0.004828806
      7        6          -0.000818429   -0.000008190    0.000832929
      8        6          -0.000097457    0.005696910    0.007789331
      9        6           0.009937617   -0.000471372   -0.000494645
     10        6          -0.013592060   -0.006911020   -0.002578439
     11        6           0.002754447   -0.002689362   -0.000965024
     12        6           0.001480926    0.001097602    0.000414836
     13        6          -0.001394836   -0.002113880   -0.000470073
     14        6           0.000083390    0.001920714    0.000301024
     15        1           0.000624848    0.001831272    0.000182209
     16        1           0.000140605   -0.002149586   -0.000399464
     17        1          -0.001681217    0.000377718    0.002588277
     18        7           0.000245817   -0.002016203   -0.001915972
     19        7           0.001267212    0.001869576    0.000020622
     20        8          -0.002755008    0.002612368    0.000316477
     21        8           0.002824843    0.000081466   -0.000030675
     22        8           0.001554680   -0.000539686    0.000174966
     23        8          -0.039081609    0.024239290    0.008652978
     24        6           0.001683451    0.002764268   -0.000720148
     25        1          -0.001424773    0.000132924   -0.000057136
     26        1          -0.002012729   -0.000336892    0.000946563
     27        1           0.002005199    0.000341040    0.000234773
     28        6           0.000108520   -0.002465204   -0.000721660
     29        1          -0.001513846    0.000609388    0.000700556
     30        1          -0.001221661    0.000558741   -0.000172168
     31        1           0.001735079   -0.001094350   -0.000165026
     32        6          -0.010409025    0.003168826   -0.001357389
     33        6           0.032847939   -0.003591974   -0.002265228
     34       16           0.002662778   -0.002565363   -0.000749539
     35        6          -0.001060321   -0.007758205   -0.001402049
     36        1           0.015472186   -0.014158020   -0.004847507
     37        6           0.003152129    0.001324001    0.000454428
     38        8          -0.001648175   -0.004476397   -0.000126755
     39        6          -0.002072560   -0.000942818   -0.001031405
     40        6          -0.001864199    0.006263010    0.002648391
     41        6          -0.001707173   -0.001382329    0.000214968
     42       16           0.000929794    0.000514133   -0.000372981
     43        1          -0.000805224   -0.000564471    0.000054973
     44        1           0.001371089   -0.001457769    0.000758043
     45        1           0.001286226    0.000016190   -0.001891042
     46        6          -0.000383838   -0.000213207    0.000020302
     47        8           0.002420758    0.006627666    0.001742960
     48        6          -0.000317285   -0.001354151   -0.000506834
     49        1          -0.000159671    0.001069328    0.000420700
     50        6           0.003140759   -0.007262483   -0.002423017
     51        1          -0.001036888    0.000141519    0.000385267
     52        1          -0.001773049    0.001397125   -0.000873827
     53        1           0.000542283    0.000405171   -0.000019615
     54        1          -0.001051825    0.000375014    0.001318279
 -------------------------------------------------------------------
 Cartesian Forces:  Max     0.039081609 RMS     0.005476812

 GradGradGradGradGradGradGradGradGradGradGradGradGradGradGradGradGradGrad
 Berny optimization.
 FormGI is forming the generalized inverse of G from B-inverse, IUseBI=4.
 Internal  Forces:  Max     0.137450345 RMS     0.016241153
 Search for a local minimum.
 Step number   1 out of a maximum of  307
 All quantities printed in internal units (Hartrees-Bohrs-Radians)
 Mixed Optimization -- RFO/linear search
 Second derivative matrix not updated -- first step.
 ITU=  0
     Eigenvalues ---    0.00803   0.00803   0.01176   0.01203   0.01245
     Eigenvalues ---    0.01292   0.01308   0.01311   0.01362   0.01386
     Eigenvalues ---    0.01419   0.01429   0.01457   0.01496   0.01515
     Eigenvalues ---    0.01568   0.01576   0.01577   0.01614   0.01651
     Eigenvalues ---    0.01692   0.01709   0.01711   0.01719   0.01754
     Eigenvalues ---    0.01783   0.01803   0.01847   0.01966   0.02040
     Eigenvalues ---    0.02045   0.02066   0.02078   0.02083   0.02135
     Eigenvalues ---    0.02149   0.02163   0.02176   0.02197   0.02222
     Eigenvalues ---    0.02232   0.02251   0.07556   0.07572   0.07690
     Eigenvalues ---    0.07700   0.10063   0.10067   0.10634   0.10637
     Eigenvalues ---    0.15983   0.15999   0.15999   0.16000   0.16000
     Eigenvalues ---    0.16000   0.16000   0.16000   0.16000   0.16000
     Eigenvalues ---    0.16000   0.16000   0.16000   0.16000   0.16000
     Eigenvalues ---    0.16000   0.16000   0.16000   0.22530   0.22583
     Eigenvalues ---    0.23518   0.23582   0.24516   0.24747   0.24865
     Eigenvalues ---    0.24931   0.24952   0.24985   0.24987   0.24988
     Eigenvalues ---    0.24992   0.24994   0.24997   0.24997   0.24998
     Eigenvalues ---    0.24998   0.25000   0.25000   0.25000   0.25000
     Eigenvalues ---    0.25000   0.25000   0.25000   0.25000   0.25000
     Eigenvalues ---    0.25000   0.28820   0.28921   0.30100   0.32136
     Eigenvalues ---    0.32582   0.32774   0.33111   0.33787   0.33980
     Eigenvalues ---    0.34040   0.34051   0.34131   0.34354   0.34466
     Eigenvalues ---    0.34577   0.34629   0.34693   0.34840   0.34930
     Eigenvalues ---    0.35198   0.35218   0.35468   0.35553   0.35582
     Eigenvalues ---    0.35807   0.35882   0.36078   0.36083   0.36249
     Eigenvalues ---    0.36396   0.36662   0.39352   0.40155   0.40194
     Eigenvalues ---    0.40651   0.40750   0.41524   0.41731   0.41993
     Eigenvalues ---    0.42300   0.42695   0.43455   0.43902   0.44092
     Eigenvalues ---    0.44594   0.44599   0.45014   0.45406   0.46251
     Eigenvalues ---    0.47305   0.47574   0.49310   0.49603   0.52959
     Eigenvalues ---    0.53116   0.93281   0.93432   0.93989   0.94585
     Eigenvalues --- 1000.000001000.000001000.000001000.000001000.00000
     Eigenvalues --- 1000.000001000.000001000.000001000.000001000.00000
     Eigenvalues --- 1000.000001000.000001000.000001000.000001000.00000
     Eigenvalues --- 1000.000001000.000001000.000001000.000001000.00000
     Eigenvalues --- 1000.000001000.000001000.000001000.000001000.00000
     Eigenvalues --- 1000.000001000.000001000.000001000.000001000.00000
     Eigenvalues --- 1000.000001000.000001000.000001000.000001000.00000
     Eigenvalues --- 1000.000001000.000001000.000001000.000001000.00000
     Eigenvalues --- 1000.000001000.000001000.000001000.000001000.00000
     Eigenvalues --- 1000.000001000.000001000.000001000.000001000.00000
     Eigenvalues --- 1000.000001000.000001000.000001000.000001000.00000
     Eigenvalues --- 1000.000001000.000001000.000001000.000001000.00000
     Eigenvalues --- 1000.000001000.000001000.000001000.000001000.00000
     Eigenvalues --- 1000.000001000.000001000.000001000.000001000.00000
     Eigenvalues --- 1000.000001000.000001000.000001000.000001000.00000
     Eigenvalues --- 1000.000001000.000001000.000001000.000001000.00000
     Eigenvalues --- 1000.000001000.000001000.000001000.000001000.00000
     Eigenvalues --- 1000.000001000.000001000.000001000.000001000.00000
     Eigenvalues --- 1000.000001000.000001000.000001000.000001000.00000
     Eigenvalues --- 1000.000001000.000001000.000001000.000001000.00000
     Eigenvalues --- 1000.000001000.000001000.000001000.000001000.00000
     Eigenvalues --- 1000.000001000.000001000.000001000.000001000.00000
     Eigenvalues --- 1000.000001000.000001000.000001000.000001000.00000
     Eigenvalues --- 1000.000001000.000001000.000001000.000001000.00000
     Eigenvalues --- 1000.000001000.000001000.000001000.000001000.00000
     Eigenvalues --- 1000.000001000.000001000.000001000.000001000.00000
     Eigenvalues --- 1000.000001000.000001000.000001000.000001000.00000
     Eigenvalues --- 1000.000001000.000001000.000001000.000001000.00000
     Eigenvalues --- 1000.000001000.00000
 RFO step:  Lambda=-1.75706449D-01 EMin= 8.02933640D-03
 Linear search not attempted -- first point.
 Maximum step size (   0.300) exceeded in Quadratic search.
    -- Step size scaled by   0.477
 Iteration  1 RMS(Cart)=  0.30087725 RMS(Int)=  0.00747209
 Iteration  2 RMS(Cart)=  0.10934504 RMS(Int)=  0.00074269
 Iteration  3 RMS(Cart)=  0.00254841 RMS(Int)=  0.00006004
 Iteration  4 RMS(Cart)=  0.00000044 RMS(Int)=  0.00006004
 Iteration  1 RMS(Cart)=  0.00000798 RMS(Int)=  0.00000143
 Iteration  2 RMS(Cart)=  0.00000453 RMS(Int)=  0.00000160
 Iteration  3 RMS(Cart)=  0.00000257 RMS(Int)=  0.00000181
 Iteration  4 RMS(Cart)=  0.00000146 RMS(Int)=  0.00000196
 Iteration  5 RMS(Cart)=  0.00000083 RMS(Int)=  0.00000205
 Variable       Old X    -DE/DX   Delta X   Delta X   Delta X     New X
                                 (Linear)    (Quad)   (Total)
    R1        2.80935  -0.00094   0.00000  -0.00126  -0.00125   2.80810
    R2        2.64584  -0.00816   0.00000  -0.00633  -0.00632   2.63952
    R3        2.31147  -0.00381   0.00000  -0.00163  -0.00163   2.30984
    R4        2.67311  -0.01611   0.00000  -0.01453  -0.01463   2.65848
    R5        2.59267  -0.02261   0.00000  -0.01798  -0.01802   2.57465
    R6        2.66894   0.00223   0.00000   0.00189   0.00187   2.67081
    R7        2.69164   0.00564   0.00000   0.00615   0.00613   2.69777
    R8        2.81049  -0.00146   0.00000  -0.00096  -0.00097   2.80952
    R9        2.62173  -0.00907   0.00000  -0.00749  -0.00753   2.61420
   R10        2.65570  -0.00776   0.00000  -0.00582  -0.00581   2.64989
   R11        2.30889  -0.00270   0.00000  -0.00115  -0.00115   2.30774
   R12        2.70248   0.00188   0.00000   0.00070   0.00075   2.70322
   R13        2.04786  -0.00181   0.00000  -0.00162  -0.00162   2.04623
   R14        2.70495   0.03623   0.00000   0.03401   0.03417   2.73912
   R15        2.68322   0.01009   0.00000   0.00993   0.00995   2.69317
   R16        2.68655   0.07239   0.00000   0.05954   0.05963   2.74618
   R17        2.81233   0.02607   0.00000   0.02518   0.02530   2.83763
   R18        2.76359   0.03539   0.00000   0.03110   0.03110   2.79469
   R19        2.66221  -0.00804   0.00000  -0.00723  -0.00722   2.65498
   R20        2.31391  -0.02504   0.00000  -0.01075  -0.01075   2.30316
   R21        2.79415  -0.01929   0.00000  -0.01851  -0.01864   2.77551
   R22        2.63842  -0.02371   0.00000  -0.01940  -0.01950   2.61892
   R23        2.31456  -0.00149   0.00000  -0.00064  -0.00064   2.31393
   R24        2.62448  -0.00150   0.00000  -0.00107  -0.00107   2.62341
   R25        2.64561  -0.01496   0.00000  -0.01215  -0.01219   2.63342
   R26        2.04921  -0.00163   0.00000  -0.00146  -0.00146   2.04775
   R27        2.04741  -0.00118   0.00000  -0.00106  -0.00106   2.04635
   R28        2.77259   0.00290   0.00000   0.00258   0.00258   2.77517
   R29        2.77252   0.00255   0.00000   0.00226   0.00226   2.77479
   R30        2.06176  -0.00079   0.00000  -0.00072  -0.00072   2.06104
   R31        2.06551  -0.00195   0.00000  -0.00179  -0.00179   2.06373
   R32        2.05322  -0.00154   0.00000  -0.00139  -0.00139   2.05183
   R33        2.06368  -0.00141   0.00000  -0.00129  -0.00129   2.06239
   R34        2.06281  -0.00091   0.00000  -0.00083  -0.00083   2.06199
   R35        2.05355  -0.00160   0.00000  -0.00145  -0.00145   2.05210
   R36        2.61070   0.01467   0.00000   0.01101   0.01105   2.62175
   R37        3.33333   0.01142   0.00000   0.01223   0.01227   3.34560
   R38        2.66260   0.00066   0.00000   0.00046   0.00045   2.66305
   R39        2.03694  -0.01982   0.00000  -0.01755  -0.01755   2.01939
   R40        3.30392  -0.00898   0.00000  -0.00936  -0.00938   3.29454
   R41        2.64282  -0.01065   0.00000  -0.00854  -0.00859   2.63423
   R42        2.56992  -0.00120   0.00000  -0.00081  -0.00081   2.56911
   R43        2.71344  -0.00083   0.00000  -0.00069  -0.00069   2.71275
   R44        2.69266   0.00435   0.00000   0.00350   0.00350   2.69616
   R45        2.63379   0.00027   0.00000   0.00024   0.00024   2.63403
   R46        3.32835   0.00053   0.00000   0.00061   0.00061   3.32896
   R47        2.05936  -0.00098   0.00000  -0.00089  -0.00089   2.05847
   R48        2.07262  -0.00207   0.00000  -0.00191  -0.00191   2.07071
   R49        2.07244  -0.00220   0.00000  -0.00203  -0.00203   2.07042
   R50        2.69007  -0.00118   0.00000  -0.00097  -0.00097   2.68909
   R51        2.56845  -0.00337   0.00000  -0.00227  -0.00227   2.56618
   R52        3.26238  -0.00050   0.00000  -0.00049  -0.00049   3.26189
   R53        2.58646  -0.00148   0.00000  -0.00107  -0.00107   2.58539
   R54        2.04384  -0.00111   0.00000  -0.00099  -0.00099   2.04285
   R55        2.68932   0.00549   0.00000   0.00439   0.00439   2.69371
   R56        2.04266  -0.00104   0.00000  -0.00093  -0.00093   2.04173
   R57        2.07364  -0.00234   0.00000  -0.00217  -0.00217   2.07148
   R58        2.05789  -0.00067   0.00000  -0.00061  -0.00061   2.05728
   R59        2.07110  -0.00157   0.00000  -0.00144  -0.00144   2.06965
    A1        2.03797   0.00252   0.00000   0.00170   0.00170   2.03966
    A2        2.14521  -0.00118   0.00000  -0.00076  -0.00075   2.14445
    A3        2.10001  -0.00134   0.00000  -0.00094  -0.00094   2.09907
    A4        2.10395   0.00723   0.00000   0.00971   0.00975   2.11370
    A5        2.08282  -0.00888   0.00000  -0.00679  -0.00673   2.07609
    A6        2.09624   0.00163   0.00000  -0.00295  -0.00305   2.09319
    A7        2.10093  -0.01021   0.00000  -0.01246  -0.01245   2.08848
    A8        2.07104   0.00043   0.00000  -0.00138  -0.00150   2.06955
    A9        2.11118   0.00979   0.00000   0.01385   0.01394   2.12512
   A10        2.10296   0.00467   0.00000   0.00585   0.00584   2.10880
   A11        2.09911   0.00355   0.00000   0.00338   0.00334   2.10246
   A12        2.08110  -0.00822   0.00000  -0.00923  -0.00918   2.07192
   A13        2.03739   0.00130   0.00000   0.00180   0.00177   2.03917
   A14        2.12972   0.00031   0.00000   0.00018   0.00019   2.12991
   A15        2.11607  -0.00161   0.00000  -0.00198  -0.00197   2.11410
   A16        2.15098   0.03079   0.00000   0.03313   0.03316   2.18414
   A17        2.04399  -0.01622   0.00000  -0.01775  -0.01777   2.02622
   A18        2.08722  -0.01451   0.00000  -0.01532  -0.01534   2.07188
   A19        2.11101   0.01357   0.00000   0.01582   0.01574   2.12675
   A20        2.04385  -0.02422   0.00000  -0.02886  -0.02888   2.01496
   A21        2.12832   0.01066   0.00000   0.01305   0.01314   2.14147
   A22        2.08678  -0.02691   0.00000  -0.02578  -0.02577   2.06102
   A23        2.04738  -0.04448   0.00000  -0.04792  -0.04774   1.99965
   A24        2.14662   0.07155   0.00000   0.07413   0.07392   2.22054
   A25        2.04892  -0.01963   0.00000  -0.01922  -0.01902   2.02990
   A26        2.00754  -0.11789   0.00000  -0.13337  -0.13346   1.87408
   A27        2.22643   0.13745   0.00000   0.15255   0.15245   2.37887
   A28        2.06022   0.02140   0.00000   0.02514   0.02529   2.08552
[...]
 Alpha  occ. eigenvalues --   -0.53453  -0.51737  -0.50668  -0.50125  -0.49930
 Alpha  occ. eigenvalues --   -0.49567  -0.49119  -0.48605  -0.48524  -0.48104
 Alpha  occ. eigenvalues --   -0.48086  -0.47426  -0.46835  -0.46532  -0.46168
 Alpha  occ. eigenvalues --   -0.45476  -0.45393  -0.44815  -0.44211  -0.43437
 Alpha  occ. eigenvalues --   -0.42981  -0.42702  -0.42422  -0.42136  -0.42065
 Alpha  occ. eigenvalues --   -0.41832  -0.41405  -0.41139  -0.40731  -0.39918
 Alpha  occ. eigenvalues --   -0.39646  -0.39286  -0.39029  -0.38090  -0.37294
 Alpha  occ. eigenvalues --   -0.36642  -0.36236  -0.34500  -0.34254  -0.33793
 Alpha  occ. eigenvalues --   -0.33574  -0.32109  -0.31508  -0.30782  -0.30297
 Alpha  occ. eigenvalues --   -0.29696  -0.29357  -0.28947  -0.28547  -0.27523
 Alpha  occ. eigenvalues --   -0.26267  -0.25378  -0.25051  -0.19888
 Alpha virt. eigenvalues --   -0.13150  -0.08360  -0.06556  -0.04729  -0.03667
 Alpha virt. eigenvalues --   -0.00628  -0.00561   0.00150   0.00255   0.00479
 Alpha virt. eigenvalues --    0.00653   0.01283   0.01430   0.01571   0.01952
 Alpha virt. eigenvalues --    0.02233   0.02754   0.02823   0.02874   0.03305
 Alpha virt. eigenvalues --    0.03592   0.03817   0.04031   0.04246   0.04435
 Alpha virt. eigenvalues --    0.04742   0.04931   0.05421   0.05645   0.05963
 Alpha virt. eigenvalues --    0.06058   0.06374   0.06674   0.06742   0.07147
 Alpha virt. eigenvalues --    0.07410   0.07621   0.07721   0.07985   0.08235
 Alpha virt. eigenvalues --    0.08437   0.08743   0.08819   0.09202   0.09469
 Alpha virt. eigenvalues --    0.09775   0.09910   0.10035   0.10336   0.10735
 Alpha virt. eigenvalues --    0.10898   0.11232   0.11538   0.11829   0.12111
 Alpha virt. eigenvalues --    0.12368   0.12783   0.12786   0.13192   0.13513
 Alpha virt. eigenvalues --    0.13619   0.13756   0.13963   0.14093   0.14356
 Alpha virt. eigenvalues --    0.14670   0.14784   0.15126   0.15200   0.15418
 Alpha virt. eigenvalues --    0.15677   0.15922   0.15991   0.16143   0.16416
 Alpha virt. eigenvalues --    0.16714   0.17022   0.17197   0.17588   0.17719
 Alpha virt. eigenvalues --    0.18008   0.18177   0.18301   0.18480   0.18697
 Alpha virt. eigenvalues --    0.18801   0.19025   0.19195   0.19626   0.19708
 Alpha virt. eigenvalues --    0.19970   0.20035   0.20066   0.20285   0.20514
 Alpha virt. eigenvalues --    0.20702   0.20924   0.21207   0.21318   0.21656
 Alpha virt. eigenvalues --    0.21864   0.22084   0.22264   0.22451   0.22642
 Alpha virt. eigenvalues --    0.22773   0.23110   0.23195   0.23301   0.23655
 Alpha virt. eigenvalues --    0.23874   0.23910   0.24282   0.24433   0.24542
 Alpha virt. eigenvalues --    0.24690   0.24967   0.25042   0.25441   0.25537
 Alpha virt. eigenvalues --    0.25715   0.25952   0.26155   0.26284   0.26392
 Alpha virt. eigenvalues --    0.26506   0.26666   0.27045   0.27217   0.27383
 Alpha virt. eigenvalues --    0.27540   0.27672   0.27734   0.28159   0.28366
 Alpha virt. eigenvalues --    0.28657   0.28892   0.29072   0.29234   0.29385
 Alpha virt. eigenvalues --    0.29644   0.29770   0.29994   0.30285   0.30547
 Alpha virt. eigenvalues --    0.30995   0.31110   0.31425   0.31820   0.32094
 Alpha virt. eigenvalues --    0.32228   0.32433   0.32663   0.32865   0.33158
 Alpha virt. eigenvalues --    0.33519   0.33744   0.34084   0.34262   0.34610
 Alpha virt. eigenvalues --    0.34793   0.35229   0.35436   0.35589   0.35873
 Alpha virt. eigenvalues --    0.36228   0.36740   0.36969   0.37148   0.38023
 Alpha virt. eigenvalues --    0.38291   0.38390   0.38584   0.39015   0.39385
 Alpha virt. eigenvalues --    0.39597   0.39790   0.40132   0.40466   0.41308
 Alpha virt. eigenvalues --    0.41934   0.41981   0.42456   0.42837   0.43543
 Alpha virt. eigenvalues --    0.43645   0.44028   0.44717   0.44821   0.44981
 Alpha virt. eigenvalues --    0.45582   0.45634   0.45965   0.46556   0.46924
 Alpha virt. eigenvalues --    0.47357   0.47981   0.48283   0.48687   0.49345
 Alpha virt. eigenvalues --    0.49420   0.49841   0.50301   0.50892   0.51236
 Alpha virt. eigenvalues --    0.51685   0.52659   0.52862   0.53759   0.53822
 Alpha virt. eigenvalues --    0.54397   0.54575   0.54920   0.55014   0.55481
 Alpha virt. eigenvalues --    0.55802   0.55989   0.56087   0.56465   0.57255
 Alpha virt. eigenvalues --    0.57308   0.57571   0.58097   0.58463   0.58481
 Alpha virt. eigenvalues --    0.59384   0.60376   0.60803   0.60947   0.61352
 Alpha virt. eigenvalues --    0.61391   0.61849   0.62023   0.62496   0.62718
 Alpha virt. eigenvalues --    0.63223   0.63654   0.64059   0.64748   0.65090
 Alpha virt. eigenvalues --    0.65162   0.65463   0.65760   0.66023   0.66576
 Alpha virt. eigenvalues --    0.67243   0.67574   0.67933   0.68213   0.68909
 Alpha virt. eigenvalues --    0.69103   0.69221   0.69888   0.70129   0.70169
 Alpha virt. eigenvalues --    0.70306   0.71036   0.71377   0.71716   0.71936
 Alpha virt. eigenvalues --    0.72607   0.73009   0.73238   0.73667   0.73869
 Alpha virt. eigenvalues --    0.74353   0.74706   0.74953   0.75240   0.75529
 Alpha virt. eigenvalues --    0.75765   0.76279   0.76400   0.76773   0.77022
 Alpha virt. eigenvalues --    0.77497   0.78051   0.78387   0.79131   0.79523
 Alpha virt. eigenvalues --    0.79937   0.80125   0.81000   0.81604   0.82020
 Alpha virt. eigenvalues --    0.83168   0.83911   0.84261   0.84937   0.85442
 Alpha virt. eigenvalues --    0.85569   0.86947   0.87410   0.88115   0.88835
 Alpha virt. eigenvalues --    0.89088   0.89199   0.89926   0.90939   0.91207
 Alpha virt. eigenvalues --    0.91689   0.92066   0.92262   0.92471   0.92694
 Alpha virt. eigenvalues --    0.93392   0.93915   0.94128   0.94433   0.94730
 Alpha virt. eigenvalues --    0.95502   0.96484   0.96660   0.96836   0.97455
 Alpha virt. eigenvalues --    0.98041   0.98345   0.98677   0.99549   1.00103
 Alpha virt. eigenvalues --    1.00615   1.01024   1.01377   1.01640   1.02115
 Alpha virt. eigenvalues --    1.02201   1.03417   1.03610   1.04361   1.04700
 Alpha virt. eigenvalues --    1.04827   1.05390   1.05602   1.05715   1.06156
 Alpha virt. eigenvalues --    1.06721   1.07588   1.07999   1.08130   1.08406
 Alpha virt. eigenvalues --    1.09051   1.09242   1.09773   1.10583   1.10954
 Alpha virt. eigenvalues --    1.11465   1.12220   1.13015   1.13759   1.14422
 Alpha virt. eigenvalues --    1.15347   1.16204   1.16779   1.17146   1.17842
 Alpha virt. eigenvalues --    1.18203   1.18737   1.19374   1.20000   1.20791
 Alpha virt. eigenvalues --    1.21350   1.21551   1.22456   1.23500   1.24347
 Alpha virt. eigenvalues --    1.24594   1.25095   1.26157   1.26339   1.26688
 Alpha virt. eigenvalues --    1.27970   1.28932   1.29779   1.30305   1.30945
 Alpha virt. eigenvalues --    1.31397   1.33065   1.33494   1.33997   1.34764
 Alpha virt. eigenvalues --    1.35053   1.35476   1.36264   1.36680   1.37812
 Alpha virt. eigenvalues --    1.38793   1.40975   1.41157   1.41969   1.42327
 Alpha virt. eigenvalues --    1.42853   1.43003   1.43252   1.43889   1.44188
 Alpha virt. eigenvalues --    1.44774   1.45156   1.45771   1.46405   1.46414
 Alpha virt. eigenvalues --    1.47088   1.47705   1.48200   1.49178   1.49883
 Alpha virt. eigenvalues --    1.50516   1.51275   1.51795   1.52394   1.52677
 Alpha virt. eigenvalues --    1.53338   1.53864   1.54567   1.54658   1.54928
 Alpha virt. eigenvalues --    1.55244   1.55828   1.56241   1.57275   1.57552
 Alpha virt. eigenvalues --    1.58135   1.58398   1.58798   1.60367   1.60897
 Alpha virt. eigenvalues --    1.61227   1.62326   1.62845   1.63685   1.64339
 Alpha virt. eigenvalues --    1.64480   1.65471   1.66013   1.66795   1.67077
 Alpha virt. eigenvalues --    1.68044   1.68754   1.69448   1.69734   1.69935
 Alpha virt. eigenvalues --    1.70345   1.70643   1.70805   1.71265   1.72136
 Alpha virt. eigenvalues --    1.73511   1.73993   1.74532   1.75021   1.75190
 Alpha virt. eigenvalues --    1.76099   1.76827   1.78044   1.78323   1.78935
 Alpha virt. eigenvalues --    1.78941   1.79517   1.80266   1.80865   1.82449
 Alpha virt. eigenvalues --    1.83130   1.84180   1.84576   1.85039   1.85558
 Alpha virt. eigenvalues --    1.85963   1.86857   1.87314   1.88322   1.88642
 Alpha virt. eigenvalues --    1.88923   1.89663   1.90170   1.90733   1.91215
 Alpha virt. eigenvalues --    1.92275   1.93138   1.93938   1.94315   1.95125
 Alpha virt. eigenvalues --    1.95843   1.96528   1.97011   1.97811   1.99241
 Alpha virt. eigenvalues --    1.99517   2.00129   2.01108   2.01622   2.02390
 Alpha virt. eigenvalues --    2.02496   2.03193   2.03509   2.04051   2.05262
 Alpha virt. eigenvalues --    2.05515   2.06425   2.06862   2.07130   2.07893
 Alpha virt. eigenvalues --    2.08631   2.09559   2.10110   2.10959   2.12301
 Alpha virt. eigenvalues --    2.12437   2.13805   2.13856   2.14933   2.15186
 Alpha virt. eigenvalues --    2.15627   2.16522   2.17837   2.18132   2.19201
 Alpha virt. eigenvalues --    2.20157   2.20727   2.21370   2.22311   2.22439
 Alpha virt. eigenvalues --    2.23699   2.24452   2.26152   2.26627   2.29243
 Alpha virt. eigenvalues --    2.31647   2.31708   2.34887   2.35579   2.38230
 Alpha virt. eigenvalues --    2.38578   2.39059   2.40697   2.41649   2.42959
 Alpha virt. eigenvalues --    2.43554   2.44557   2.45554   2.45698   2.46544
 Alpha virt. eigenvalues --    2.47244   2.47581   2.47957   2.48863   2.49838
 Alpha virt. eigenvalues --    2.50601   2.51692   2.52231   2.52574   2.53536
 Alpha virt. eigenvalues --    2.53995   2.54534   2.55241   2.55470   2.56900
 Alpha virt. eigenvalues --    2.57834   2.57893   2.59094   2.59481   2.60842
 Alpha virt. eigenvalues --    2.62178   2.63221   2.63806   2.64836   2.66066
 Alpha virt. eigenvalues --    2.66573   2.67206   2.68046   2.68553   2.69036
 Alpha virt. eigenvalues --    2.69427   2.69455   2.70800   2.71458   2.71599
 Alpha virt. eigenvalues --    2.72626   2.73071   2.73389   2.74571   2.75310
 Alpha virt. eigenvalues --    2.76458   2.77528   2.78289   2.79535   2.80456
 Alpha virt. eigenvalues --    2.81133   2.81474   2.82177   2.83138   2.83526
 Alpha virt. eigenvalues --    2.83991   2.84434   2.85067   2.85375   2.86226
 Alpha virt. eigenvalues --    2.86701   2.88124   2.88911   2.89684   2.90767
 Alpha virt. eigenvalues --    2.91187   2.91630   2.92187   2.93142   2.94235
 Alpha virt. eigenvalues --    2.94851   2.95053   2.95894   2.97578   3.00301
 Alpha virt. eigenvalues --    3.00870   3.01665   3.02749   3.03388   3.03611
 Alpha virt. eigenvalues --    3.05200   3.06861   3.08289   3.08611   3.09370
 Alpha virt. eigenvalues --    3.11807   3.12926   3.13675   3.14842   3.15278
 Alpha virt. eigenvalues --    3.16571   3.17140   3.18002   3.20430   3.22202
 Alpha virt. eigenvalues --    3.22795   3.23397   3.23739   3.24457   3.26527
 Alpha virt. eigenvalues --    3.28552   3.28905   3.30557   3.32253   3.33506
 Alpha virt. eigenvalues --    3.34056   3.34422   3.35237   3.35848   3.37553
 Alpha virt. eigenvalues --    3.38496   3.40283   3.40682   3.41979   3.42653
 Alpha virt. eigenvalues --    3.43545   3.45270   3.45611   3.48222   3.48807
 Alpha virt. eigenvalues --    3.50706   3.52745   3.55529   3.57836   3.59745
 Alpha virt. eigenvalues --    3.60142   3.60856   3.64333   3.65363   3.66646
 Alpha virt. eigenvalues --    3.68336   3.69518   3.73302   3.74900   3.75797
 Alpha virt. eigenvalues --    3.77677   3.77820   3.80490   3.83426   3.84621
 Alpha virt. eigenvalues --    3.85001   3.85315   3.89675   3.90729   3.92515
 Alpha virt. eigenvalues --    3.93418   3.94188   3.97078   4.01378   4.02704
 Alpha virt. eigenvalues --    4.03425   4.07910   4.10042   4.12107   4.14316
 Alpha virt. eigenvalues --    4.19830   4.23793   4.25174   4.27097   4.34863
 Alpha virt. eigenvalues --    4.38787   4.40533   4.52643   4.71091   4.83745
 Alpha virt. eigenvalues --    4.84703   4.87081   4.89525   5.00854   5.02019
 Alpha virt. eigenvalues --    5.03342   5.04961   5.06354   5.09470   5.11533
 Alpha virt. eigenvalues --    5.12158   5.24017   5.25674   5.27938   5.29131
 Alpha virt. eigenvalues --    5.41396   5.42560   5.75392   5.76225   5.78313
 Alpha virt. eigenvalues --    5.80123   5.81817   5.82596   8.02239   8.03793
 Alpha virt. eigenvalues --   17.28342  17.30039  17.49395  17.52109  17.57774
 Alpha virt. eigenvalues --   17.63521  23.48677  23.56295  23.70955  23.78891
 Alpha virt. eigenvalues --   23.82214  23.82751  23.84123  23.86911  23.87195
 Alpha virt. eigenvalues --   23.87785  23.89312  23.91227  23.92199  23.93285
 Alpha virt. eigenvalues --   23.94742  23.95177  23.95998  23.97842  24.00759
 Alpha virt. eigenvalues --   24.01821  24.01979  24.05229  24.11768  24.14595
 Alpha virt. eigenvalues --   24.14854  24.14884  35.55448  35.57886  49.95998
 Alpha virt. eigenvalues --   49.97985  50.01573  50.02594  50.04741  50.06078
 Alpha virt. eigenvalues --  189.19644 189.21692
          Condensed to atoms (all electrons):
 Mulliken charges:
               1
     1  C    0.451990
     2  C   -0.012229
     3  C    0.049468
     4  C    0.333858
     5  C    0.345841
     6  C   -0.086525
     7  C    0.051489
     8  C    0.422374
     9  C    0.166140
    10  C   -0.486598
    11  C    0.298905
    12  C    0.193039
    13  C   -0.482414
    14  C   -0.681759
    15  H    0.164094
    16  H    0.164914
    17  H    0.168927
    18  N   -0.003889
    19  N   -0.106614
    20  O   -0.348159
    21  O   -0.336938
    22  O   -0.365325
    23  O   -0.324761
    24  C   -0.184797
    25  H    0.189185
    26  H    0.181661
    27  H    0.179346
    28  C   -0.213593
    29  H    0.182566
    30  H    0.184345
    31  H    0.179945
    32  C   -0.179762
    33  C   -0.087997
    34  S   -0.778178
    35  C   -0.318006
    36  H    0.193745
    37  C    0.671156
    38  O   -0.159583
    39  C    0.750165
    40  C   -0.243451
    41  C    0.038561
    42  S   -0.202719
    43  H    0.179728
    44  H    0.164663
    45  H    0.165239
    46  C   -0.593808
    47  O   -0.150087
    48  C   -0.335979
    49  H    0.164917
    50  C   -0.253844
    51  H    0.194260
    52  H    0.164561
    53  H    0.177300
    54  H    0.164633
 Sum of Mulliken charges =  -0.00000
 Mulliken charges with hydrogens summed into heavy atoms:
               1
     1  C    0.451990
     2  C   -0.012229
     3  C    0.049468
     4  C    0.333858
     5  C    0.345841
     6  C    0.082402
     7  C    0.051489
     8  C    0.422374
     9  C    0.166140
    10  C   -0.486598
    11  C    0.298905
    12  C    0.193039
    13  C   -0.317500
    14  C   -0.517665
    18  N   -0.003889
    19  N   -0.106614
    20  O   -0.348159
    21  O   -0.336938
    22  O   -0.365325
    23  O   -0.324761
    24  C    0.365396
    28  C    0.333264
    32  C   -0.179762
    33  C    0.105749
    34  S   -0.778178
    35  C   -0.318006
    37  C    0.671156
    38  O   -0.159583
    39  C    0.750165
    40  C    0.266180
    41  C    0.038561
    42  S   -0.202719
    46  C   -0.428891
    47  O   -0.150087
    48  C   -0.141719
    50  C    0.252650
 Electronic spatial extent (au):  <R**2>=          22300.6982
 Charge=             -0.0000 electrons
 Dipole moment (field-independent basis, Debye):
    X=              7.3465    Y=             -1.1029    Z=             -0.9961  Tot=              7.4953
 Quadrupole moment (field-independent basis, Debye-Ang):
   XX=           -209.9870   YY=           -203.6486   ZZ=           -226.8547
   XY=             -7.3164   XZ=             -9.1133   YZ=              2.7003
 Traceless Quadrupole moment (field-independent basis, Debye-Ang):
   XX=              3.5098   YY=              9.8482   ZZ=            -13.3579
   XY=             -7.3164   XZ=             -9.1133   YZ=              2.7003
 Octapole moment (field-independent basis, Debye-Ang**2):
  XXX=            503.6239  YYY=            -19.3706  ZZZ=              2.8828  XYY=            193.0790
  XXY=           -113.8586  XXZ=              9.3818  XZZ=             -8.8968  YZZ=            -10.1276
  YYZ=             -4.7237  XYZ=              1.5825
 Hexadecapole moment (field-independent basis, Debye-Ang**3):
 XXXX=         -19963.7700 YYYY=          -7858.2069 ZZZZ=           -465.0425 XXXY=           -781.7264
 XXXZ=           -368.5487 YYYX=            188.1092 YYYZ=             89.8734 ZZZX=              5.3672
 ZZZY=             -3.9031 XXYY=          -4877.1873 XXZZ=          -3714.0670 YYZZ=          -1543.0392
 XXYZ=             94.2984 YYXZ=           -155.6634 ZZXY=             30.3334
 N-N= 4.089457713110D+03 E-N=-1.371901780080D+04  KE= 2.352000914820D+03
 Unable to Open any file for archive entry.
 1\1\GINC-CX3-6-11\FOpt\RB3LYP\6-311+G(d,p)\C26H18N2O6S2\NS5018\27-Oct-
 2021\0\\# opt=modredundant b3lyp/6-311+g(d,p) scrf=(pcm, solvent=water
 )\\NDI_10.pdb\\0,1\C,-2.4897876038,-2.9674575274,-0.3587998317\C,-2.20
 77663205,-1.5243709076,-0.1573487723\C,-3.2686308674,-0.5952872064,-0.
 0712444539\C,-4.6026993636,-1.0153989128,-0.2244927387\C,-4.9124425872
 ,-2.4496769254,-0.4547241273\C,-0.9127041064,-1.0940131403,-0.08435120
 49\C,-2.9513798838,0.7656806195,0.1829975743\C,-1.5966013746,1.1887598
 846,0.3561725427\C,-0.5300456046,0.2733833711,0.1091082211\C,-1.413531
 9016,2.5572642746,0.8864975528\C,-3.7873674014,3.1209408414,0.46399090
 59\C,-4.0321489047,1.6833353406,0.2368609478\C,-5.3413184248,1.2551524
 832,0.0585797503\C,-5.6360593336,-0.0919013759,-0.161253483\H,-6.65846
 74629,-0.4220685205,-0.2865215316\H,-6.13441119,1.9904299564,0.0944456
 374\H,-0.1502161518,-1.8547627475,-0.1796326168\N,-2.4739599925,3.4697
 396727,0.7543642897\N,-3.8276373614,-3.3367474651,-0.5049870837\O,-1.6
 089775491,-3.8128303132,-0.4045371665\O,-6.0576776169,-2.8502485651,-0
 .5908437144\O,-4.6785834012,3.9606179962,0.4303931815\O,-0.4023228857,
 2.9356066123,1.4631990855\C,-2.1953625522,4.8632275111,1.1337731975\H,
 -2.1937496509,4.9730202358,2.2199866881\H,-1.220172943,5.1488904076,0.
 7475816835\H,-2.9725967109,5.4886279009,0.7065956481\C,-4.0917419339,-
 4.7678186408,-0.7206474347\H,-3.558471125,-5.1083494014,-1.6075953463\
 H,-3.7485144187,-5.3406068614,0.1408970065\H,-5.1602433215,-4.89749654
 72,-0.8527101476\C,0.8905319469,0.5496374275,-0.0833756646\C,1.6719571
 142,1.6852865458,0.0785120255\S,1.8987034994,-0.750224952,-0.751806932
 8\C,3.0090817997,1.525576803,-0.3198884949\H,1.2863787389,2.5960513934
 ,0.4964644454\C,3.3248739041,0.2523119012,-0.8033907946\O,3.9824216754
 ,2.4679143969,-0.2626582152\C,4.5920613883,-0.2203505904,-1.2760266329
 \C,3.6336387456,3.7712401602,0.2219061923\C,4.9090637463,-1.4996586839
 ,-1.7324625222\S,6.0273220978,0.8012195408,-1.3602437582\H,4.547605453
 7,4.3588611171,0.1726068264\H,2.8673025213,4.2276177808,-0.40978121\H,
 3.2839488536,3.720714407,1.2562455262\C,6.2643880763,-1.6529848997,-2.
 1360235993\O,3.9501914925,-2.4533418961,-1.7583048136\C,6.9761874307,-
 0.4952122366,-1.9889337882\H,6.6910939847,-2.5697261186,-2.5151982689\
 C,4.3085902276,-3.7655488723,-2.2154327404\H,8.01842535,-0.3293259992,
 -2.2159647532\H,5.0836699518,-4.1990271738,-1.5788112936\H,3.400856020
 9,-4.360309362,-2.1446872519\H,4.6482959259,-3.7343627392,-3.253498540
 6\\Version=ES64L-G16RevC.01\State=1-A\HF=-2359.3549896\RMSD=4.754e-09\
 RMSF=2.917e-04\Dipole=2.7906319,-0.3348867,-0.8922602\Quadrupole=0.147
 4806,5.4764538,-5.6239344,-2.8389915,-9.0429986,6.1964041\PG=C01 [X(C2
 6H18N2O6S2)]\\@
 The archive entry for this job was punched.


 FOR THE NATURE OF THE CHEMICAL BOND
 IS THE PROBLEM AT THE HEART OF ALL CHEMISTRY.

                     -- BRYCE CRAWFORD, JR., 1953
 Job cpu time:       2 days 22 hours 18 minutes 30.7 seconds.
 Elapsed time:       0 days  4 hours 27 minutes 16.5 seconds.
 File lengths (MBytes):  RWF=   1025 Int=      0 D2E=      0 Chk=     65 Scr=      1
 Normal termination of Gaussian 16 at Wed Oct 27 21:33:58 2021.
