 Entering Gaussian System, Link 0=g16
 Input=pg2T_TT_-50.gjf
 Output=pg2T_TT_-50.log
 Initial command:
 /apps/gaussian/g16-c01-avx/g16/l1.exe "/tmp/pbs.4766238[125].pbs/Gau-3763805.inp" -scrdir="/tmp/pbs.4766238[125].pbs/"
 Entering Link 1 = /apps/gaussian/g16-c01-avx/g16/l1.exe PID=   3763807.
  
 Copyright (c) 1988-2019, Gaussian, Inc.  All Rights Reserved.
  
 This is part of the Gaussian(R) 16 program.  It is based on
 the Gaussian(R) 09 system (copyright 2009, Gaussian, Inc.),
 the Gaussian(R) 03 system (copyright 2003, Gaussian, Inc.),
 the Gaussian(R) 98 system (copyright 1998, Gaussian, Inc.),
 the Gaussian(R) 94 system (copyright 1995, Gaussian, Inc.),
 the Gaussian 92(TM) system (copyright 1992, Gaussian, Inc.),
 the Gaussian 90(TM) system (copyright 1990, Gaussian, Inc.),
 the Gaussian 88(TM) system (copyright 1988, Gaussian, Inc.),
 the Gaussian 86(TM) system (copyright 1986, Carnegie Mellon
 University), and the Gaussian 82(TM) system (copyright 1983,
 Carnegie Mellon University). Gaussian is a federally registered
 trademark of Gaussian, Inc.
  
 This software contains proprietary and confidential information,
 including trade secrets, belonging to Gaussian, Inc.
  
 This software is provided under written license and may be
 used, copied, transmitted, or stored only in accord with that
 written license.
  
 The following legend is applicable only to US Government
 contracts under FAR:
  
                    RESTRICTED RIGHTS LEGEND
  
 Use, reproduction and disclosure by the US Government is
 subject to restrictions as set forth in subparagraphs (a)
 and (c) of the Commercial Computer Software - Restricted
 Rights clause in FAR 52.227-19.
  
 Gaussian, Inc.
 340 Quinnipiac St., Bldg. 40, Wallingford CT 06492
  
  
 ---------------------------------------------------------------
 Warning -- This program may not be used in any manner that
 competes with the business of Gaussian, Inc. or will provide
 assistance to any competitor of Gaussian, Inc.  The licensee
 of this program is prohibited from giving any competitor of
 Gaussian, Inc. access to this program.  By using this program,
 the user acknowledges that Gaussian, Inc. is engaged in the
 business of creating and licensing software in the field of
 computational chemistry and represents and warrants to the
 licensee that it is not a competitor of Gaussian, Inc. and that
 it will not use this program in any manner prohibited above.
 ---------------------------------------------------------------
  

 Cite this work as:
 Gaussian 16, Revision C.01,
 M. J. Frisch, G. W. Trucks, H. B. Schlegel, G. E. Scuseria, 
 M. A. Robb, J. R. Cheeseman, G. Scalmani, V. Barone, 
 G. A. Petersson, H. Nakatsuji, X. Li, M. Caricato, A. V. Marenich, 
 J. Bloino, B. G. Janesko, R. Gomperts, B. Mennucci, H. P. Hratchian, 
 J. V. Ortiz, A. F. Izmaylov, J. L. Sonnenberg, D. Williams-Young, 
 F. Ding, F. Lipparini, F. Egidi, J. Goings, B. Peng, A. Petrone, 
 T. Henderson, D. Ranasinghe, V. G. Zakrzewski, J. Gao, N. Rega, 
 G. Zheng, W. Liang, M. Hada, M. Ehara, K. Toyota, R. Fukuda, 
 J. Hasegawa, M. Ishida, T. Nakajima, Y. Honda, O. Kitao, H. Nakai, 
 T. Vreven, K. Throssell, J. A. Montgomery, Jr., J. E. Peralta, 
 F. Ogliaro, M. J. Bearpark, J. J. Heyd, E. N. Brothers, K. N. Kudin, 
 V. N. Staroverov, T. A. Keith, R. Kobayashi, J. Normand, 
 K. Raghavachari, A. P. Rendell, J. C. Burant, S. S. Iyengar, 
 J. Tomasi, M. Cossi, J. M. Millam, M. Klene, C. Adamo, R. Cammi, 
 J. W. Ochterski, R. L. Martin, K. Morokuma, O. Farkas, 
 J. B. Foresman, and D. J. Fox, Gaussian, Inc., Wallingford CT, 2019.
 
 ******************************************
 Gaussian 16:  ES64L-G16RevC.01  3-Jul-2019
                26-Oct-2021 
 ******************************************
 %mem=10GB
 %nprocshared=8
 Will use up to    8 processors via shared memory.
 --------------------------------------
 # opt=modredundant wb97xd/6-311+g(d,p)
 --------------------------------------
 1/18=120,19=15,26=3,38=1/1,3;
 2/9=110,12=2,17=6,18=5,40=1/2;
 3/5=4,6=6,7=111,11=2,25=1,30=1,71=1,74=-58/1,2,3;
 4//1;
 5/5=2,38=5/2;
 6/7=2,8=2,9=2,10=2,28=1/1;
 7//1,2,3,16;
 1/18=20,19=15,26=3/3(2);
 2/9=110/2;
 99//99;
 2/9=110/2;
 3/5=4,6=6,7=111,11=2,25=1,30=1,71=1,74=-58/1,2,3;
 4/5=5,16=3,69=1/1;
 5/5=2,38=5/2;
 7//1,2,3,16;
 1/18=20,19=15,26=3/3(-5);
 2/9=110/2;
 6/7=2,8=2,9=2,10=2,19=2,28=1/1;
 99/9=1/99;
 ---------------
 pg2T_TT_-50.pdb
 ---------------
 Symbolic Z-matrix:
 Charge =  0 Multiplicity = 1
 C                    -4.25     -1.36     -0.21 
 C                    -2.93     -0.95     -0.61 
 C                    -1.97     -2.05     -0.62 
 C                    -4.33     -2.76      0.1 
 S                    -2.8      -3.56     -0.11 
 H                    -5.23     -3.27      0.41 
 C                    -0.56     -2.13     -0.97 
 S                     0.074    -1.469    -2.508 
 C                     1.697    -1.943    -2.14 
 C                     1.804    -2.578    -0.851 
 C                     0.544    -2.674    -0.176 
 H                     0.452    -2.968     0.858 
 S                     3.382    -2.414    -0.155 
 C                     3.951    -1.51     -1.56 
 C                     2.913    -1.318    -2.546 
 H                     4.908    -1.006    -1.576 
 H                     2.98     -0.57     -3.332 
 H                    -2.89      0.24     -0.97 
 O                    -5.6      -0.36     -0.4 
 H                    -5.76      0.85     -0.75 
 
 Add virtual bond connecting atoms H20        and O19        Dist= 2.40D+00.
 Add virtual bond connecting atoms O19        and C1         Dist= 3.20D+00.
 The following ModRedundant input section has been read:
 D       2       3       7       8 F                                           
 

 GradGradGradGradGradGradGradGradGradGradGradGradGradGradGradGradGradGrad
 Berny optimization.
 Initialization pass.
                           ----------------------------
                           !    Initial Parameters    !
                           ! (Angstroms and Degrees)  !
 --------------------------                            --------------------------
 ! Name  Definition              Value          Derivative Info.                !
 --------------------------------------------------------------------------------
 ! R1    R(1,2)                  1.4389         estimate D2E/DX2                !
 ! R2    R(1,4)                  1.4361         estimate D2E/DX2                !
 ! R3    R(1,19)                 1.6907         estimate D2E/DX2                !
 ! R4    R(2,3)                  1.46           estimate D2E/DX2                !
 ! R5    R(2,18)                 1.2439         estimate D2E/DX2                !
 ! R6    R(3,5)                  1.797          estimate D2E/DX2                !
 ! R7    R(3,7)                  1.455          estimate D2E/DX2                !
 ! R8    R(4,5)                  1.7393         estimate D2E/DX2                !
 ! R9    R(4,6)                  1.0799         estimate D2E/DX2                !
 ! R10   R(7,8)                  1.7901         estimate D2E/DX2                !
 ! R11   R(7,11)                 1.4646         estimate D2E/DX2                !
 ! R12   R(8,9)                  1.7304         estimate D2E/DX2                !
 ! R13   R(9,10)                 1.4409         estimate D2E/DX2                !
 ! R14   R(9,15)                 1.4262         estimate D2E/DX2                !
 ! R15   R(10,11)                1.4326         estimate D2E/DX2                !
 ! R16   R(10,13)                1.7325         estimate D2E/DX2                !
 ! R17   R(11,12)                1.0789         estimate D2E/DX2                !
 ! R18   R(13,14)                1.7649         estimate D2E/DX2                !
 ! R19   R(14,15)                1.4445         estimate D2E/DX2                !
 ! R20   R(14,16)                1.0817         estimate D2E/DX2                !
 ! R21   R(15,17)                1.0871         estimate D2E/DX2                !
 ! R22   R(19,20)                1.2697         estimate D2E/DX2                !
 ! A1    A(2,1,4)              112.8843         estimate D2E/DX2                !
 ! A2    A(2,1,19)             122.1887         estimate D2E/DX2                !
 ! A3    A(4,1,19)             123.8039         estimate D2E/DX2                !
 ! A4    A(1,2,3)              112.9799         estimate D2E/DX2                !
 ! A5    A(1,2,18)             112.491          estimate D2E/DX2                !
 ! A6    A(3,2,18)             134.2373         estimate D2E/DX2                !
 ! A7    A(2,3,5)              109.1138         estimate D2E/DX2                !
 ! A8    A(2,3,7)              132.8639         estimate D2E/DX2                !
 ! A9    A(5,3,7)              118.0132         estimate D2E/DX2                !
 ! A10   A(1,4,5)              111.9209         estimate D2E/DX2                !
 ! A11   A(1,4,6)              124.6643         estimate D2E/DX2                !
 ! A12   A(5,4,6)              123.4062         estimate D2E/DX2                !
 ! A13   A(3,5,4)               93.0997         estimate D2E/DX2                !
 ! A14   A(3,7,8)              121.9785         estimate D2E/DX2                !
 ! A15   A(3,7,11)             128.3508         estimate D2E/DX2                !
 ! A16   A(8,7,11)             109.6309         estimate D2E/DX2                !
 ! A17   A(7,8,9)               92.7699         estimate D2E/DX2                !
 ! A18   A(8,9,10)             112.3721         estimate D2E/DX2                !
 ! A19   A(8,9,15)             128.2511         estimate D2E/DX2                !
 ! A20   A(10,9,15)            112.6106         estimate D2E/DX2                !
 ! A21   A(9,10,11)            112.6878         estimate D2E/DX2                !
 ! A22   A(9,10,13)            112.6631         estimate D2E/DX2                !
 ! A23   A(11,10,13)           128.1809         estimate D2E/DX2                !
 ! A24   A(7,11,10)            112.4965         estimate D2E/DX2                !
 ! A25   A(7,11,12)            123.8127         estimate D2E/DX2                !
 ! A26   A(10,11,12)           123.0111         estimate D2E/DX2                !
 ! A27   A(10,13,14)            91.2791         estimate D2E/DX2                !
 ! A28   A(13,14,15)           112.3216         estimate D2E/DX2                !
 ! A29   A(13,14,16)           122.3874         estimate D2E/DX2                !
 ! A30   A(15,14,16)           124.3134         estimate D2E/DX2                !
 ! A31   A(9,15,14)            111.1074         estimate D2E/DX2                !
 ! A32   A(9,15,17)            124.0485         estimate D2E/DX2                !
 ! A33   A(14,15,17)           122.7318         estimate D2E/DX2                !
 ! A34   A(1,19,20)            134.0455         estimate D2E/DX2                !
 ! D1    D(4,1,2,3)              0.3915         estimate D2E/DX2                !
 ! D2    D(4,1,2,18)           175.0898         estimate D2E/DX2                !
 ! D3    D(19,1,2,3)          -167.9154         estimate D2E/DX2                !
 ! D4    D(19,1,2,18)            6.7829         estimate D2E/DX2                !
 ! D5    D(2,1,4,5)             -0.3845         estimate D2E/DX2                !
 ! D6    D(2,1,4,6)           -179.3471         estimate D2E/DX2                !
 ! D7    D(19,1,4,5)           167.7032         estimate D2E/DX2                !
 ! D8    D(19,1,4,6)           -11.2593         estimate D2E/DX2                !
 ! D9    D(2,1,19,20)           -7.6334         estimate D2E/DX2                !
 ! D10   D(4,1,19,20)         -174.6479         estimate D2E/DX2                !
 ! D11   D(1,2,3,5)             -0.2224         estimate D2E/DX2                !
 ! D12   D(1,2,3,7)            178.6265         estimate D2E/DX2                !
 ! D13   D(18,2,3,5)          -173.3787         estimate D2E/DX2                !
 ! D14   D(18,2,3,7)             5.4701         estimate D2E/DX2                !
 ! D15   D(2,3,5,4)              0.0033         estimate D2E/DX2                !
 ! D16   D(7,3,5,4)           -179.041          estimate D2E/DX2                !
 ! D17   D(2,3,7,8)            -49.9928         Frozen                          !
 ! D18   D(2,3,7,11)           127.4653         estimate D2E/DX2                !
 ! D19   D(5,3,7,8)            128.7751         estimate D2E/DX2                !
 ! D20   D(5,3,7,11)           -53.7667         estimate D2E/DX2                !
 ! D21   D(1,4,5,3)              0.2153         estimate D2E/DX2                !
 ! D22   D(6,4,5,3)            179.1932         estimate D2E/DX2                !
 ! D23   D(3,7,8,9)            179.7885         estimate D2E/DX2                !
 ! D24   D(11,7,8,9)             1.9047         estimate D2E/DX2                !
 ! D25   D(3,7,11,10)         -179.8349         estimate D2E/DX2                !
 ! D26   D(3,7,11,12)           -9.0515         estimate D2E/DX2                !
 ! D27   D(8,7,11,10)           -2.1239         estimate D2E/DX2                !
 ! D28   D(8,7,11,12)          168.6595         estimate D2E/DX2                !
 ! D29   D(7,8,9,10)            -1.2365         estimate D2E/DX2                !
 ! D30   D(7,8,9,15)          -149.8768         estimate D2E/DX2                !
 ! D31   D(8,9,10,11)            0.2075         estimate D2E/DX2                !
 ! D32   D(8,9,10,13)         -154.0313         estimate D2E/DX2                !
 ! D33   D(15,9,10,11)         153.9308         estimate D2E/DX2                !
 ! D34   D(15,9,10,13)          -0.308          estimate D2E/DX2                !
 ! D35   D(8,9,15,14)          149.7148         estimate D2E/DX2                !
 ! D36   D(8,9,15,17)          -14.0991         estimate D2E/DX2                !
 ! D37   D(10,9,15,14)           1.1348         estimate D2E/DX2                !
 ! D38   D(10,9,15,17)        -162.6791         estimate D2E/DX2                !
 ! D39   D(9,10,11,7)            1.2718         estimate D2E/DX2                !
 ! D40   D(9,10,11,12)        -169.597          estimate D2E/DX2                !
 ! D41   D(13,10,11,7)         150.5935         estimate D2E/DX2                !
 ! D42   D(13,10,11,12)        -20.2754         estimate D2E/DX2                !
 ! D43   D(9,10,13,14)          -0.4626         estimate D2E/DX2                !
 ! D44   D(11,10,13,14)       -149.7904         estimate D2E/DX2                !
 ! D45   D(10,13,14,15)          1.1146         estimate D2E/DX2                !
 ! D46   D(10,13,14,16)        170.2468         estimate D2E/DX2                !
 ! D47   D(13,14,15,9)          -1.4786         estimate D2E/DX2                !
 ! D48   D(13,14,15,17)        162.5852         estimate D2E/DX2                !
 ! D49   D(16,14,15,9)        -170.3646         estimate D2E/DX2                !
 ! D50   D(16,14,15,17)         -6.3008         estimate D2E/DX2                !
 --------------------------------------------------------------------------------
 Trust Radius=3.00D-01 FncErr=1.00D-07 GrdErr=1.00D-06 EigMax=2.50D+02 EigMin=1.00D-04
 Number of steps in this run=    116 maximum allowed number of steps=    120.
 GradGradGradGradGradGradGradGradGradGradGradGradGradGradGradGradGradGrad

                          Input orientation:                          
 ---------------------------------------------------------------------
 Center     Atomic      Atomic             Coordinates (Angstroms)
 Number     Number       Type             X           Y           Z
 ---------------------------------------------------------------------
      1          6           0       -4.250000   -1.360000   -0.210000
      2          6           0       -2.930000   -0.950000   -0.610000
      3          6           0       -1.970000   -2.050000   -0.620000
      4          6           0       -4.330000   -2.760000    0.100000
      5         16           0       -2.800000   -3.560000   -0.110000
      6          1           0       -5.230000   -3.270000    0.410000
      7          6           0       -0.560000   -2.130000   -0.970000
      8         16           0        0.074000   -1.469000   -2.508000
      9          6           0        1.697000   -1.943000   -2.140000
     10          6           0        1.804000   -2.578000   -0.851000
     11          6           0        0.544000   -2.674000   -0.176000
     12          1           0        0.452000   -2.968000    0.858000
     13         16           0        3.382000   -2.414000   -0.155000
     14          6           0        3.951000   -1.510000   -1.560000
     15          6           0        2.913000   -1.318000   -2.546000
     16          1           0        4.908000   -1.006000   -1.576000
     17          1           0        2.980000   -0.570000   -3.332000
     18          1           0       -2.890000    0.240000   -0.970000
     19          8           0       -5.600000   -0.360000   -0.400000
     20          1           0       -5.760000    0.850000   -0.750000
 ---------------------------------------------------------------------
                    Distance matrix (angstroms):
                    1          2          3          4          5
     1  C    0.000000
     2  C    1.438923   0.000000
     3  C    2.417147   1.460034   0.000000
     4  C    1.436141   2.395871   2.567509   0.000000
     5  S    2.636759   2.660639   1.796970   1.739253   0.000000
     6  H    2.234480   3.422397   3.630000   1.079907   2.501879
     7  C    3.845335   2.671872   1.454991   3.969219   2.793224
     8  S    4.897924   3.591070   2.842541   5.278595   4.287489
     9  C    6.279458   4.973538   3.970987   6.481498   5.192167
    10  C    6.208488   5.011908   3.817751   6.209950   4.765524
    11  C    4.970934   3.902462   2.628062   4.882566   3.460013
    12  H    5.082823   4.203007   2.982162   4.846169   3.444269
    13  S    7.704633   6.495511   5.384480   7.723968   6.287485
    14  C    8.312725   6.968806   6.019422   8.537743   7.202847
    15  C    7.534403   6.166374   5.299905   7.844854   6.602956
    16  H    9.266080   7.897502   7.022162   9.551237   8.251384
    17  H    7.914789   6.517805   5.835053   8.367247   7.261528
    18  H    2.233204   1.243905   2.492589   3.495497   3.897140
    19  O    1.690739   2.742462   4.010162   2.760960   4.261936
    20  H    2.730531   3.356859   4.773992   3.974858   5.349701
                    6          7          8          9         10
     6  H    0.000000
     7  C    5.001290   0.000000
     8  S    6.315912   1.790062   0.000000
     9  C    7.499784   2.549101   1.730384   0.000000
    10  C    7.179564   2.409017   2.639778   1.440901   0.000000
    11  C    5.834183   1.464646   2.666674   2.391875   1.432634
    12  H    5.707629   2.251216   3.704030   3.404211   2.213749
    13  S    8.672860   4.035374   4.168033   2.645995   1.732454
    14  C    9.553495   4.591473   3.991430   2.367362   2.500583
    15  C    8.880129   3.899340   2.843267   1.426225   2.385478
    16  H   10.575866   5.615126   4.944750   3.392136   3.554100
    17  H    9.417891   4.532576   3.151510   2.225327   3.401529
    18  H    4.438479   3.323522   3.751189   5.212961   5.476214
    19  O    3.043206   5.372095   6.153684   7.666792   7.742231
    20  H    4.312876   5.997399   6.519500   8.083304   8.305148
                   11         12         13         14         15
    11  C    0.000000
    12  H    1.078914   0.000000
    13  S    2.849962   3.149283   0.000000
    14  C    3.857201   4.496164   1.764937   0.000000
    15  C    3.614941   4.512897   2.671714   1.444474   0.000000
    16  H    4.877163   5.443320   2.516025   1.081721   2.240149
    17  H    4.507909   5.449522   3.695304   2.228548   1.087101
    18  H    4.573203   4.980142   6.859003   7.085893   6.211759
    19  O    6.569133   6.709019   9.217118   9.689670   8.831435
    20  H    7.244893   7.466708   9.725425  10.026426   9.118485
                   16         17         18         19         20
    16  H    0.000000
    17  H    2.644015   0.000000
    18  H    7.920136   6.379032   0.000000
    19  O   10.593317   9.069571   2.833549   0.000000
    20  H   10.859707   9.223379   2.942346   1.269724   0.000000
 Stoichiometry    C10H6OS3
 Framework group  C1[X(C10H6OS3)]
 Deg. of freedom    54
 Full point group                 C1      NOp   1
 Largest Abelian subgroup         C1      NOp   1
 Largest concise Abelian subgroup C1      NOp   1
                         Standard orientation:                         
 ---------------------------------------------------------------------
 Center     Atomic      Atomic             Coordinates (Angstroms)
 Number     Number       Type             X           Y           Z
 ---------------------------------------------------------------------
      1          6           0       -3.843216    0.300090    0.494458
      2          6           0       -2.490721    0.772859    0.627676
      3          6           0       -1.512965   -0.113379    0.002955
      4          6           0       -3.932268   -0.944630   -0.216345
      5         16           0       -2.369611   -1.516849   -0.721979
      6          1           0       -4.854151   -1.463754   -0.432777
      7          6           0       -0.066748   -0.046355   -0.141833
      8         16           0        0.757060    1.416549   -0.762777
      9          6           0        2.324692    0.699120   -0.614273
     10          6           0        2.268271   -0.634747   -0.072229
     11          6           0        0.930019   -1.059070    0.213206
     12          1           0        0.703620   -1.954993    0.770092
     13         16           0        3.731295   -1.088929    0.736890
     14          6           0        4.466758    0.472452    0.367858
     15          6           0        3.569993    1.344168   -0.354934
     16          1           0        5.404796    0.788641    0.804012
     17          1           0        3.726899    2.417255   -0.430126
     18          1           0       -2.429483    1.896698    1.157332
     19          8           0       -5.177315    1.272642    0.859045
     20          1           0       -5.315965    2.419629    1.385729
 ---------------------------------------------------------------------
 Rotational constants (GHZ):           1.3398229           0.2242297           0.2055078
 Standard basis: 6-311+G(d,p) (5D, 7F)
 There are   382 symmetry adapted cartesian basis functions of A   symmetry.
 There are   368 symmetry adapted basis functions of A   symmetry.
   368 basis functions,   594 primitive gaussians,   382 cartesian basis functions
    61 alpha electrons       61 beta electrons
       nuclear repulsion energy      1075.5214817983 Hartrees.
 NAtoms=   20 NActive=   20 NUniq=   20 SFac= 1.00D+00 NAtFMM=   60 NAOKFM=F Big=F
 Integral buffers will be    131072 words long.
 Raffenetti 2 integral format.
 Two-electron integral symmetry is turned on.
 Nuclear repulsion after empirical dispersion term =     1075.5116900210 Hartrees.
 One-electron integrals computed using PRISM.
 NBasis=   368 RedAO= T EigKep=  3.22D-06  NBF=   368
 NBsUse=   367 1.00D-06 EigRej=  5.76D-07 NBFU=   367
 ExpMin= 4.05D-02 ExpMax= 9.34D+04 ExpMxC= 3.17D+03 IAcc=3 IRadAn=         5 AccDes= 0.00D+00
 Harris functional with IExCor= 4639 and IRadAn=       5 diagonalized for initial guess.
 HarFok:  IExCor= 4639 AccDes= 0.00D+00 IRadAn=         5 IDoV= 1 UseB2=F ITyADJ=14
 ICtDFT=  3500011 ScaDFX=  1.000000  1.000000  1.000000  1.000000
 FoFCou: FMM=F IPFlag=           0 FMFlag=      100000 FMFlg1=           0
         NFxFlg=           0 DoJE=T BraDBF=F KetDBF=T FulRan=T
         wScrn=  0.000000 ICntrl=       500 IOpCl=  0 I1Cent=   200000004 NGrid=           0
         NMat0=    1 NMatS0=      1 NMatT0=    0 NMatD0=    1 NMtDS0=    0 NMtDT0=    0
 Petite list used in FoFCou.
 Requested convergence on RMS density matrix=1.00D-08 within 128 cycles.
 Requested convergence on MAX density matrix=1.00D-06.
 Requested convergence on             energy=1.00D-06.
 No special actions if energy rises.
 SCF Done:  E(RwB97XD) =  -1654.22592170     A.U. after   19 cycles
            NFock= 19  Conv=0.39D-08     -V/T= 2.0032

 **********************************************************************

            Population analysis using the SCF Density.

 **********************************************************************

 Orbital symmetries:
       Occupied  (A) (A) (A) (A) (A) (A) (A) (A) (A) (A) (A) (A)
                 (A) (A) (A) (A) (A) (A) (A) (A) (A) (A) (A) (A)
                 (A) (A) (A) (A) (A) (A) (A) (A) (A) (A) (A) (A)
                 (A) (A) (A) (A) (A) (A) (A) (A) (A) (A) (A) (A)
                 (A) (A) (A) (A) (A) (A) (A) (A) (A) (A) (A) (A)
                 (A)
       Virtual   (A) (A) (A) (A) (A) (A) (A) (A) (A) (A) (A) (A)
                 (A) (A) (A) (A) (A) (A) (A) (A) (A) (A) (A) (A)
                 (A) (A) (A) (A) (A) (A) (A) (A) (A) (A) (A) (A)
                 (A) (A) (A) (A) (A) (A) (A) (A) (A) (A) (A) (A)
                 (A) (A) (A) (A) (A) (A) (A) (A) (A) (A) (A) (A)
                 (A) (A) (A) (A) (A) (A) (A) (A) (A) (A) (A) (A)
                 (A) (A) (A) (A) (A) (A) (A) (A) (A) (A) (A) (A)
                 (A) (A) (A) (A) (A) (A) (A) (A) (A) (A) (A) (A)
                 (A) (A) (A) (A) (A) (A) (A) (A) (A) (A) (A) (A)
                 (A) (A) (A) (A) (A) (A) (A) (A) (A) (A) (A) (A)
                 (A) (A) (A) (A) (A) (A) (A) (A) (A) (A) (A) (A)
                 (A) (A) (A) (A) (A) (A) (A) (A) (A) (A) (A) (A)
                 (A) (A) (A) (A) (A) (A) (A) (A) (A) (A) (A) (A)
                 (A) (A) (A) (A) (A) (A) (A) (A) (A) (A) (A) (A)
                 (A) (A) (A) (A) (A) (A) (A) (A) (A) (A) (A) (A)
                 (A) (A) (A) (A) (A) (A) (A) (A) (A) (A) (A) (A)
                 (A) (A) (A) (A) (A) (A) (A) (A) (A) (A) (A) (A)
                 (A) (A) (A) (A) (A) (A) (A) (A) (A) (A) (A) (A)
                 (A) (A) (A) (A) (A) (A) (A) (A) (A) (A) (A) (A)
                 (A) (A) (A) (A) (A) (A) (A) (A) (A) (A) (A) (A)
                 (A) (A) (A) (A) (A) (A) (A) (A) (A) (A) (A) (A)
                 (A) (A) (A) (A) (A) (A) (A) (A) (A) (A) (A) (A)
                 (A) (A) (A) (A) (A) (A) (A) (A) (A) (A) (A) (A)
                 (A) (A) (A) (A) (A) (A) (A) (A) (A) (A) (A) (A)
                 (A) (A) (A) (A) (A) (A) (A) (A) (A) (A) (A) (A)
                 (A) (A) (A) (A) (A) (A)
 The electronic state is 1-A.
 Alpha  occ. eigenvalues --  -89.07424 -89.06390 -89.06159 -19.27786 -10.38965
 Alpha  occ. eigenvalues --  -10.36598 -10.36010 -10.34348 -10.34198 -10.34186
 Alpha  occ. eigenvalues --  -10.34051 -10.34001 -10.32696 -10.32190  -8.11250
 Alpha  occ. eigenvalues --   -8.10331  -8.10095  -6.06097  -6.05729  -6.05348
 Alpha  occ. eigenvalues --   -6.05184  -6.04959  -6.04819  -6.04584  -6.04398
 Alpha  occ. eigenvalues --   -6.04147  -1.03377  -1.01302  -0.98383  -0.94135
 Alpha  occ. eigenvalues --   -0.87829  -0.85412  -0.84276  -0.81139  -0.78706
 Alpha  occ. eigenvalues --   -0.71709  -0.67327  -0.64964  -0.63027  -0.62605
 Alpha  occ. eigenvalues --   -0.58948  -0.58301  -0.53970  -0.52247  -0.50978
 Alpha  occ. eigenvalues --   -0.50152  -0.48659  -0.48141  -0.47985  -0.47598
 Alpha  occ. eigenvalues --   -0.46032  -0.44673  -0.43069  -0.42266  -0.40517
 Alpha  occ. eigenvalues --   -0.39964  -0.37627  -0.34156  -0.32588  -0.31088
 Alpha  occ. eigenvalues --   -0.28023
 Alpha virt. eigenvalues --   -0.01625  -0.00659   0.02540   0.04584   0.05412
 Alpha virt. eigenvalues --    0.05507   0.06322   0.06492   0.06949   0.07334
 Alpha virt. eigenvalues --    0.08075   0.08563   0.08843   0.09084   0.09814
 Alpha virt. eigenvalues --    0.09973   0.10466   0.10961   0.11414   0.11883
 Alpha virt. eigenvalues --    0.12427   0.12689   0.13275   0.13809   0.14288
 Alpha virt. eigenvalues --    0.15020   0.15317   0.15600   0.16233   0.17003
 Alpha virt. eigenvalues --    0.17148   0.17509   0.17645   0.18536   0.18745
 Alpha virt. eigenvalues --    0.19079   0.19347   0.20056   0.20514   0.21103
 Alpha virt. eigenvalues --    0.21520   0.21802   0.22306   0.22472   0.23099
 Alpha virt. eigenvalues --    0.23655   0.23840   0.24300   0.24616   0.24799
 Alpha virt. eigenvalues --    0.25276   0.25990   0.26260   0.26451   0.26881
 Alpha virt. eigenvalues --    0.27136   0.27488   0.27623   0.27994   0.28246
 Alpha virt. eigenvalues --    0.29520   0.29650   0.30001   0.30455   0.30795
 Alpha virt. eigenvalues --    0.31427   0.31853   0.33275   0.33349   0.33973
 Alpha virt. eigenvalues --    0.34463   0.35362   0.35933   0.37293   0.38035
 Alpha virt. eigenvalues --    0.38114   0.39368   0.40532   0.41069   0.41374
 Alpha virt. eigenvalues --    0.42071   0.42678   0.43289   0.44325   0.44871
 Alpha virt. eigenvalues --    0.47280   0.47876   0.48247   0.49689   0.50819
 Alpha virt. eigenvalues --    0.51091   0.52617   0.56382   0.57376   0.60596
 Alpha virt. eigenvalues --    0.61161   0.61976   0.62975   0.63022   0.64177
 Alpha virt. eigenvalues --    0.64631   0.65218   0.66004   0.66533   0.67893
 Alpha virt. eigenvalues --    0.68929   0.69344   0.70685   0.71476   0.71906
 Alpha virt. eigenvalues --    0.73702   0.74299   0.75159   0.76299   0.76948
 Alpha virt. eigenvalues --    0.78378   0.78649   0.79218   0.80082   0.81027
 Alpha virt. eigenvalues --    0.81622   0.82184   0.82848   0.83204   0.84311
 Alpha virt. eigenvalues --    0.85602   0.86142   0.86892   0.88034   0.89747
 Alpha virt. eigenvalues --    0.90811   0.91093   0.91992   0.93090   0.93712
 Alpha virt. eigenvalues --    0.94356   0.95535   0.96590   0.97529   0.98677
 Alpha virt. eigenvalues --    0.99965   1.00562   1.01623   1.02181   1.03349
 Alpha virt. eigenvalues --    1.04376   1.05899   1.06145   1.07970   1.09320
 Alpha virt. eigenvalues --    1.09987   1.12940   1.14090   1.14367   1.15172
 Alpha virt. eigenvalues --    1.18924   1.19141   1.22363   1.22931   1.26628
 Alpha virt. eigenvalues --    1.28994   1.30156   1.32638   1.33638   1.36619
 Alpha virt. eigenvalues --    1.42534   1.42870   1.44623   1.46319   1.46824
 Alpha virt. eigenvalues --    1.49777   1.52262   1.54738   1.57702   1.59242
 Alpha virt. eigenvalues --    1.59917   1.61971   1.64848   1.65661   1.66996
 Alpha virt. eigenvalues --    1.67962   1.68770   1.70864   1.71273   1.72251
 Alpha virt. eigenvalues --    1.74278   1.75207   1.76135   1.77289   1.77662
 Alpha virt. eigenvalues --    1.78594   1.82280   1.82832   1.84019   1.85442
 Alpha virt. eigenvalues --    1.87057   1.88497   1.90001   1.90835   1.92390
 Alpha virt. eigenvalues --    1.93976   1.94613   1.98498   1.99647   2.00382
 Alpha virt. eigenvalues --    2.02306   2.02832   2.03464   2.06219   2.07957
 Alpha virt. eigenvalues --    2.08431   2.09200   2.09952   2.11065   2.13397
 Alpha virt. eigenvalues --    2.14064   2.16224   2.19436   2.20302   2.22328
 Alpha virt. eigenvalues --    2.23035   2.26432   2.29913   2.31157   2.38119
 Alpha virt. eigenvalues --    2.41391   2.43242   2.45234   2.50209   2.55406
 Alpha virt. eigenvalues --    2.57705   2.60907   2.64301   2.66050   2.70594
 Alpha virt. eigenvalues --    2.73614   2.76130   2.77724   2.79700   2.80765
 Alpha virt. eigenvalues --    2.82720   2.83978   2.85223   2.87177   2.89267
 Alpha virt. eigenvalues --    2.91341   2.94864   2.96462   2.99885   3.01857
 Alpha virt. eigenvalues --    3.02986   3.04340   3.05379   3.07236   3.10661
 Alpha virt. eigenvalues --    3.11500   3.13309   3.13551   3.17544   3.29086
 Alpha virt. eigenvalues --    3.29973   3.33405   3.35521   3.40466   3.45570
 Alpha virt. eigenvalues --    3.49038   3.56346   3.58291   3.66920   3.69891
 Alpha virt. eigenvalues --    3.88240   3.93267   4.02526   4.12805   4.21645
 Alpha virt. eigenvalues --    4.39600   4.52302   5.13280   5.23520   5.36492
 Alpha virt. eigenvalues --    8.03445   8.05989   8.07372  17.40897  17.41889
 Alpha virt. eigenvalues --   17.43535  17.55787  17.56820  17.60060  17.60464
 Alpha virt. eigenvalues --   17.62536  17.64699  23.54229  23.68824  23.80424
 Alpha virt. eigenvalues --   23.88419  23.92736  23.97998  23.98777  24.00782
 Alpha virt. eigenvalues --   24.06436  24.08583  49.98326 189.27633 189.30885
 Alpha virt. eigenvalues --  189.32206
          Condensed to atoms (all electrons):
               1          2          3          4          5          6
     1  C    6.774060  -0.545605  -0.090479  -1.032986   0.890723   0.034351
     2  C   -0.545605  11.095176  -2.843134  -0.028051  -1.912554  -0.031109
     3  C   -0.090479  -2.843134   8.902104   0.050328   0.581588   0.022239
     4  C   -1.032986  -0.028051   0.050328   7.541633  -0.722678   0.366527
     5  S    0.890723  -1.912554   0.581588  -0.722678  17.063933  -0.021240
     6  H    0.034351  -0.031109   0.022239   0.366527  -0.021240   0.422659
     7  C    0.126135  -0.694166   0.131882  -0.202549   0.374574  -0.001970
     8  S    0.121981  -0.301615   0.562937   0.035132   0.127013  -0.000496
     9  C   -0.038698   0.427028  -0.798237   0.014926  -0.154684   0.000078
    10  C    0.028079  -0.718351   0.914743  -0.003988   0.331761  -0.000234
    11  C   -0.205506   0.982511  -1.434017  -0.054371  -0.277893   0.000086
    12  H   -0.000765  -0.001278   0.026512   0.000762  -0.002951   0.000001
    13  S   -0.001792   0.006816   0.015183  -0.003106   0.007753  -0.000001
    14  C   -0.000225   0.023064  -0.021655   0.001578  -0.005346  -0.000000
    15  C   -0.014315   0.007130  -0.054641   0.000763  -0.026402  -0.000002
    16  H   -0.000001  -0.000098  -0.000070  -0.000001   0.000022  -0.000000
    17  H    0.000012  -0.000173  -0.000096  -0.000001   0.000039  -0.000000
    18  H   -0.066217   0.317276   0.082505  -0.026500   0.003437  -0.000037
    19  O    0.343648  -0.052409  -0.004973  -0.135334   0.011371  -0.000052
    20  H   -0.051667  -0.031617   0.027173   0.057234  -0.004275  -0.000141
               7          8          9         10         11         12
     1  C    0.126135   0.121981  -0.038698   0.028079  -0.205506  -0.000765
     2  C   -0.694166  -0.301615   0.427028  -0.718351   0.982511  -0.001278
     3  C    0.131882   0.562937  -0.798237   0.914743  -1.434017   0.026512
     4  C   -0.202549   0.035132   0.014926  -0.003988  -0.054371   0.000762
     5  S    0.374574   0.127013  -0.154684   0.331761  -0.277893  -0.002951
     6  H   -0.001970  -0.000496   0.000078  -0.000234   0.000086   0.000001
     7  C    8.997998   0.293660  -0.815282   1.632933  -3.477148   0.086996
     8  S    0.293660  17.732277  -1.350438   1.796316  -2.500895   0.007414
     9  C   -0.815282  -1.350438  13.982972  -6.180794   2.673325  -0.039857
    10  C    1.632933   1.796316  -6.180794  16.304701  -7.142015   0.068688
    11  C   -3.477148  -2.500895   2.673325  -7.142015  16.053460   0.213293
    12  H    0.086996   0.007414  -0.039857   0.068688   0.213293   0.466482
    13  S   -0.423374   0.120053   0.407029  -1.118411   0.537492   0.002265
    14  C    0.151990  -0.033213   0.830072  -0.494647  -0.225524   0.001214
    15  C   -0.384948  -0.217452  -3.082692   0.382205   0.981124  -0.009165
    16  H   -0.002718   0.001336  -0.022581   0.015782   0.008856  -0.000001
    17  H    0.004743   0.010953   0.012315  -0.023507  -0.004777   0.000009
    18  H    0.020885   0.001856  -0.000957   0.000487  -0.000711   0.000007
    19  O    0.010654   0.000172  -0.000454   0.000422  -0.000471   0.000000
    20  H   -0.001494   0.000632  -0.000126   0.000105  -0.000430   0.000000
              13         14         15         16         17         18
     1  C   -0.001792  -0.000225  -0.014315  -0.000001   0.000012  -0.066217
     2  C    0.006816   0.023064   0.007130  -0.000098  -0.000173   0.317276
     3  C    0.015183  -0.021655  -0.054641  -0.000070  -0.000096   0.082505
     4  C   -0.003106   0.001578   0.000763  -0.000001  -0.000001  -0.026500
     5  S    0.007753  -0.005346  -0.026402   0.000022   0.000039   0.003437
     6  H   -0.000001  -0.000000  -0.000002  -0.000000  -0.000000  -0.000037
     7  C   -0.423374   0.151990  -0.384948  -0.002718   0.004743   0.020885
     8  S    0.120053  -0.033213  -0.217452   0.001336   0.010953   0.001856
     9  C    0.407029   0.830072  -3.082692  -0.022581   0.012315  -0.000957
    10  C   -1.118411  -0.494647   0.382205   0.015782  -0.023507   0.000487
    11  C    0.537492  -0.225524   0.981124   0.008856  -0.004777  -0.000711
    12  H    0.002265   0.001214  -0.009165  -0.000001   0.000009   0.000007
    13  S   16.596809   0.322373  -0.264456  -0.024190  -0.000471  -0.000037
    14  C    0.322373   5.567343  -0.162982   0.371110   0.010880  -0.000040
    15  C   -0.264456  -0.162982   8.560829   0.015321   0.348723   0.000021
    16  H   -0.024190   0.371110   0.015321   0.436714  -0.002654  -0.000000
    17  H   -0.000471   0.010880   0.348723  -0.002654   0.473582  -0.000000
    18  H   -0.000037  -0.000040   0.000021  -0.000000  -0.000000   0.492871
    19  O   -0.000009   0.000003  -0.000001   0.000000   0.000000  -0.000911
    20  H   -0.000000   0.000000  -0.000002  -0.000000   0.000000   0.000466
              19         20
     1  C    0.343648  -0.051667
     2  C   -0.052409  -0.031617
     3  C   -0.004973   0.027173
     4  C   -0.135334   0.057234
     5  S    0.011371  -0.004275
     6  H   -0.000052  -0.000141
     7  C    0.010654  -0.001494
     8  S    0.000172   0.000632
     9  C   -0.000454  -0.000126
    10  C    0.000422   0.000105
    11  C   -0.000471  -0.000430
    12  H    0.000000   0.000000
    13  S   -0.000009  -0.000000
    14  C    0.000003   0.000000
    15  C   -0.000001  -0.000002
    16  H    0.000000  -0.000000
    17  H    0.000000   0.000000
    18  H   -0.000911   0.000466
    19  O    8.086657   0.207031
    20  H    0.207031   0.492677
 Mulliken charges:
               1
     1  C   -0.270733
     2  C    0.301157
     3  C   -0.069894
     4  C    0.140682
     5  S   -0.264193
     6  H    0.209341
     7  C    0.171198
     8  S   -0.407623
     9  C    0.137056
    10  C    0.205724
    11  C   -0.126390
    12  H    0.180373
    13  S   -0.179925
    14  C   -0.335995
    15  C   -0.079060
    16  H    0.203174
    17  H    0.170424
    18  H    0.175600
    19  O   -0.465347
    20  H    0.304433
 Sum of Mulliken charges =  -0.00000
 Mulliken charges with hydrogens summed into heavy atoms:
               1
     1  C   -0.270733
     2  C    0.476757
     3  C   -0.069894
     4  C    0.350022
     5  S   -0.264193
     7  C    0.171198
     8  S   -0.407623
     9  C    0.137056
    10  C    0.205724
    11  C    0.053983
    13  S   -0.179925
    14  C   -0.132821
    15  C    0.091363
    19  O   -0.160914
 Electronic spatial extent (au):  <R**2>=           4993.9846
 Charge=             -0.0000 electrons
 Dipole moment (field-independent basis, Debye):
    X=              1.3893    Y=              1.2715    Z=              1.3054  Tot=              2.2915
 Quadrupole moment (field-independent basis, Debye-Ang):
   XX=           -100.8480   YY=            -90.4311   ZZ=           -105.7606
   XY=              1.0005   XZ=              2.5796   YZ=              4.0039
 Traceless Quadrupole moment (field-independent basis, Debye-Ang):
   XX=             -1.8348   YY=              8.5821   ZZ=             -6.7473
   XY=              1.0005   XZ=              2.5796   YZ=              4.0039
 Octapole moment (field-independent basis, Debye-Ang**2):
  XXX=             67.5458  YYY=             27.3626  ZZZ=              5.0354  XYY=            -36.7133
  XXY=             36.7402  XXZ=             26.3404  XZZ=            -10.3791  YZZ=              5.4616
  YYZ=             13.8629  XYZ=            -29.0758
 Hexadecapole moment (field-independent basis, Debye-Ang**3):
 XXXX=          -5645.6980 YYYY=           -775.7440 ZZZZ=           -357.9324 XXXY=             11.2438
 XXXZ=            112.0405 YYYX=            -94.8061 YYYZ=             34.2479 ZZZX=             -2.7410
 ZZZY=             14.5890 XXYY=           -840.8667 XXZZ=          -1007.2774 YYZZ=           -181.8107
 XXYZ=            130.9873 YYXZ=            -60.8665 ZZXY=            -42.8734
 N-N= 1.075511690021D+03 E-N=-6.060252746915D+03  KE= 1.648893305831D+03
 Calling FoFJK, ICntrl=      2127 FMM=F ISym2X=0 I1Cent= 0 IOpClX= 0 NMat=1 NMatS=1 NMatT=0.
 ***** Axes restored to original set *****
 -------------------------------------------------------------------
 Center     Atomic                   Forces (Hartrees/Bohr)
 Number     Number              X              Y              Z
 -------------------------------------------------------------------
      1        6          -0.018480820    0.007809486   -0.021200582
      2        6           0.005989403    0.019979823   -0.018278633
      3        6          -0.048992061    0.027071861    0.007262818
      4        6          -0.007215324    0.059163366   -0.010499955
      5       16          -0.005407512    0.037560613   -0.003086790
      6        1           0.002408383   -0.003435395   -0.000362640
      7        6           0.059050093   -0.012745534    0.024453385
      8       16          -0.008611010   -0.015538102    0.012865699
      9        6           0.012791716    0.000802014    0.037719340
     10        6          -0.027391999    0.025330186   -0.020770367
     11        6          -0.038281443    0.023291206   -0.043261190
     12        1          -0.005525532   -0.003788727    0.000387496
     13       16           0.007106654    0.004019410   -0.022238097
     14        6          -0.053896069    0.007091717   -0.035427068
     15        6           0.038486298   -0.004960565    0.049137088
     16        1           0.002040330   -0.006996235    0.001168204
     17        1           0.004179766   -0.008463423   -0.001880721
     18        1           0.014526965   -0.070742074    0.019512707
     19        8           0.023249776    0.026720148   -0.007102785
     20        1           0.043972387   -0.112169775    0.031602090
 -------------------------------------------------------------------
 Cartesian Forces:  Max     0.112169775 RMS     0.029792194

 GradGradGradGradGradGradGradGradGradGradGradGradGradGradGradGradGradGrad
 Berny optimization.
 FormGI is forming the generalized inverse of G from B-inverse, IUseBI=4.
 Internal  Forces:  Max     0.121146998 RMS     0.024615046
 Search for a local minimum.
 Step number   1 out of a maximum of  116
 All quantities printed in internal units (Hartrees-Bohrs-Radians)
 Mixed Optimization -- RFO/linear search
 Second derivative matrix not updated -- first step.
 ITU=  0
     Eigenvalues ---    0.00230   0.00983   0.01056   0.01222   0.01275
     Eigenvalues ---    0.01300   0.01386   0.01417   0.01425   0.01464
     Eigenvalues ---    0.01492   0.01554   0.01595   0.01773   0.02199
     Eigenvalues ---    0.02653   0.15074   0.15685   0.15738   0.15872
     Eigenvalues ---    0.15997   0.16000   0.17990   0.18458   0.20203
     Eigenvalues ---    0.21719   0.22443   0.23320   0.23380   0.23776
     Eigenvalues ---    0.23977   0.24292   0.24978   0.24995   0.26219
     Eigenvalues ---    0.26568   0.28405   0.30834   0.31308   0.31542
     Eigenvalues ---    0.34810   0.35150   0.35787   0.35849   0.36006
     Eigenvalues ---    0.36126   0.36324   0.37598   0.38326   0.38494
     Eigenvalues ---    0.39449   0.39694   0.406081000.000001000.00000
     Eigenvalues --- 1000.000001000.000001000.000001000.000001000.00000
     Eigenvalues --- 1000.000001000.000001000.000001000.000001000.00000
     Eigenvalues --- 1000.000001000.000001000.000001000.000001000.00000
     Eigenvalues --- 1000.000001000.000001000.000001000.000001000.00000
     Eigenvalues --- 1000.000001000.000001000.000001000.000001000.00000
     Eigenvalues --- 1000.000001000.000001000.000001000.000001000.00000
     Eigenvalues --- 1000.000001000.000001000.000001000.000001000.00000
     Eigenvalues --- 1000.000001000.000001000.000001000.000001000.00000
     Eigenvalues --- 1000.000001000.000001000.000001000.000001000.00000
     Eigenvalues --- 1000.000001000.000001000.000001000.000001000.00000
     Eigenvalues --- 1000.00000
 RFO step:  Lambda=-1.60038355D-01 EMin= 2.30000000D-03
 Linear search not attempted -- first point.
 Maximum step size (   0.300) exceeded in Quadratic search.
    -- Step size scaled by   0.474
 Iteration  1 RMS(Cart)=  0.05956535 RMS(Int)=  0.00132956
 Iteration  2 RMS(Cart)=  0.00154424 RMS(Int)=  0.00005997
 Iteration  3 RMS(Cart)=  0.00000768 RMS(Int)=  0.00005976
 Iteration  4 RMS(Cart)=  0.00000000 RMS(Int)=  0.00005976
 Iteration  1 RMS(Cart)=  0.00000004 RMS(Int)=  0.00000002
 Variable       Old X    -DE/DX   Delta X   Delta X   Delta X     New X
                                 (Linear)    (Quad)   (Total)
    R1        2.71917  -0.02397   0.00000  -0.02136  -0.02130   2.69788
    R2        2.71391  -0.06910   0.00000  -0.05878  -0.05876   2.65515
    R3        3.19503  -0.10697   0.00000  -0.14700  -0.14700   3.04803
    R4        2.75906  -0.07498   0.00000  -0.06736  -0.06734   2.69173
    R5        2.35064  -0.07286   0.00000  -0.09147  -0.09147   2.25917
    R6        3.39578  -0.02629   0.00000  -0.02834  -0.02839   3.36739
    R7        2.74954  -0.01070   0.00000  -0.00945  -0.00945   2.74008
    R8        3.28671  -0.02199   0.00000  -0.02117  -0.02121   3.26550
    R9        2.04073  -0.00049   0.00000  -0.00044  -0.00044   2.04028
   R10        3.38273  -0.01895   0.00000  -0.02002  -0.02005   3.36268
   R11        2.76778  -0.07225   0.00000  -0.06555  -0.06556   2.70222
   R12        3.26995  -0.00620   0.00000  -0.00545  -0.00546   3.26450
   R13        2.72291  -0.03891   0.00000  -0.03378  -0.03371   2.68919
   R14        2.69517  -0.00291   0.00000  -0.00314  -0.00309   2.69208
   R15        2.70729  -0.01353   0.00000  -0.01215  -0.01213   2.69516
   R16        3.27386  -0.00460   0.00000  -0.00375  -0.00376   3.27010
   R17        2.03885   0.00187   0.00000   0.00170   0.00170   2.04056
   R18        3.33525  -0.01794   0.00000  -0.01830  -0.01835   3.31689
   R19        2.72966  -0.06550   0.00000  -0.05686  -0.05687   2.67279
   R20        2.04416  -0.00147   0.00000  -0.00135  -0.00135   2.04281
   R21        2.05432  -0.00420   0.00000  -0.00389  -0.00389   2.05043
   R22        2.39943  -0.12115   0.00000  -0.15846  -0.15846   2.24097
    A1        1.97020   0.01978   0.00000   0.02141   0.02150   1.99170
    A2        2.13260   0.00499   0.00000   0.00724   0.00720   2.13980
    A3        2.16079  -0.02412   0.00000  -0.02692  -0.02701   2.13378
    A4        1.97187  -0.00389   0.00000  -0.00652  -0.00643   1.96544
    A5        1.96334   0.02155   0.00000   0.03246   0.03242   1.99575
    A6        2.34288  -0.01746   0.00000  -0.02532  -0.02538   2.31750
    A7        1.90440   0.00139   0.00000   0.00234   0.00232   1.90672
    A8        2.31891  -0.00885   0.00000  -0.01058  -0.01058   2.30834
    A9        2.05972   0.00747   0.00000   0.00827   0.00828   2.06799
   A10        1.95339  -0.01495   0.00000  -0.01835  -0.01836   1.93503
   A11        2.17580   0.01171   0.00000   0.01545   0.01546   2.19126
   A12        2.15384   0.00327   0.00000   0.00296   0.00296   2.15681
   A13        1.62490  -0.00231   0.00000   0.00114   0.00098   1.62588
   A14        2.12893  -0.00448   0.00000  -0.00500  -0.00501   2.12391
   A15        2.24014  -0.00509   0.00000  -0.00572  -0.00573   2.23441
   A16        1.91342   0.00965   0.00000   0.01091   0.01093   1.92435
   A17        1.61914  -0.00763   0.00000  -0.00694  -0.00692   1.61222
   A18        1.96126  -0.01014   0.00000  -0.01022  -0.01034   1.95092
   A19        2.23840   0.00844   0.00000   0.01340   0.01328   2.25168
   A20        1.96543   0.00559   0.00000   0.00623   0.00627   1.97169
   A21        1.96677   0.00748   0.00000   0.00782   0.00783   1.97461
   A22        1.96634  -0.01273   0.00000  -0.01314  -0.01320   1.95314
   A23        2.23718   0.00862   0.00000   0.01327   0.01316   2.25034
   A24        1.96343   0.00068   0.00000  -0.00147  -0.00141   1.96202
   A25        2.16094  -0.00459   0.00000  -0.00522  -0.00527   2.15566
   A26        2.14695   0.00445   0.00000   0.00816   0.00811   2.15506
   A27        1.59312   0.00029   0.00000   0.00163   0.00161   1.59474
   A28        1.96038   0.00212   0.00000   0.00177   0.00175   1.96213
   A29        2.13606  -0.00479   0.00000  -0.00587  -0.00593   2.13014
   A30        2.16968   0.00375   0.00000   0.00692   0.00687   2.17655
   A31        1.93919   0.00473   0.00000   0.00351   0.00357   1.94276
   A32        2.16505   0.00048   0.00000   0.00357   0.00347   2.16852
   A33        2.14207  -0.00330   0.00000  -0.00215  -0.00226   2.13981
   A34        2.33954  -0.06937   0.00000  -0.10266  -0.10266   2.23688
    D1        0.00683  -0.00095   0.00000  -0.00231  -0.00232   0.00451
    D2        3.05589  -0.00031   0.00000   0.00165   0.00180   3.05769
    D3       -2.93068  -0.00147   0.00000  -0.00796  -0.00815  -2.93883
    D4        0.11838  -0.00083   0.00000  -0.00400  -0.00404   0.11435
    D5       -0.00671   0.00060   0.00000   0.00147   0.00148  -0.00523
    D6       -3.13020  -0.00103   0.00000  -0.00230  -0.00228  -3.13248
    D7        2.92697   0.00520   0.00000   0.01199   0.01191   2.93888
    D8       -0.19651   0.00357   0.00000   0.00822   0.00814  -0.18837
    D9       -0.13323   0.00185   0.00000   0.00258   0.00253  -0.13069
   D10       -3.04818  -0.00438   0.00000  -0.00995  -0.00990  -3.05808
   D11       -0.00388   0.00101   0.00000   0.00222   0.00218  -0.00170
   D12        3.11762   0.00181   0.00000   0.00394   0.00390   3.12152
   D13       -3.02603  -0.00293   0.00000  -0.00747  -0.00743  -3.03346
   D14        0.09547  -0.00213   0.00000  -0.00576  -0.00571   0.08976
   D15        0.00006  -0.00051   0.00000  -0.00113  -0.00111  -0.00105
   D16       -3.12486  -0.00097   0.00000  -0.00231  -0.00231  -3.12717
   D17       -0.87254  -0.00050   0.00000   0.00000   0.00000  -0.87254
   D18        2.22469   0.00221   0.00000   0.00664   0.00663   2.23132
   D19        2.24755   0.00028   0.00000   0.00176   0.00177   2.24932
   D20       -0.93841   0.00299   0.00000   0.00840   0.00840  -0.93001
   D21        0.00376  -0.00006   0.00000  -0.00020  -0.00022   0.00354
   D22        3.12751   0.00166   0.00000   0.00368   0.00362   3.13113
   D23        3.13790   0.00088   0.00000   0.00236   0.00236   3.14027
   D24        0.03324  -0.00110   0.00000  -0.00286  -0.00289   0.03035
   D25       -3.13871  -0.00189   0.00000  -0.00445  -0.00443   3.14004
   D26       -0.15798   0.00225   0.00000   0.00623   0.00622  -0.15176
   D27       -0.03707   0.00030   0.00000   0.00125   0.00130  -0.03577
   D28        2.94366   0.00444   0.00000   0.01193   0.01195   2.95561
   D29       -0.02158   0.00208   0.00000   0.00427   0.00424  -0.01734
   D30       -2.61584  -0.00696   0.00000  -0.01649  -0.01652  -2.63236
   D31        0.00362  -0.00184   0.00000  -0.00391  -0.00388  -0.00026
   D32       -2.68835  -0.01056   0.00000  -0.02237  -0.02219  -2.71054
   D33        2.68660   0.00762   0.00000   0.01685   0.01673   2.70333
   D34       -0.00538  -0.00110   0.00000  -0.00162  -0.00158  -0.00696
   D35        2.61302   0.00603   0.00000   0.01793   0.01807   2.63108
   D36       -0.24607  -0.00062   0.00000  -0.00010  -0.00004  -0.24611
   D37        0.01981   0.00094   0.00000   0.00128   0.00125   0.02106
   D38       -2.83929  -0.00570   0.00000  -0.01675  -0.01685  -2.85613
   D39        0.02220   0.00097   0.00000   0.00160   0.00158   0.02378
   D40       -2.96003  -0.00216   0.00000  -0.00756  -0.00764  -2.96766
   D41        2.62835   0.00452   0.00000   0.01486   0.01499   2.64334
   D42       -0.35387   0.00139   0.00000   0.00570   0.00577  -0.34810
   D43       -0.00807   0.00102   0.00000   0.00140   0.00138  -0.00670
   D44       -2.61434  -0.00753   0.00000  -0.01705  -0.01701  -2.63135
   D45        0.01945  -0.00037   0.00000  -0.00056  -0.00056   0.01889
   D46        2.97137   0.00608   0.00000   0.01581   0.01574   2.98711
   D47       -0.02581  -0.00014   0.00000  -0.00019  -0.00017  -0.02597
   D48        2.83765   0.00709   0.00000   0.01863   0.01865   2.85630
   D49       -2.97342  -0.00564   0.00000  -0.01528  -0.01532  -2.98875
   D50       -0.10997   0.00159   0.00000   0.00353   0.00350  -0.10647
         Item               Value     Threshold  Converged?
 Maximum Force            0.121147     0.000450     NO 
 RMS     Force            0.024732     0.000300     NO 
 Maximum Displacement     0.387397     0.001800     NO 
 RMS     Displacement     0.059167     0.001200     NO 
 Predicted change in Energy=-6.536641D-02
 GradGradGradGradGradGradGradGradGradGradGradGradGradGradGradGradGradGrad

                          Input orientation:                          
 ---------------------------------------------------------------------
 Center     Atomic      Atomic             Coordinates (Angstroms)
 Number     Number       Type             X           Y           Z
 ---------------------------------------------------------------------
      1          6           0       -4.223082   -1.366000   -0.223114
      2          6           0       -2.913809   -0.958421   -0.620454
      3          6           0       -1.981537   -2.035356   -0.620962
      4          6           0       -4.328842   -2.731548    0.090337
      5         16           0       -2.809140   -3.528955   -0.111484
      6          1           0       -5.230899   -3.235835    0.402874
      7          6           0       -0.574827   -2.107121   -0.965177
      8         16           0        0.048112   -1.445723   -2.495196
      9          6           0        1.668387   -1.913594   -2.120964
     10          6           0        1.755541   -2.542719   -0.847502
     11          6           0        0.497348   -2.639322   -0.182891
     12          1           0        0.390032   -2.941825    0.848116
     13         16           0        3.338572   -2.399174   -0.163458
     14          6           0        3.909825   -1.511113   -1.565539
     15          6           0        2.892823   -1.309560   -2.527598
     16          1           0        4.880366   -1.035538   -1.586974
     17          1           0        2.977412   -0.576292   -3.322882
     18          1           0       -2.838536    0.180914   -0.974678
     19          8           0       -5.517748   -0.419651   -0.395928
     20          1           0       -5.554998    0.716834   -0.732528
 ---------------------------------------------------------------------
                    Distance matrix (angstroms):
                    1          2          3          4          5
     1  C    0.000000
     2  C    1.427654   0.000000
     3  C    2.372940   1.424402   0.000000
     4  C    1.405047   2.377294   2.549603   0.000000
     5  S    2.586516   2.622527   1.781946   1.728029   0.000000
     6  H    2.214462   3.406277   3.612167   1.079672   2.493070
     7  C    3.796009   2.628532   1.449989   3.949260   2.782545
     8  S    4.838575   3.539081   2.824871   5.243668   4.264484
     9  C    6.213783   4.915324   3.948009   6.444041   5.166784
    10  C    6.125232   4.936029   3.778159   6.159133   4.727653
    11  C    4.889317   3.827908   2.588735   4.834798   3.424822
    12  H    4.991150   4.123827   2.933294   4.783954   3.391202
    13  S    7.632143   6.432485   5.352123   7.678810   6.250877
    14  C    8.244230   6.910906   5.989590   8.491585   7.164527
    15  C    7.479969   6.121885   5.284073   7.812048   6.578428
    16  H    9.210976   7.854251   7.001323   9.513114   8.217220
    17  H    7.879043   6.492736   5.832702   8.347248   7.246757
    18  H    2.207886   1.195502   2.402377   3.440597   3.809080
    19  O    1.612948   2.668555   3.894346   2.644772   4.133429
    20  H    2.524223   3.129684   4.511832   3.751254   5.094326
                    6          7          8          9         10
     6  H    0.000000
     7  C    4.982426   0.000000
     8  S    6.282616   1.779454   0.000000
     9  C    7.464465   2.530871   1.727497   0.000000
    10  C    7.131213   2.373649   2.614118   1.423061   0.000000
    11  C    5.788934   1.429954   2.640690   2.377844   1.426215
    12  H    5.646198   2.217141   3.678718   3.392181   2.213373
    13  S    8.628822   4.005338   4.144055   2.618613   1.730464
    14  C    9.508004   4.563744   3.972577   2.344041   2.494138
    15  C    8.848337   3.886111   2.848153   1.424588   2.374198
    16  H   10.537480   5.594108   4.933943   3.372378   3.547244
    17  H    9.398447   4.529968   3.165719   2.224079   3.389294
    18  H    4.392633   3.218629   3.645635   5.100322   5.342274
    19  O    2.941302   5.253957   6.036435   7.539771   7.590262
    20  H    4.125260   5.729830   6.259273   7.811799   8.005117
                   11         12         13         14         15
    11  C    0.000000
    12  H    1.079815   0.000000
    13  S    2.851421   3.164118   0.000000
    14  C    3.850918   4.501290   1.755224   0.000000
    15  C    3.606137   4.508182   2.641043   1.414381   0.000000
    16  H    4.873851   5.452219   2.502605   1.081009   2.215894
    17  H    4.501817   5.448625   3.665419   2.198076   1.085041
    18  H    4.439456   4.847445   6.743262   6.982294   6.122218
    19  O    6.415115   6.543001   9.077827   9.562343   8.722022
    20  H    6.942390   7.157346   9.440812   9.759125   8.870977
                   16         17         18         19         20
    16  H    0.000000
    17  H    2.616393   0.000000
    18  H    7.838118   6.317648   0.000000
    19  O   10.484210   8.986620   2.806031   0.000000
    20  H   10.615917   9.010224   2.779391   1.185869   0.000000
 Stoichiometry    C10H6OS3
 Framework group  C1[X(C10H6OS3)]
 Deg. of freedom    54
 Full point group                 C1      NOp   1
 Largest Abelian subgroup         C1      NOp   1
 Largest concise Abelian subgroup C1      NOp   1
                         Standard orientation:                         
 ---------------------------------------------------------------------
 Center     Atomic      Atomic             Coordinates (Angstroms)
 Number     Number       Type             X           Y           Z
 ---------------------------------------------------------------------
      1          6           0       -3.799853    0.307311    0.490124
      2          6           0       -2.455519    0.768667    0.624712
      3          6           0       -1.513135   -0.102218    0.006334
      4          6           0       -3.923768   -0.903117   -0.212491
      5         16           0       -2.376745   -1.480152   -0.722231
      6          1           0       -4.851380   -1.412095   -0.427359
      7          6           0       -0.071148   -0.038557   -0.131822
      8         16           0        0.746782    1.423173   -0.732482
      9          6           0        2.307295    0.696410   -0.588048
     10          6           0        2.227566   -0.627186   -0.071484
     11          6           0        0.891035   -1.041520    0.204387
     12          1           0        0.646669   -1.945878    0.741436
     13         16           0        3.697133   -1.106176    0.706621
     14          6           0        4.442023    0.441713    0.346080
     15          6           0        3.565410    1.316035   -0.337720
     16          1           0        5.397431    0.729290    0.762103
     17          1           0        3.746751    2.383007   -0.415177
     18          1           0       -2.352067    1.841610    1.141737
     19          8           0       -5.074579    1.226799    0.852360
     20          1           0       -5.084939    2.294927    1.367415
 ---------------------------------------------------------------------
 Rotational constants (GHZ):           1.3827998           0.2288206           0.2096603
 Standard basis: 6-311+G(d,p) (5D, 7F)
 There are   382 symmetry adapted cartesian basis functions of A   symmetry.
 There are   368 symmetry adapted basis functions of A   symmetry.
   368 basis functions,   594 primitive gaussians,   382 cartesian basis functions
    61 alpha electrons       61 beta electrons
       nuclear repulsion energy      1087.1436516512 Hartrees.
 NAtoms=   20 NActive=   20 NUniq=   20 SFac= 1.00D+00 NAtFMM=   60 NAOKFM=F Big=F
 Integral buffers will be    131072 words long.
 Raffenetti 2 integral format.
 Two-electron integral symmetry is turned on.
 Nuclear repulsion after empirical dispersion term =     1087.1337197573 Hartrees.
 One-electron integrals computed using PRISM.
 NBasis=   368 RedAO= T EigKep=  2.81D-06  NBF=   368
 NBsUse=   367 1.00D-06 EigRej=  5.20D-07 NBFU=   367
 Initial guess from the checkpoint file:  "/tmp/pbs.4766238[125].pbs/Gau-3763807.chk"
 B after Tr=    -0.000000    0.000000    0.000000
         Rot=    0.999975   -0.006700   -0.000945    0.002208 Ang=  -0.82 deg.
 ExpMin= 4.05D-02 ExpMax= 9.34D+04 ExpMxC= 3.17D+03 IAcc=3 IRadAn=         5 AccDes= 0.00D+00
 Harris functional with IExCor= 4639 and IRadAn=       5 diagonalized for initial guess.
 HarFok:  IExCor= 4639 AccDes= 0.00D+00 IRadAn=         5 IDoV= 1 UseB2=F ITyADJ=14
 ICtDFT=  3500011 ScaDFX=  1.000000  1.000000  1.000000  1.000000
 FoFCou: FMM=F IPFlag=           0 FMFlag=      100000 FMFlg1=           0
         NFxFlg=           0 DoJE=T BraDBF=F KetDBF=T FulRan=T
         wScrn=  0.000000 ICntrl=       500 IOpCl=  0 I1Cent=   200000004 NGrid=           0
         NMat0=    1 NMatS0=      1 NMatT0=    0 NMatD0=    1 NMtDS0=    0 NMtDT0=    0
 Petite list used in FoFCou.
 Requested convergence on RMS density matrix=1.00D-08 within 128 cycles.
 Requested convergence on MAX density matrix=1.00D-06.
 Requested convergence on             energy=1.00D-06.
 No special actions if energy rises.
 SCF Done:  E(RwB97XD) =  -1654.29612920     A.U. after   15 cycles
            NFock= 15  Conv=0.71D-08     -V/T= 2.0029
 Calling FoFJK, ICntrl=      2127 FMM=F ISym2X=0 I1Cent= 0 IOpClX= 0 NMat=1 NMatS=1 NMatT=0.
 ***** Axes restored to original set *****
 -------------------------------------------------------------------
 Center     Atomic                   Forces (Hartrees/Bohr)
 Number     Number              X              Y              Z
 -------------------------------------------------------------------
      1        6          -0.037941356    0.024803505   -0.021397145
      2        6           0.005028397    0.021716685   -0.016617369
      3        6          -0.038560753    0.017398872    0.006560531
      4        6          -0.005415261    0.043545886   -0.006480629
      5       16           0.000189784    0.024461719   -0.001799360
      6        1           0.002126738   -0.002848030   -0.000712976
      7        6           0.046662689   -0.008906678    0.017259402
      8       16          -0.008941164   -0.012257220    0.007444806
      9        6           0.008347554    0.002161619    0.029462150
     10        6          -0.016964097    0.021474795   -0.015889238
     11        6          -0.030040981    0.015918651   -0.030102861
     12        1          -0.004216413   -0.003791287   -0.000210132
     13       16           0.007726899    0.000589462   -0.014795484
     14        6          -0.039437425    0.006485476   -0.025448894
     15        6           0.028469574   -0.001786345    0.035009066
     16        1           0.002109519   -0.006367018    0.001142802
     17        1           0.003128201   -0.007516625   -0.002951727
     18        1           0.011789827   -0.056382199    0.016210560
     19        8           0.035899211    0.030907924   -0.008311263
     20        1           0.030039057   -0.109609194    0.031627760
 -------------------------------------------------------------------
 Cartesian Forces:  Max     0.109609194 RMS     0.025519359

 GradGradGradGradGradGradGradGradGradGradGradGradGradGradGradGradGradGrad
 Berny optimization.
 Using GEDIIS/GDIIS optimizer.
 FormGI is forming the generalized inverse of G from B-inverse, IUseBI=4.
 Internal  Forces:  Max     0.114966492 RMS     0.020418580
 Search for a local minimum.
 Step number   2 out of a maximum of  116
 All quantities printed in internal units (Hartrees-Bohrs-Radians)
 Mixed Optimization -- RFO/linear search
 Update second derivatives using D2CorX and points    1    2
 DE= -7.02D-02 DEPred=-6.54D-02 R= 1.07D+00
 TightC=F SS=  1.41D+00  RLast= 3.07D-01 DXNew= 5.0454D-01 9.1968D-01
 Trust test= 1.07D+00 RLast= 3.07D-01 DXMaxT set to 5.05D-01
 ITU=  1  0
 Use linear search instead of GDIIS.
 Linear search step of   0.600 exceeds DXMaxT=   0.505 but not scaled.
 Quartic linear search produced a step of  2.00000.
 Iteration  1 RMS(Cart)=  0.10258804 RMS(Int)=  0.01796867
 Iteration  2 RMS(Cart)=  0.02018145 RMS(Int)=  0.00036663
 Iteration  3 RMS(Cart)=  0.00010792 RMS(Int)=  0.00035884
 Iteration  4 RMS(Cart)=  0.00000003 RMS(Int)=  0.00035884
 Iteration  1 RMS(Cart)=  0.00000171 RMS(Int)=  0.00000087
 Iteration  2 RMS(Cart)=  0.00000094 RMS(Int)=  0.00000097
 Variable       Old X    -DE/DX   Delta X   Delta X   Delta X     New X
                                 (Linear)    (Quad)   (Total)
    R1        2.69788  -0.01306  -0.04259   0.00000  -0.04218   2.65569
    R2        2.65515  -0.04701  -0.11752   0.00000  -0.11735   2.53781
    R3        3.04803  -0.10160  -0.29401   0.00000  -0.29401   2.75402
    R4        2.69173  -0.05138  -0.13467   0.00000  -0.13451   2.55722
    R5        2.25917  -0.05779  -0.18294   0.00000  -0.18294   2.07623
    R6        3.36739  -0.01990  -0.05678   0.00000  -0.05708   3.31031
    R7        2.74008  -0.00358  -0.01891   0.00000  -0.01891   2.72117
    R8        3.26550  -0.01220  -0.04242   0.00000  -0.04272   3.22279
    R9        2.04028  -0.00065  -0.00089   0.00000  -0.00089   2.03939
   R10        3.36268  -0.01367  -0.04009   0.00000  -0.04027   3.32241
   R11        2.70222  -0.05175  -0.13112   0.00000  -0.13115   2.57107
   R12        3.26450  -0.00223  -0.01091   0.00000  -0.01095   3.25355
   R13        2.68919  -0.02725  -0.06743   0.00000  -0.06704   2.62216
   R14        2.69208  -0.00035  -0.00618   0.00000  -0.00591   2.68617
   R15        2.69516  -0.00654  -0.02426   0.00000  -0.02411   2.67105
   R16        3.27010  -0.00147  -0.00752   0.00000  -0.00762   3.26248
   R17        2.04056   0.00128   0.00341   0.00000   0.00341   2.04396
   R18        3.31689  -0.01247  -0.03671   0.00000  -0.03700   3.27989
   R19        2.67279  -0.04587  -0.11373   0.00000  -0.11376   2.55903
   R20        2.04281  -0.00093  -0.00269   0.00000  -0.00269   2.04012
   R21        2.05043  -0.00267  -0.00779   0.00000  -0.00779   2.04264
   R22        2.24097  -0.11497  -0.31693   0.00000  -0.31693   1.92404
    A1        1.99170   0.01130   0.04299   0.00000   0.04352   2.03521
    A2        2.13980   0.00632   0.01441   0.00000   0.01417   2.15397
    A3        2.13378  -0.01695  -0.05402   0.00000  -0.05450   2.07928
    A4        1.96544  -0.00241  -0.01286   0.00000  -0.01229   1.95315
    A5        1.99575   0.01835   0.06483   0.00000   0.06454   2.06030
    A6        2.31750  -0.01574  -0.05076   0.00000  -0.05112   2.26638
    A7        1.90672   0.00275   0.00465   0.00000   0.00460   1.91132
    A8        2.30834  -0.00800  -0.02115   0.00000  -0.02113   2.28721
    A9        2.06799   0.00526   0.01655   0.00000   0.01657   2.08456
   A10        1.93503  -0.00852  -0.03673   0.00000  -0.03680   1.89822
   A11        2.19126   0.00780   0.03091   0.00000   0.03093   2.22219
   A12        2.15681   0.00074   0.00593   0.00000   0.00594   2.16275
   A13        1.62588  -0.00312   0.00197   0.00000   0.00098   1.62686
   A14        2.12391  -0.00427  -0.01002   0.00000  -0.01013   2.11378
   A15        2.23441  -0.00324  -0.01147   0.00000  -0.01157   2.22284
   A16        1.92435   0.00758   0.02186   0.00000   0.02199   1.94635
   A17        1.61222  -0.00557  -0.01384   0.00000  -0.01372   1.59850
   A18        1.95092  -0.00710  -0.02068   0.00000  -0.02138   1.92954
   A19        2.25168   0.00700   0.02656   0.00000   0.02585   2.27753
   A20        1.97169   0.00358   0.01253   0.00000   0.01273   1.98442
   A21        1.97461   0.00447   0.01566   0.00000   0.01570   1.99031
   A22        1.95314  -0.00848  -0.02641   0.00000  -0.02675   1.92639
   A23        2.25034   0.00709   0.02633   0.00000   0.02568   2.27603
   A24        1.96202   0.00067  -0.00282   0.00000  -0.00246   1.95956
   A25        2.15566  -0.00333  -0.01055   0.00000  -0.01086   2.14480
   A26        2.15506   0.00315   0.01622   0.00000   0.01590   2.17096
   A27        1.59474  -0.00055   0.00323   0.00000   0.00313   1.59786
   A28        1.96213   0.00242   0.00351   0.00000   0.00341   1.96554
   A29        2.13014  -0.00477  -0.01185   0.00000  -0.01220   2.11793
   A30        2.17655   0.00330   0.01375   0.00000   0.01349   2.19004
   A31        1.94276   0.00303   0.00713   0.00000   0.00747   1.95023
   A32        2.16852   0.00023   0.00693   0.00000   0.00630   2.17482
   A33        2.13981  -0.00162  -0.00453   0.00000  -0.00521   2.13460
   A34        2.23688  -0.05920  -0.20531   0.00000  -0.20531   2.03157
    D1        0.00451  -0.00071  -0.00464   0.00000  -0.00469  -0.00018
    D2        3.05769   0.00029   0.00359   0.00000   0.00446   3.06215
    D3       -2.93883  -0.00242  -0.01631   0.00000  -0.01741  -2.95624
    D4        0.11435  -0.00142  -0.00807   0.00000  -0.00826   0.10609
    D5       -0.00523   0.00042   0.00297   0.00000   0.00304  -0.00219
    D6       -3.13248  -0.00097  -0.00456   0.00000  -0.00445  -3.13692
    D7        2.93888   0.00507   0.02381   0.00000   0.02331   2.96219
    D8       -0.18837   0.00368   0.01629   0.00000   0.01583  -0.17254
    D9       -0.13069   0.00145   0.00507   0.00000   0.00476  -0.12594
   D10       -3.05808  -0.00383  -0.01980   0.00000  -0.01949  -3.07757
   D11       -0.00170   0.00073   0.00437   0.00000   0.00411   0.00241
   D12        3.12152   0.00154   0.00780   0.00000   0.00752   3.12904
   D13       -3.03346  -0.00304  -0.01486   0.00000  -0.01457  -3.04803
   D14        0.08976  -0.00223  -0.01143   0.00000  -0.01115   0.07861
   D15       -0.00105  -0.00040  -0.00221   0.00000  -0.00209  -0.00314
   D16       -3.12717  -0.00092  -0.00463   0.00000  -0.00461  -3.13178
   D17       -0.87254  -0.00052   0.00000   0.00000   0.00000  -0.87254
   D18        2.23132   0.00206   0.01326   0.00000   0.01323   2.24456
   D19        2.24932   0.00031   0.00353   0.00000   0.00355   2.25287
   D20       -0.93001   0.00289   0.01679   0.00000   0.01678  -0.91323
   D21        0.00354  -0.00002  -0.00043   0.00000  -0.00056   0.00298
   D22        3.13113   0.00141   0.00723   0.00000   0.00687   3.13799
   D23        3.14027   0.00079   0.00473   0.00000   0.00478  -3.13814
   D24        0.03035  -0.00120  -0.00578   0.00000  -0.00597   0.02439
   D25        3.14004  -0.00151  -0.00886   0.00000  -0.00877   3.13128
   D26       -0.15176   0.00226   0.01244   0.00000   0.01234  -0.13942
   D27       -0.03577   0.00064   0.00260   0.00000   0.00291  -0.03287
   D28        2.95561   0.00442   0.02390   0.00000   0.02401   2.97962
   D29       -0.01734   0.00177   0.00848   0.00000   0.00830  -0.00904
   D30       -2.63236  -0.00632  -0.03303   0.00000  -0.03318  -2.66554
   D31       -0.00026  -0.00142  -0.00776   0.00000  -0.00760  -0.00786
   D32       -2.71054  -0.00926  -0.04438   0.00000  -0.04328  -2.75382
   D33        2.70333   0.00704   0.03346   0.00000   0.03274   2.73606
   D34       -0.00696  -0.00079  -0.00317   0.00000  -0.00294  -0.00990
   D35        2.63108   0.00616   0.03613   0.00000   0.03692   2.66800
   D36       -0.24611  -0.00027  -0.00007   0.00000   0.00027  -0.24584
   D37        0.02106   0.00054   0.00251   0.00000   0.00238   0.02344
   D38       -2.85613  -0.00589  -0.03369   0.00000  -0.03427  -2.89040
   D39        0.02378   0.00050   0.00317   0.00000   0.00305   0.02683
   D40       -2.96766  -0.00262  -0.01527   0.00000  -0.01572  -2.98338
   D41        2.64334   0.00504   0.02998   0.00000   0.03073   2.67407
   D42       -0.34810   0.00192   0.01154   0.00000   0.01196  -0.33614
   D43       -0.00670   0.00085   0.00275   0.00000   0.00263  -0.00407
   D44       -2.63135  -0.00666  -0.03403   0.00000  -0.03379  -2.66514
   D45        0.01889  -0.00045  -0.00112   0.00000  -0.00114   0.01775
   D46        2.98711   0.00562   0.03148   0.00000   0.03104   3.01814
   D47       -0.02597   0.00012  -0.00033   0.00000  -0.00019  -0.02616
   D48        2.85630   0.00674   0.03731   0.00000   0.03745   2.89375
   D49       -2.98875  -0.00520  -0.03065   0.00000  -0.03088  -3.01962
   D50       -0.10647   0.00142   0.00699   0.00000   0.00676  -0.09971
         Item               Value     Threshold  Converged?
 Maximum Force            0.114966     0.000450     NO 
 RMS     Force            0.020515     0.000300     NO 
 Maximum Displacement     0.700015     0.001800     NO 
 RMS     Displacement     0.115441     0.001200     NO 
 Predicted change in Energy=-1.035565D-01
 GradGradGradGradGradGradGradGradGradGradGradGradGradGradGradGradGradGrad

                          Input orientation:                          
 ---------------------------------------------------------------------
 Center     Atomic      Atomic             Coordinates (Angstroms)
 Number     Number       Type             X           Y           Z
 ---------------------------------------------------------------------
      1          6           0       -4.166999   -1.373548   -0.249665
      2          6           0       -2.878181   -0.972788   -0.641195
      3          6           0       -2.001757   -2.003706   -0.623709
      4          6           0       -4.323346   -2.668750    0.068960
      5         16           0       -2.825803   -3.463607   -0.115538
      6          1           0       -5.230669   -3.159716    0.385807
      7          6           0       -0.601834   -2.060462   -0.956192
      8         16           0       -0.000235   -1.399760   -2.470335
      9          6           0        1.614077   -1.856651   -2.083673
     10          6           0        1.661592   -2.473515   -0.841650
     11          6           0        0.406745   -2.569780   -0.198260
     12          1           0        0.268242   -2.888908    0.825885
     13         16           0        3.253253   -2.372093   -0.180671
     14          6           0        3.828901   -1.514813   -1.575717
     15          6           0        2.854904   -1.295057   -2.490510
     16          1           0        4.823976   -1.097284   -1.607307
     17          1           0        2.973716   -0.592514   -3.303348
     18          1           0       -2.739947    0.063188   -0.979983
     19          8           0       -5.347071   -0.529980   -0.390142
     20          1           0       -5.184566    0.429742   -0.688757
 ---------------------------------------------------------------------
                    Distance matrix (angstroms):
                    1          2          3          4          5
     1  C    0.000000
     2  C    1.405331   0.000000
     3  C    2.285887   1.353225   0.000000
     4  C    1.342950   2.338613   2.512339   0.000000
     5  S    2.486996   2.546221   1.751742   1.705425   0.000000
     6  H    2.173848   3.372179   3.575102   1.079201   2.475293
     7  C    3.698842   2.542442   1.439983   3.907761   2.760716
     8  S    4.721650   3.436660   2.789421   5.171812   4.217626
     9  C    6.084226   4.800244   3.902227   6.367599   5.115505
    10  C    5.960944   4.785594   3.699777   6.056964   4.652337
    11  C    4.727869   3.679309   2.510444   4.738667   3.354868
    12  H    4.808793   3.965327   2.835102   4.658765   3.284763
    13  S    7.487455   6.305919   5.286504   7.586512   6.176614
    14  C    8.106342   6.793531   5.928061   8.396169   7.086255
    15  C    7.371205   6.032585   5.251122   7.743719   6.527904
    16  H    9.097096   7.763511   6.955552   9.431484   8.145182
    17  H    7.805434   6.440215   5.824711   8.302429   7.213857
    18  H    2.152684   1.098695   2.223489   3.327298   3.632206
    19  O    1.457365   2.520819   3.662997   2.415187   3.877934
    20  H    2.116625   2.699771   4.007015   3.304011   4.588084
                    6          7          8          9         10
     6  H    0.000000
     7  C    4.943221   0.000000
     8  S    6.213890   1.758146   0.000000
     9  C    7.392351   2.494597   1.721703   0.000000
    10  C    7.034258   2.303656   2.562661   1.387587   0.000000
    11  C    5.698210   1.360551   2.587838   2.349678   1.413457
    12  H    5.523136   2.149222   3.626941   3.367840   2.212385
    13  S    8.539214   3.944647   4.095506   2.563980   1.726431
    14  C    9.414302   4.506990   3.933937   2.297894   2.480965
    15  C    8.782177   3.858629   2.857129   1.421462   2.351913
    16  H   10.455717   5.548971   4.910124   3.332719   3.532834
    17  H    9.354802   4.522010   3.192169   2.221321   3.364490
    18  H    4.296066   3.013632   3.444908   4.884817   5.082081
    19  O    2.744296   5.017974   5.802791   7.285993   7.287150
    20  H    3.747136   5.222458   5.779134   7.307183   7.437887
                   11         12         13         14         15
    11  C    0.000000
    12  H    1.081618   0.000000
    13  S    2.853418   3.192262   0.000000
    14  C    3.836860   4.509337   1.735642   0.000000
    15  C    3.587870   4.497738   2.579543   1.354182   0.000000
    16  H    4.864729   5.466722   2.475400   1.079585   2.167120
    17  H    4.487816   5.444592   3.605018   2.136980   1.080921
    18  H    4.176755   4.585328   6.518277   6.781943   5.952217
    19  O    6.107701   6.210878   8.797888   9.304512   8.501135
    20  H    6.363999   6.560541   8.905348   9.263400   8.417501
                   16         17         18         19         20
    16  H    0.000000
    17  H    2.560237   0.000000
    18  H    7.678097   6.202735   0.000000
    19  O   10.259315   8.816246   2.738039   0.000000
    20  H   10.165946   8.627784   2.489043   1.018158   0.000000
 Stoichiometry    C10H6OS3
 Framework group  C1[X(C10H6OS3)]
 Deg. of freedom    54
 Full point group                 C1      NOp   1
 Largest Abelian subgroup         C1      NOp   1
 Largest concise Abelian subgroup C1      NOp   1
                         Standard orientation:                         
 ---------------------------------------------------------------------
 Center     Atomic      Atomic             Coordinates (Angstroms)
 Number     Number       Type             X           Y           Z
 ---------------------------------------------------------------------
      1          6           0       -3.713961    0.319441    0.481672
      2          6           0       -2.385777    0.757783    0.618566
      3          6           0       -1.512529   -0.080564    0.013727
      4          6           0       -3.903690   -0.820433   -0.202584
      5         16           0       -2.388803   -1.407401   -0.721289
      6          1           0       -4.842920   -1.308189   -0.413811
      7          6           0       -0.079113   -0.023646   -0.111283
      8         16           0        0.726691    1.435062   -0.671576
      9          6           0        2.273087    0.690409   -0.535894
     10          6           0        2.148166   -0.610423   -0.069385
     11          6           0        0.815287   -1.004305    0.187810
     12          1           0        0.534892   -1.923486    0.684178
[...]
 Largest Abelian subgroup         C1      NOp   1
 Largest concise Abelian subgroup C1      NOp   1
                         Standard orientation:                         
 ---------------------------------------------------------------------
 Center     Atomic      Atomic             Coordinates (Angstroms)
 Number     Number       Type             X           Y           Z
 ---------------------------------------------------------------------
      1          6           0       -3.809125    0.362133    0.337168
      2          6           0       -2.464417    0.801860    0.505563
      3          6           0       -1.554977   -0.082292   -0.004430
      4          6           0       -3.902776   -0.845812   -0.285564
      5         16           0       -2.345569   -1.457358   -0.694882
      6          1           0       -4.800809   -1.392320   -0.525646
      7          6           0       -0.100239    0.012265    0.012881
      8         16           0        0.679633    1.487304   -0.524446
      9          6           0        2.243559    0.805429   -0.233221
     10          6           0        2.136496   -0.493149    0.225785
     11          6           0        0.798167   -0.951988    0.367166
     12          1           0        0.504813   -1.927391    0.730192
     13         16           0        3.700791   -1.174869    0.517438
     14          6           0        4.466108    0.300980    0.015181
     15          6           0        3.585358    1.267878   -0.355294
     16          1           0        5.543985    0.364232    0.022089
     17          1           0        3.879738    2.249944   -0.697297
     18          1           0       -2.180260    1.720676    1.004554
     19          8           0       -4.906868    1.045146    0.755213
     20          1           0       -4.639139    1.878636    1.143211
 ---------------------------------------------------------------------
 Rotational constants (GHZ):           1.5180717           0.2361071           0.2138958

 **********************************************************************

            Population analysis using the SCF Density.

 **********************************************************************

 Orbital symmetries:
       Occupied  (A) (A) (A) (A) (A) (A) (A) (A) (A) (A) (A) (A)
                 (A) (A) (A) (A) (A) (A) (A) (A) (A) (A) (A) (A)
                 (A) (A) (A) (A) (A) (A) (A) (A) (A) (A) (A) (A)
                 (A) (A) (A) (A) (A) (A) (A) (A) (A) (A) (A) (A)
                 (A) (A) (A) (A) (A) (A) (A) (A) (A) (A) (A) (A)
                 (A)
       Virtual   (A) (A) (A) (A) (A) (A) (A) (A) (A) (A) (A) (A)
                 (A) (A) (A) (A) (A) (A) (A) (A) (A) (A) (A) (A)
                 (A) (A) (A) (A) (A) (A) (A) (A) (A) (A) (A) (A)
                 (A) (A) (A) (A) (A) (A) (A) (A) (A) (A) (A) (A)
                 (A) (A) (A) (A) (A) (A) (A) (A) (A) (A) (A) (A)
                 (A) (A) (A) (A) (A) (A) (A) (A) (A) (A) (A) (A)
                 (A) (A) (A) (A) (A) (A) (A) (A) (A) (A) (A) (A)
                 (A) (A) (A) (A) (A) (A) (A) (A) (A) (A) (A) (A)
                 (A) (A) (A) (A) (A) (A) (A) (A) (A) (A) (A) (A)
                 (A) (A) (A) (A) (A) (A) (A) (A) (A) (A) (A) (A)
                 (A) (A) (A) (A) (A) (A) (A) (A) (A) (A) (A) (A)
                 (A) (A) (A) (A) (A) (A) (A) (A) (A) (A) (A) (A)
                 (A) (A) (A) (A) (A) (A) (A) (A) (A) (A) (A) (A)
                 (A) (A) (A) (A) (A) (A) (A) (A) (A) (A) (A) (A)
                 (A) (A) (A) (A) (A) (A) (A) (A) (A) (A) (A) (A)
                 (A) (A) (A) (A) (A) (A) (A) (A) (A) (A) (A) (A)
                 (A) (A) (A) (A) (A) (A) (A) (A) (A) (A) (A) (A)
                 (A) (A) (A) (A) (A) (A) (A) (A) (A) (A) (A) (A)
                 (A) (A) (A) (A) (A) (A) (A) (A) (A) (A) (A) (A)
                 (A) (A) (A) (A) (A) (A) (A) (A) (A) (A) (A) (A)
                 (A) (A) (A) (A) (A) (A) (A) (A) (A) (A) (A) (A)
                 (A) (A) (A) (A) (A) (A) (A) (A) (A) (A) (A) (A)
                 (A) (A) (A) (A) (A) (A) (A) (A) (A) (A) (A) (A)
                 (A) (A) (A) (A) (A) (A) (A) (A) (A) (A) (A) (A)
                 (A) (A) (A) (A) (A) (A) (A) (A) (A) (A) (A) (A)
                 (A) (A) (A) (A) (A) (A)
 The electronic state is 1-A.
 Alpha  occ. eigenvalues --  -89.05492 -89.05389 -89.05257 -19.28804 -10.35828
 Alpha  occ. eigenvalues --  -10.34171 -10.34000 -10.32798 -10.32734 -10.32648
 Alpha  occ. eigenvalues --  -10.30927 -10.30833 -10.30827 -10.30277  -8.09532
 Alpha  occ. eigenvalues --   -8.09434  -8.09313  -6.04388  -6.04282  -6.04151
 Alpha  occ. eigenvalues --   -6.04016  -6.03909  -6.03769  -6.03577  -6.03497
 Alpha  occ. eigenvalues --   -6.03404  -1.17884  -1.02627  -0.99912  -0.95649
 Alpha  occ. eigenvalues --   -0.87516  -0.86267  -0.84253  -0.81413  -0.80352
 Alpha  occ. eigenvalues --   -0.72420  -0.67888  -0.67034  -0.64588  -0.63659
 Alpha  occ. eigenvalues --   -0.62498  -0.58908  -0.57077  -0.52476  -0.52420
 Alpha  occ. eigenvalues --   -0.52035  -0.50933  -0.50203  -0.48152  -0.47835
 Alpha  occ. eigenvalues --   -0.46205  -0.45482  -0.44943  -0.43634  -0.42573
 Alpha  occ. eigenvalues --   -0.42417  -0.37351  -0.34063  -0.31706  -0.30965
 Alpha  occ. eigenvalues --   -0.28386
 Alpha virt. eigenvalues --    0.00707   0.04742   0.05047   0.05500   0.06057
 Alpha virt. eigenvalues --    0.06808   0.07316   0.07503   0.07605   0.08513
 Alpha virt. eigenvalues --    0.09126   0.09408   0.09793   0.09930   0.10154
 Alpha virt. eigenvalues --    0.10811   0.11619   0.11757   0.12385   0.12822
 Alpha virt. eigenvalues --    0.13193   0.13665   0.14079   0.14671   0.14959
 Alpha virt. eigenvalues --    0.15794   0.16009   0.16265   0.17173   0.17517
 Alpha virt. eigenvalues --    0.17750   0.18467   0.18682   0.18886   0.19472
 Alpha virt. eigenvalues --    0.20174   0.20240   0.20732   0.21024   0.21430
 Alpha virt. eigenvalues --    0.22298   0.22412   0.23088   0.23321   0.23689
 Alpha virt. eigenvalues --    0.24095   0.24471   0.24644   0.25074   0.25560
 Alpha virt. eigenvalues --    0.26120   0.26163   0.26767   0.27398   0.27826
 Alpha virt. eigenvalues --    0.28011   0.28823   0.28916   0.29476   0.29684
 Alpha virt. eigenvalues --    0.30646   0.31004   0.31783   0.32006   0.32594
 Alpha virt. eigenvalues --    0.33685   0.34226   0.35330   0.35478   0.36656
 Alpha virt. eigenvalues --    0.37673   0.37796   0.38580   0.39445   0.39888
 Alpha virt. eigenvalues --    0.40430   0.40549   0.41589   0.42441   0.42739
 Alpha virt. eigenvalues --    0.42951   0.43823   0.46188   0.47141   0.47604
 Alpha virt. eigenvalues --    0.49583   0.51073   0.51845   0.52957   0.53899
 Alpha virt. eigenvalues --    0.55520   0.57176   0.59263   0.61132   0.62700
 Alpha virt. eigenvalues --    0.63160   0.63367   0.64147   0.64579   0.65314
 Alpha virt. eigenvalues --    0.66461   0.67078   0.67383   0.68108   0.69448
 Alpha virt. eigenvalues --    0.70308   0.70706   0.72483   0.73138   0.73626
 Alpha virt. eigenvalues --    0.75932   0.77870   0.78162   0.78584   0.79371
 Alpha virt. eigenvalues --    0.80176   0.80968   0.82430   0.83005   0.83678
 Alpha virt. eigenvalues --    0.84159   0.85069   0.86505   0.87108   0.87295
 Alpha virt. eigenvalues --    0.88177   0.90177   0.90334   0.90642   0.91801
 Alpha virt. eigenvalues --    0.92512   0.93015   0.94287   0.94995   0.95375
 Alpha virt. eigenvalues --    0.96672   0.97441   0.97735   0.99772   1.01206
 Alpha virt. eigenvalues --    1.01814   1.02632   1.04010   1.05607   1.06318
 Alpha virt. eigenvalues --    1.07319   1.10445   1.11447   1.12314   1.13227
 Alpha virt. eigenvalues --    1.14061   1.14738   1.15238   1.16465   1.17252
 Alpha virt. eigenvalues --    1.19577   1.21433   1.22133   1.22448   1.26192
 Alpha virt. eigenvalues --    1.27176   1.28584   1.31357   1.33481   1.35715
 Alpha virt. eigenvalues --    1.42848   1.44175   1.45031   1.46748   1.49889
 Alpha virt. eigenvalues --    1.51012   1.52914   1.59006   1.62100   1.64227
 Alpha virt. eigenvalues --    1.64931   1.67165   1.67760   1.68136   1.68812
 Alpha virt. eigenvalues --    1.69689   1.71373   1.73182   1.74974   1.76444
 Alpha virt. eigenvalues --    1.77782   1.79786   1.81361   1.81946   1.83119
 Alpha virt. eigenvalues --    1.83658   1.85659   1.87823   1.90008   1.90115
 Alpha virt. eigenvalues --    1.93211   1.95108   1.95844   1.98244   1.98667
 Alpha virt. eigenvalues --    2.00269   2.03669   2.05338   2.06079   2.07505
 Alpha virt. eigenvalues --    2.09125   2.09888   2.11110   2.11432   2.13006
 Alpha virt. eigenvalues --    2.14361   2.15320   2.17406   2.18326   2.18654
 Alpha virt. eigenvalues --    2.20941   2.21721   2.25095   2.26343   2.27348
 Alpha virt. eigenvalues --    2.28118   2.30604   2.37108   2.40085   2.44057
 Alpha virt. eigenvalues --    2.49505   2.50648   2.52604   2.60006   2.62147
 Alpha virt. eigenvalues --    2.67772   2.71309   2.74018   2.77933   2.78195
 Alpha virt. eigenvalues --    2.79799   2.80626   2.81640   2.82369   2.83087
 Alpha virt. eigenvalues --    2.85209   2.87010   2.89431   2.92698   2.96126
 Alpha virt. eigenvalues --    2.99988   3.01354   3.05379   3.05575   3.09636
 Alpha virt. eigenvalues --    3.12425   3.16752   3.17741   3.22450   3.24513
 Alpha virt. eigenvalues --    3.27132   3.27833   3.31801   3.37486   3.39163
 Alpha virt. eigenvalues --    3.40576   3.44051   3.45966   3.53646   3.56462
 Alpha virt. eigenvalues --    3.57999   3.66214   3.72496   3.75343   3.95621
 Alpha virt. eigenvalues --    3.97618   4.06972   4.18593   4.21889   4.30756
 Alpha virt. eigenvalues --    4.46103   4.61717   5.11325   5.53862   5.86398
 Alpha virt. eigenvalues --    8.09912   8.10335   8.11776  17.41734  17.42832
 Alpha virt. eigenvalues --   17.43826  17.59379  17.60978  17.65531  17.66322
 Alpha virt. eigenvalues --   17.68438  17.70248  23.60525  23.76451  23.89282
 Alpha virt. eigenvalues --   23.94042  23.98482  24.17081  24.23478  24.25614
 Alpha virt. eigenvalues --   24.28461  24.29781  50.07858 189.34700 189.35456
 Alpha virt. eigenvalues --  189.37315
          Condensed to atoms (all electrons):
               1          2          3          4          5          6
     1  C    8.952294  -1.547532  -1.057412  -0.803632   0.889259   0.047847
     2  C   -1.547532  12.069767  -1.999044   0.601665  -2.250791  -0.047277
     3  C   -1.057412  -1.999044   9.748118  -0.522447   0.414701   0.030387
     4  C   -0.803632   0.601665  -0.522447   7.196140  -0.666787   0.376931
     5  S    0.889259  -2.250791   0.414701  -0.666787  17.188575  -0.028405
     6  H    0.047847  -0.047277   0.030387   0.376931  -0.028405   0.440105
     7  C    0.178657  -1.374889   0.476170  -0.281754   0.541218  -0.000812
     8  S   -0.138680   0.087095   0.585227   0.077336  -0.009696  -0.000394
     9  C    0.150443  -0.039549  -1.115069  -0.027135  -0.011198   0.000045
    10  C   -0.405286  -0.521339   1.155650   0.124827   0.100430  -0.000562
    11  C    0.223249   0.588749  -2.056892  -0.138812   0.082286  -0.001090
    12  H   -0.003710  -0.000940   0.041233   0.003211  -0.005428  -0.000001
    13  S    0.000890  -0.006419   0.004420  -0.000318  -0.002370   0.000002
    14  C   -0.005725  -0.001564  -0.014454   0.002289  -0.003637  -0.000001
    15  C    0.050879   0.026103  -0.070045  -0.009681   0.013450   0.000002
    16  H   -0.000001  -0.000019  -0.000135  -0.000000   0.000011   0.000000
    17  H   -0.000013  -0.000091  -0.000488   0.000003   0.000013   0.000000
    18  H   -0.038352   0.297799   0.118195  -0.051561   0.013056   0.000013
    19  O    0.141754   0.057099   0.057868  -0.245937   0.006087  -0.004778
    20  H    0.031812  -0.094932  -0.020378   0.107404  -0.008638   0.000264
               7          8          9         10         11         12
     1  C    0.178657  -0.138680   0.150443  -0.405286   0.223249  -0.003710
     2  C   -1.374889   0.087095  -0.039549  -0.521339   0.588749  -0.000940
     3  C    0.476170   0.585227  -1.115069   1.155650  -2.056892   0.041233
     4  C   -0.281754   0.077336  -0.027135   0.124827  -0.138812   0.003211
     5  S    0.541218  -0.009696  -0.011198   0.100430   0.082286  -0.005428
     6  H   -0.000812  -0.000394   0.000045  -0.000562  -0.001090  -0.000001
     7  C   11.784940   1.684282  -0.558484   3.130933  -6.632521   0.079521
     8  S    1.684282  18.348990   0.032642   2.358782  -4.525511   0.016262
     9  C   -0.558484   0.032642  21.362636  -3.726538  -2.487539  -0.059919
    10  C    3.130933   2.358782  -3.726538  23.385328 -15.947327   0.184857
    11  C   -6.632521  -4.525511  -2.487539 -15.947327  30.752827   0.101219
    12  H    0.079521   0.016262  -0.059919   0.184857   0.101219   0.472536
    13  S   -0.873689   0.139093   0.329547  -0.609863  -0.277514   0.005287
    14  C    0.184645   0.302122   2.065825  -0.113125  -1.352985   0.003647
    15  C   -2.349503  -2.429273 -10.226028  -2.401890   6.806528  -0.011113
    16  H    0.002467  -0.001306  -0.017352   0.030757   0.010421  -0.000004
    17  H   -0.006858   0.014305   0.016826  -0.047749  -0.001564   0.000003
    18  H    0.031055   0.008222  -0.004299   0.002897  -0.019178   0.000027
    19  O   -0.002903   0.000914  -0.002462   0.003585   0.000221   0.000005
    20  H   -0.001964   0.000390   0.000037  -0.000261  -0.000232  -0.000001
              13         14         15         16         17         18
     1  C    0.000890  -0.005725   0.050879  -0.000001  -0.000013  -0.038352
     2  C   -0.006419  -0.001564   0.026103  -0.000019  -0.000091   0.297799
     3  C    0.004420  -0.014454  -0.070045  -0.000135  -0.000488   0.118195
     4  C   -0.000318   0.002289  -0.009681  -0.000000   0.000003  -0.051561
     5  S   -0.002370  -0.003637   0.013450   0.000011   0.000013   0.013056
     6  H    0.000002  -0.000001   0.000002   0.000000   0.000000   0.000013
     7  C   -0.873689   0.184645  -2.349503   0.002467  -0.006858   0.031055
     8  S    0.139093   0.302122  -2.429273  -0.001306   0.014305   0.008222
     9  C    0.329547   2.065825 -10.226028  -0.017352   0.016826  -0.004299
    10  C   -0.609863  -0.113125  -2.401890   0.030757  -0.047749   0.002897
    11  C   -0.277514  -1.352985   6.806528   0.010421  -0.001564  -0.019178
    12  H    0.005287   0.003647  -0.011113  -0.000004   0.000003   0.000027
    13  S   17.505523   0.439489  -0.185477  -0.043449   0.007766  -0.000133
    14  C    0.439489   5.877061  -1.590483   0.373137   0.028473   0.000002
    15  C   -0.185477  -1.590483  17.891633   0.013403   0.349905  -0.001658
    16  H   -0.043449   0.373137   0.013403   0.441329  -0.003646  -0.000000
    17  H    0.007766   0.028473   0.349905  -0.003646   0.479937  -0.000000
    18  H   -0.000133   0.000002  -0.001658  -0.000000  -0.000000   0.491409
    19  O   -0.000036   0.000012  -0.000231   0.000000   0.000000  -0.003470
    20  H   -0.000002  -0.000000   0.000010  -0.000000  -0.000000   0.001998
              19         20
     1  C    0.141754   0.031812
     2  C    0.057099  -0.094932
     3  C    0.057868  -0.020378
     4  C   -0.245937   0.107404
     5  S    0.006087  -0.008638
     6  H   -0.004778   0.000264
     7  C   -0.002903  -0.001964
     8  S    0.000914   0.000390
     9  C   -0.002462   0.000037
    10  C    0.003585  -0.000261
    11  C    0.000221  -0.000232
    12  H    0.000005  -0.000001
    13  S   -0.000036  -0.000002
    14  C    0.000012  -0.000000
    15  C   -0.000231   0.000010
    16  H    0.000000  -0.000000
    17  H    0.000000  -0.000000
    18  H   -0.003470   0.001998
    19  O    7.998405   0.264685
    20  H    0.264685   0.455264
 Mulliken charges:
               1
     1  C   -0.666740
     2  C    0.156107
     3  C    0.224395
     4  C    0.258257
     5  S   -0.262135
     6  H    0.187723
     7  C   -0.010511
     8  S   -0.550802
     9  C    0.317572
    10  C   -0.704105
    11  C    0.875665
    12  H    0.173308
    13  S   -0.432747
    14  C   -0.194727
    15  C    0.123471
    16  H    0.194388
    17  H    0.163179
    18  H    0.153978
    19  O   -0.270818
    20  H    0.264542
 Sum of Mulliken charges =  -0.00000
 Mulliken charges with hydrogens summed into heavy atoms:
               1
     1  C   -0.666740
     2  C    0.310085
     3  C    0.224395
     4  C    0.445980
     5  S   -0.262135
     7  C   -0.010511
     8  S   -0.550802
     9  C    0.317572
    10  C   -0.704105
    11  C    1.048973
    13  S   -0.432747
    14  C   -0.000338
    15  C    0.286649
    19  O   -0.006275
 Electronic spatial extent (au):  <R**2>=           4744.2581
 Charge=              0.0000 electrons
 Dipole moment (field-independent basis, Debye):
    X=              1.1017    Y=              1.3999    Z=              0.6983  Tot=              1.9134
 Quadrupole moment (field-independent basis, Debye-Ang):
   XX=            -96.3712   YY=            -93.1705   ZZ=           -105.0619
   XY=             -0.0423   XZ=             -2.4382   YZ=              1.8860
 Traceless Quadrupole moment (field-independent basis, Debye-Ang):
   XX=              1.8300   YY=              5.0307   ZZ=             -6.8607
   XY=             -0.0423   XZ=             -2.4382   YZ=              1.8860
 Octapole moment (field-independent basis, Debye-Ang**2):
  XXX=             78.4820  YYY=             16.1513  ZZZ=              4.7211  XYY=            -23.7989
  XXY=             21.5495  XXZ=             -3.0052  XZZ=            -14.4074  YZZ=              4.8978
  YYZ=              6.3002  XYZ=            -22.9729
 Hexadecapole moment (field-independent basis, Debye-Ang**3):
 XXXX=          -5226.2597 YYYY=           -773.2746 ZZZZ=           -272.0939 XXXY=             64.8676
 XXXZ=              7.8348 YYYX=            -45.8603 YYYZ=             10.7787 ZZZX=            -22.1838
 ZZZY=             10.9825 XXYY=           -903.1941 XXZZ=           -975.7443 YYZZ=           -170.5944
 XXYZ=             51.7493 YYXZ=            -38.6823 ZZXY=            -25.4680
 N-N= 1.109583791467D+03 E-N=-6.130465855965D+03  KE= 1.651138707691D+03
 Unable to Open any file for archive entry.
 1\1\GINC-CX3-12-16\FOpt\RwB97XD\6-311+G(d,p)\C10H6O1S3\NS5018\26-Oct-2
 021\0\\# opt=modredundant wb97xd/6-311+g(d,p)\\pg2T_TT_-50.pdb\\0,1\C,
 -4.2900556268,-1.4143356926,-0.3568138437\C,-2.9799532843,-0.977115015
 7,-0.7067089359\C,-2.0516769046,-1.9768501367,-0.6187807211\C,-4.33812
 39989,-2.7284622384,-0.0012041957\S,-2.7821990158,-3.4593319724,-0.107
 7506804\H,-5.2034081596,-3.2937289747,0.3062523733\C,-0.6170480288,-1.
 8973857747,-0.8658207111\S,-0.0309896035,-1.1623788365,-2.3453353245\C
 ,1.6091482129,-1.4766288878,-1.8905547389\C,1.6659421482,-2.134049054,
 -0.6768711296\C,0.3953819629,-2.378142278,-0.0871730103\H,0.2289256248
 ,-2.8593861925,0.866740862\S,3.3064748795,-2.4478975343,-0.2219282509\
 C,3.8816073447,-1.6887934684,-1.6741974972\C,2.8847869705,-1.216936208
 ,-2.4689065384\H,4.9445915896,-1.6389350601,-1.8570787445\H,3.05380233
 07,-0.7166722631,-3.4119065444\H,-2.7298556334,0.0390624291,-0.9874143
 025\O,-5.396257159,-0.6252761025,-0.3534890268\H,-5.1660936491,0.25324
 32615,-0.6570590396\\Version=ES64L-G16RevC.01\State=1-A\HF=-1654.41221
 6\RMSD=4.341e-09\RMSF=5.303e-04\Dipole=0.4081416,0.5923753,-0.2218334\
 Quadrupole=0.9273888,1.1782134,-2.1056022,-1.8010424,-1.8060655,-4.041
 7397\PG=C01 [X(C10H6O1S3)]\\@
 The archive entry for this job was punched.


 THE WORLD IS MADE UP OF THE WILLS, THE WON'TS, AND THE CANT'S:
 THE WILLS DO EVERYTHING,
 THE WON'TS DO NOTHING,
 THE CAN'TS CAN'T DO ANYTHING.

                               -- FROM WALT DISNEY'S "BLACK HOLE"
 Job cpu time:       0 days  5 hours  4 minutes  8.9 seconds.
 Elapsed time:       0 days  0 hours 38 minutes 19.9 seconds.
 File lengths (MBytes):  RWF=     86 Int=      0 D2E=      0 Chk=     11 Scr=      1
 Normal termination of Gaussian 16 at Tue Oct 26 23:24:36 2021.
