 Entering Gaussian System, Link 0=g16
 Input=pg2T_TT_-25.gjf
 Output=pg2T_TT_-25.log
 Initial command:
 /apps/gaussian/g16-c01-avx/g16/l1.exe "/tmp/pbs.4766238[150].pbs/Gau-993373.inp" -scrdir="/tmp/pbs.4766238[150].pbs/"
 Entering Link 1 = /apps/gaussian/g16-c01-avx/g16/l1.exe PID=    993374.
  
 Copyright (c) 1988-2019, Gaussian, Inc.  All Rights Reserved.
  
 This is part of the Gaussian(R) 16 program.  It is based on
 the Gaussian(R) 09 system (copyright 2009, Gaussian, Inc.),
 the Gaussian(R) 03 system (copyright 2003, Gaussian, Inc.),
 the Gaussian(R) 98 system (copyright 1998, Gaussian, Inc.),
 the Gaussian(R) 94 system (copyright 1995, Gaussian, Inc.),
 the Gaussian 92(TM) system (copyright 1992, Gaussian, Inc.),
 the Gaussian 90(TM) system (copyright 1990, Gaussian, Inc.),
 the Gaussian 88(TM) system (copyright 1988, Gaussian, Inc.),
 the Gaussian 86(TM) system (copyright 1986, Carnegie Mellon
 University), and the Gaussian 82(TM) system (copyright 1983,
 Carnegie Mellon University). Gaussian is a federally registered
 trademark of Gaussian, Inc.
  
 This software contains proprietary and confidential information,
 including trade secrets, belonging to Gaussian, Inc.
  
 This software is provided under written license and may be
 used, copied, transmitted, or stored only in accord with that
 written license.
  
 The following legend is applicable only to US Government
 contracts under FAR:
  
                    RESTRICTED RIGHTS LEGEND
  
 Use, reproduction and disclosure by the US Government is
 subject to restrictions as set forth in subparagraphs (a)
 and (c) of the Commercial Computer Software - Restricted
 Rights clause in FAR 52.227-19.
  
 Gaussian, Inc.
 340 Quinnipiac St., Bldg. 40, Wallingford CT 06492
  
  
 ---------------------------------------------------------------
 Warning -- This program may not be used in any manner that
 competes with the business of Gaussian, Inc. or will provide
 assistance to any competitor of Gaussian, Inc.  The licensee
 of this program is prohibited from giving any competitor of
 Gaussian, Inc. access to this program.  By using this program,
 the user acknowledges that Gaussian, Inc. is engaged in the
 business of creating and licensing software in the field of
 computational chemistry and represents and warrants to the
 licensee that it is not a competitor of Gaussian, Inc. and that
 it will not use this program in any manner prohibited above.
 ---------------------------------------------------------------
  

 Cite this work as:
 Gaussian 16, Revision C.01,
 M. J. Frisch, G. W. Trucks, H. B. Schlegel, G. E. Scuseria, 
 M. A. Robb, J. R. Cheeseman, G. Scalmani, V. Barone, 
 G. A. Petersson, H. Nakatsuji, X. Li, M. Caricato, A. V. Marenich, 
 J. Bloino, B. G. Janesko, R. Gomperts, B. Mennucci, H. P. Hratchian, 
 J. V. Ortiz, A. F. Izmaylov, J. L. Sonnenberg, D. Williams-Young, 
 F. Ding, F. Lipparini, F. Egidi, J. Goings, B. Peng, A. Petrone, 
 T. Henderson, D. Ranasinghe, V. G. Zakrzewski, J. Gao, N. Rega, 
 G. Zheng, W. Liang, M. Hada, M. Ehara, K. Toyota, R. Fukuda, 
 J. Hasegawa, M. Ishida, T. Nakajima, Y. Honda, O. Kitao, H. Nakai, 
 T. Vreven, K. Throssell, J. A. Montgomery, Jr., J. E. Peralta, 
 F. Ogliaro, M. J. Bearpark, J. J. Heyd, E. N. Brothers, K. N. Kudin, 
 V. N. Staroverov, T. A. Keith, R. Kobayashi, J. Normand, 
 K. Raghavachari, A. P. Rendell, J. C. Burant, S. S. Iyengar, 
 J. Tomasi, M. Cossi, J. M. Millam, M. Klene, C. Adamo, R. Cammi, 
 J. W. Ochterski, R. L. Martin, K. Morokuma, O. Farkas, 
 J. B. Foresman, and D. J. Fox, Gaussian, Inc., Wallingford CT, 2019.
 
 ******************************************
 Gaussian 16:  ES64L-G16RevC.01  3-Jul-2019
                26-Oct-2021 
 ******************************************
 %mem=10GB
 %nprocshared=8
 Will use up to    8 processors via shared memory.
 --------------------------------------
 # opt=modredundant wb97xd/6-311+g(d,p)
 --------------------------------------
 1/18=120,19=15,26=3,38=1/1,3;
 2/9=110,12=2,17=6,18=5,40=1/2;
 3/5=4,6=6,7=111,11=2,25=1,30=1,71=1,74=-58/1,2,3;
 4//1;
 5/5=2,38=5/2;
 6/7=2,8=2,9=2,10=2,28=1/1;
 7//1,2,3,16;
 1/18=20,19=15,26=3/3(2);
 2/9=110/2;
 99//99;
 2/9=110/2;
 3/5=4,6=6,7=111,11=2,25=1,30=1,71=1,74=-58/1,2,3;
 4/5=5,16=3,69=1/1;
 5/5=2,38=5/2;
 7//1,2,3,16;
 1/18=20,19=15,26=3/3(-5);
 2/9=110/2;
 6/7=2,8=2,9=2,10=2,19=2,28=1/1;
 99/9=1/99;
 ---------------
 pg2T_TT_-25.pdb
 ---------------
 Symbolic Z-matrix:
 Charge =  0 Multiplicity = 1
 C                    -4.25     -1.36     -0.21 
 C                    -2.93     -0.95     -0.61 
 C                    -1.97     -2.05     -0.62 
 C                    -4.33     -2.76      0.1 
 S                    -2.8      -3.56     -0.11 
 H                    -5.23     -3.27      0.41 
 C                    -0.56     -2.13     -0.97 
 S                     0.204    -0.97     -2.1 
 C                     1.755    -1.723    -1.956 
 C                     1.742    -2.837    -1.042 
 C                     0.449    -3.065    -0.468 
 H                     0.283    -3.744     0.353 
 S                     3.295    -3.14     -0.338 
 C                     4.012    -1.808    -1.247 
 C                     3.042    -1.12     -2.069 
 H                     5.012    -1.447    -1.053 
 H                     3.217    -0.129    -2.478 
 H                    -2.89      0.24     -0.97 
 O                    -5.6      -0.36     -0.4 
 H                    -5.76      0.85     -0.75 
 
 Add virtual bond connecting atoms H20        and O19        Dist= 2.40D+00.
 Add virtual bond connecting atoms O19        and C1         Dist= 3.20D+00.
 The following ModRedundant input section has been read:
 D       2       3       7       8 F                                           
 

 GradGradGradGradGradGradGradGradGradGradGradGradGradGradGradGradGradGrad
 Berny optimization.
 Initialization pass.
                           ----------------------------
                           !    Initial Parameters    !
                           ! (Angstroms and Degrees)  !
 --------------------------                            --------------------------
 ! Name  Definition              Value          Derivative Info.                !
 --------------------------------------------------------------------------------
 ! R1    R(1,2)                  1.4389         estimate D2E/DX2                !
 ! R2    R(1,4)                  1.4361         estimate D2E/DX2                !
 ! R3    R(1,19)                 1.6907         estimate D2E/DX2                !
 ! R4    R(2,3)                  1.46           estimate D2E/DX2                !
 ! R5    R(2,18)                 1.2439         estimate D2E/DX2                !
 ! R6    R(3,5)                  1.797          estimate D2E/DX2                !
 ! R7    R(3,7)                  1.455          estimate D2E/DX2                !
 ! R8    R(4,5)                  1.7393         estimate D2E/DX2                !
 ! R9    R(4,6)                  1.0799         estimate D2E/DX2                !
 ! R10   R(7,8)                  1.7906         estimate D2E/DX2                !
 ! R11   R(7,11)                 1.4643         estimate D2E/DX2                !
 ! R12   R(8,9)                  1.7301         estimate D2E/DX2                !
 ! R13   R(9,10)                 1.441          estimate D2E/DX2                !
 ! R14   R(9,15)                 1.4257         estimate D2E/DX2                !
 ! R15   R(10,11)                1.4329         estimate D2E/DX2                !
 ! R16   R(10,13)                1.7318         estimate D2E/DX2                !
 ! R17   R(11,12)                1.0783         estimate D2E/DX2                !
 ! R18   R(13,14)                1.7648         estimate D2E/DX2                !
 ! R19   R(14,15)                1.4457         estimate D2E/DX2                !
 ! R20   R(14,16)                1.0807         estimate D2E/DX2                !
 ! R21   R(15,17)                1.0863         estimate D2E/DX2                !
 ! R22   R(19,20)                1.2697         estimate D2E/DX2                !
 ! A1    A(2,1,4)              112.8843         estimate D2E/DX2                !
 ! A2    A(2,1,19)             122.1887         estimate D2E/DX2                !
 ! A3    A(4,1,19)             123.8039         estimate D2E/DX2                !
 ! A4    A(1,2,3)              112.9799         estimate D2E/DX2                !
 ! A5    A(1,2,18)             112.491          estimate D2E/DX2                !
 ! A6    A(3,2,18)             134.2373         estimate D2E/DX2                !
 ! A7    A(2,3,5)              109.1138         estimate D2E/DX2                !
 ! A8    A(2,3,7)              132.8639         estimate D2E/DX2                !
 ! A9    A(5,3,7)              118.0132         estimate D2E/DX2                !
 ! A10   A(1,4,5)              111.9209         estimate D2E/DX2                !
 ! A11   A(1,4,6)              124.6643         estimate D2E/DX2                !
 ! A12   A(5,4,6)              123.4062         estimate D2E/DX2                !
 ! A13   A(3,5,4)               93.0997         estimate D2E/DX2                !
 ! A14   A(3,7,8)              121.9831         estimate D2E/DX2                !
 ! A15   A(3,7,11)             128.3439         estimate D2E/DX2                !
 ! A16   A(8,7,11)             109.6329         estimate D2E/DX2                !
 ! A17   A(7,8,9)               92.7524         estimate D2E/DX2                !
 ! A18   A(8,9,10)             112.4056         estimate D2E/DX2                !
 ! A19   A(8,9,15)             128.2108         estimate D2E/DX2                !
 ! A20   A(10,9,15)            112.6667         estimate D2E/DX2                !
 ! A21   A(9,10,11)            112.6573         estimate D2E/DX2                !
 ! A22   A(9,10,13)            112.6437         estimate D2E/DX2                !
 ! A23   A(11,10,13)           128.206          estimate D2E/DX2                !
 ! A24   A(7,11,10)            112.5094         estimate D2E/DX2                !
 ! A25   A(7,11,12)            123.8504         estimate D2E/DX2                !
 ! A26   A(10,11,12)           122.9645         estimate D2E/DX2                !
 ! A27   A(10,13,14)            91.3118         estimate D2E/DX2                !
 ! A28   A(13,14,15)           112.3002         estimate D2E/DX2                !
 ! A29   A(13,14,16)           122.3835         estimate D2E/DX2                !
 ! A30   A(15,14,16)           124.3299         estimate D2E/DX2                !
 ! A31   A(9,15,14)            111.0594         estimate D2E/DX2                !
 ! A32   A(9,15,17)            124.1325         estimate D2E/DX2                !
 ! A33   A(14,15,17)           122.6946         estimate D2E/DX2                !
 ! A34   A(1,19,20)            134.0455         estimate D2E/DX2                !
 ! D1    D(4,1,2,3)              0.3915         estimate D2E/DX2                !
 ! D2    D(4,1,2,18)           175.0898         estimate D2E/DX2                !
 ! D3    D(19,1,2,3)          -167.9154         estimate D2E/DX2                !
 ! D4    D(19,1,2,18)            6.7829         estimate D2E/DX2                !
 ! D5    D(2,1,4,5)             -0.3845         estimate D2E/DX2                !
 ! D6    D(2,1,4,6)           -179.3471         estimate D2E/DX2                !
 ! D7    D(19,1,4,5)           167.7032         estimate D2E/DX2                !
 ! D8    D(19,1,4,6)           -11.2593         estimate D2E/DX2                !
 ! D9    D(2,1,19,20)           -7.6334         estimate D2E/DX2                !
 ! D10   D(4,1,19,20)         -174.6479         estimate D2E/DX2                !
 ! D11   D(1,2,3,5)             -0.2224         estimate D2E/DX2                !
 ! D12   D(1,2,3,7)            178.6265         estimate D2E/DX2                !
 ! D13   D(18,2,3,5)          -173.3787         estimate D2E/DX2                !
 ! D14   D(18,2,3,7)             5.4701         estimate D2E/DX2                !
 ! D15   D(2,3,5,4)              0.0033         estimate D2E/DX2                !
 ! D16   D(7,3,5,4)           -179.041          estimate D2E/DX2                !
 ! D17   D(2,3,7,8)            -24.9861         Frozen                          !
 ! D18   D(2,3,7,11)           152.4642         estimate D2E/DX2                !
 ! D19   D(5,3,7,8)            153.7819         estimate D2E/DX2                !
 ! D20   D(5,3,7,11)           -28.7678         estimate D2E/DX2                !
 ! D21   D(1,4,5,3)              0.2153         estimate D2E/DX2                !
 ! D22   D(6,4,5,3)            179.1932         estimate D2E/DX2                !
 ! D23   D(3,7,8,9)            179.7623         estimate D2E/DX2                !
 ! D24   D(11,7,8,9)             1.8853         estimate D2E/DX2                !
 ! D25   D(3,7,11,10)         -179.83           estimate D2E/DX2                !
 ! D26   D(3,7,11,12)           -9.024          estimate D2E/DX2                !
 ! D27   D(8,7,11,10)           -2.1261         estimate D2E/DX2                !
 ! D28   D(8,7,11,12)          168.68           estimate D2E/DX2                !
 ! D29   D(7,8,9,10)            -1.2005         estimate D2E/DX2                !
 ! D30   D(7,8,9,15)          -149.9672         estimate D2E/DX2                !
 ! D31   D(8,9,10,11)            0.1643         estimate D2E/DX2                !
 ! D32   D(8,9,10,13)         -154.0366         estimate D2E/DX2                !
 ! D33   D(15,9,10,11)         153.9628         estimate D2E/DX2                !
 ! D34   D(15,9,10,13)          -0.238          estimate D2E/DX2                !
 ! D35   D(8,9,15,14)          149.7925         estimate D2E/DX2                !
 ! D36   D(8,9,15,17)          -14.008          estimate D2E/DX2                !
 ! D37   D(10,9,15,14)           1.0916         estimate D2E/DX2                !
 ! D38   D(10,9,15,17)        -162.7089         estimate D2E/DX2                !
 ! D39   D(9,10,11,7)            1.3006         estimate D2E/DX2                !
 ! D40   D(9,10,11,12)        -169.5996         estimate D2E/DX2                !
 ! D41   D(13,10,11,7)         150.5591         estimate D2E/DX2                !
 ! D42   D(13,10,11,12)        -20.3411         estimate D2E/DX2                !
 ! D43   D(9,10,13,14)          -0.5223         estimate D2E/DX2                !
 ! D44   D(11,10,13,14)       -149.7842         estimate D2E/DX2                !
 ! D45   D(10,13,14,15)          1.1494         estimate D2E/DX2                !
 ! D46   D(10,13,14,16)        170.2348         estimate D2E/DX2                !
 ! D47   D(13,14,15,9)          -1.4791         estimate D2E/DX2                !
 ! D48   D(13,14,15,17)        162.5945         estimate D2E/DX2                !
 ! D49   D(16,14,15,9)        -170.3145         estimate D2E/DX2                !
 ! D50   D(16,14,15,17)         -6.2409         estimate D2E/DX2                !
 --------------------------------------------------------------------------------
 Trust Radius=3.00D-01 FncErr=1.00D-07 GrdErr=1.00D-06 EigMax=2.50D+02 EigMin=1.00D-04
 Number of steps in this run=    116 maximum allowed number of steps=    120.
 GradGradGradGradGradGradGradGradGradGradGradGradGradGradGradGradGradGrad

                          Input orientation:                          
 ---------------------------------------------------------------------
 Center     Atomic      Atomic             Coordinates (Angstroms)
 Number     Number       Type             X           Y           Z
 ---------------------------------------------------------------------
      1          6           0       -4.250000   -1.360000   -0.210000
      2          6           0       -2.930000   -0.950000   -0.610000
      3          6           0       -1.970000   -2.050000   -0.620000
      4          6           0       -4.330000   -2.760000    0.100000
      5         16           0       -2.800000   -3.560000   -0.110000
      6          1           0       -5.230000   -3.270000    0.410000
      7          6           0       -0.560000   -2.130000   -0.970000
      8         16           0        0.204000   -0.970000   -2.100000
      9          6           0        1.755000   -1.723000   -1.956000
     10          6           0        1.742000   -2.837000   -1.042000
     11          6           0        0.449000   -3.065000   -0.468000
     12          1           0        0.283000   -3.744000    0.353000
     13         16           0        3.295000   -3.140000   -0.338000
     14          6           0        4.012000   -1.808000   -1.247000
     15          6           0        3.042000   -1.120000   -2.069000
     16          1           0        5.012000   -1.447000   -1.053000
     17          1           0        3.217000   -0.129000   -2.478000
     18          1           0       -2.890000    0.240000   -0.970000
     19          8           0       -5.600000   -0.360000   -0.400000
     20          1           0       -5.760000    0.850000   -0.750000
 ---------------------------------------------------------------------
                    Distance matrix (angstroms):
                    1          2          3          4          5
     1  C    0.000000
     2  C    1.438923   0.000000
     3  C    2.417147   1.460034   0.000000
     4  C    1.436141   2.395871   2.567509   0.000000
     5  S    2.636759   2.660639   1.796970   1.739253   0.000000
     6  H    2.234480   3.422397   3.630000   1.079907   2.501879
     7  C    3.845335   2.671872   1.454991   3.969219   2.793224
     8  S    4.854103   3.470224   2.843075   5.348014   4.437591
     9  C    6.264209   4.935430   3.970825   6.506130   5.246933
    10  C    6.227184   5.057171   3.817905   6.178938   4.692666
    11  C    5.005416   3.988863   2.627716   4.822291   3.305933
    12  H    5.152525   4.365452   2.982008   4.723562   3.122998
    13  S    7.753181   6.604598   5.384036   7.647017   6.113707
    14  C    8.338868   7.023767   6.019636   8.503510   7.124999
    15  C    7.529060   6.149989   5.299495   7.857515   6.627235
    16  H    9.300691   7.969857   7.021355   9.504017   8.147476
    17  H    7.900334   6.476810   5.835013   8.397943   7.320073
    18  H    2.233204   1.243905   2.492589   3.495497   3.897140
    19  O    1.690739   2.742462   4.010162   2.760960   4.261936
    20  H    2.730531   3.356859   4.773992   3.974858   5.349701
                    6          7          8          9         10
     6  H    0.000000
     7  C    5.001290   0.000000
     8  S    6.412367   1.790585   0.000000
     9  C    7.535343   2.548935   1.730129   0.000000
    10  C    7.134744   2.409198   2.640170   1.441028   0.000000
    11  C    5.750126   1.464346   2.666922   2.391808   1.432937
    12  H    5.533633   2.250772   3.703853   3.403337   2.212997
    13  S    8.558740   4.034916   4.167472   2.645262   1.731830
    14  C    9.502508   4.591688   3.991330   2.367267   2.500753
    15  C    8.899097   3.899013   2.842130   1.425744   2.385963
    16  H   10.505344   5.614318   4.943744   3.391111   3.553185
    17  H    9.463521   4.532526   3.150926   2.225031   3.401615
    18  H    4.438479   3.323522   3.509108   5.138248   5.561343
    19  O    3.043206   5.372095   6.078529   7.640349   7.775131
    20  H    4.312876   5.997399   6.379984   8.034301   8.364164
                   11         12         13         14         15
    11  C    0.000000
    12  H    1.078257   0.000000
    13  S    2.849955   3.148721   0.000000
    14  C    3.857701   4.495947   1.764821   0.000000
    15  C    3.615228   4.512598   2.672222   1.445658   0.000000
    16  H    4.876589   5.442103   2.515067   1.080721   2.240555
    17  H    4.507995   5.448958   3.694835   2.228548   1.086272
    18  H    4.724823   5.262178   7.076585   7.204765   6.184337
    19  O    6.626617   6.828481   9.319510   9.757287   8.834440
    20  H    7.345640   7.670678   9.903680  10.139229   9.115693
                   16         17         18         19         20
    16  H    0.000000
    17  H    2.643818   0.000000
    18  H    8.080499   6.301244   0.000000
    19  O   10.687494   9.061508   2.833549   0.000000
    20  H   11.018348   9.194072   2.942346   1.269724   0.000000
 Stoichiometry    C10H6OS3
 Framework group  C1[X(C10H6OS3)]
 Deg. of freedom    54
 Full point group                 C1      NOp   1
 Largest Abelian subgroup         C1      NOp   1
 Largest concise Abelian subgroup C1      NOp   1
                         Standard orientation:                         
 ---------------------------------------------------------------------
 Center     Atomic      Atomic             Coordinates (Angstroms)
 Number     Number       Type             X           Y           Z
 ---------------------------------------------------------------------
      1          6           0       -3.868577    0.312497    0.362357
      2          6           0       -2.540076    0.864403    0.393719
      3          6           0       -1.514711   -0.094911   -0.006334
      4          6           0       -3.892037   -1.063803   -0.047216
      5         16           0       -2.297893   -1.663898   -0.398771
      6          1           0       -4.786981   -1.660033   -0.146133
      7          6           0       -0.070450    0.003454   -0.152736
      8         16           0        0.746100    1.564195   -0.474494
      9          6           0        2.314871    0.834851   -0.493458
     10          6           0        2.265251   -0.581593   -0.233102
     11          6           0        0.930189   -1.057761   -0.022907
     12          1           0        0.711316   -2.048164    0.342927
     13         16           0        3.737892   -1.186155    0.448857
     14          6           0        4.469550    0.418933    0.394420
     15          6           0        3.562921    1.417732   -0.125533
     16          1           0        5.412207    0.641905    0.873625
     17          1           0        3.719798    2.483223    0.016262
     18          1           0       -2.536134    2.080721    0.654211
     19          8           0       -5.249187    1.280469    0.487044
     20          1           0       -5.445863    2.509506    0.738017
 ---------------------------------------------------------------------
 Rotational constants (GHZ):           1.3589312           0.2291049           0.2013198
 Standard basis: 6-311+G(d,p) (5D, 7F)
 There are   382 symmetry adapted cartesian basis functions of A   symmetry.
 There are   368 symmetry adapted basis functions of A   symmetry.
   368 basis functions,   594 primitive gaussians,   382 cartesian basis functions
    61 alpha electrons       61 beta electrons
       nuclear repulsion energy      1076.4516043020 Hartrees.
 NAtoms=   20 NActive=   20 NUniq=   20 SFac= 1.00D+00 NAtFMM=   60 NAOKFM=F Big=F
 Integral buffers will be    131072 words long.
 Raffenetti 2 integral format.
 Two-electron integral symmetry is turned on.
 Nuclear repulsion after empirical dispersion term =     1076.4418227024 Hartrees.
 One-electron integrals computed using PRISM.
 NBasis=   368 RedAO= T EigKep=  2.99D-06  NBF=   368
 NBsUse=   367 1.00D-06 EigRej=  5.06D-07 NBFU=   367
 ExpMin= 4.05D-02 ExpMax= 9.34D+04 ExpMxC= 3.17D+03 IAcc=3 IRadAn=         5 AccDes= 0.00D+00
 Harris functional with IExCor= 4639 and IRadAn=       5 diagonalized for initial guess.
 HarFok:  IExCor= 4639 AccDes= 0.00D+00 IRadAn=         5 IDoV= 1 UseB2=F ITyADJ=14
 ICtDFT=  3500011 ScaDFX=  1.000000  1.000000  1.000000  1.000000
 FoFCou: FMM=F IPFlag=           0 FMFlag=      100000 FMFlg1=           0
         NFxFlg=           0 DoJE=T BraDBF=F KetDBF=T FulRan=T
         wScrn=  0.000000 ICntrl=       500 IOpCl=  0 I1Cent=   200000004 NGrid=           0
         NMat0=    1 NMatS0=      1 NMatT0=    0 NMatD0=    1 NMtDS0=    0 NMtDT0=    0
 Petite list used in FoFCou.
 Requested convergence on RMS density matrix=1.00D-08 within 128 cycles.
 Requested convergence on MAX density matrix=1.00D-06.
 Requested convergence on             energy=1.00D-06.
 No special actions if energy rises.
 SCF Done:  E(RwB97XD) =  -1654.22690905     A.U. after   19 cycles
            NFock= 19  Conv=0.36D-08     -V/T= 2.0032

 **********************************************************************

            Population analysis using the SCF Density.

 **********************************************************************

 Orbital symmetries:
       Occupied  (A) (A) (A) (A) (A) (A) (A) (A) (A) (A) (A) (A)
                 (A) (A) (A) (A) (A) (A) (A) (A) (A) (A) (A) (A)
                 (A) (A) (A) (A) (A) (A) (A) (A) (A) (A) (A) (A)
                 (A) (A) (A) (A) (A) (A) (A) (A) (A) (A) (A) (A)
                 (A) (A) (A) (A) (A) (A) (A) (A) (A) (A) (A) (A)
                 (A)
       Virtual   (A) (A) (A) (A) (A) (A) (A) (A) (A) (A) (A) (A)
                 (A) (A) (A) (A) (A) (A) (A) (A) (A) (A) (A) (A)
                 (A) (A) (A) (A) (A) (A) (A) (A) (A) (A) (A) (A)
                 (A) (A) (A) (A) (A) (A) (A) (A) (A) (A) (A) (A)
                 (A) (A) (A) (A) (A) (A) (A) (A) (A) (A) (A) (A)
                 (A) (A) (A) (A) (A) (A) (A) (A) (A) (A) (A) (A)
                 (A) (A) (A) (A) (A) (A) (A) (A) (A) (A) (A) (A)
                 (A) (A) (A) (A) (A) (A) (A) (A) (A) (A) (A) (A)
                 (A) (A) (A) (A) (A) (A) (A) (A) (A) (A) (A) (A)
                 (A) (A) (A) (A) (A) (A) (A) (A) (A) (A) (A) (A)
                 (A) (A) (A) (A) (A) (A) (A) (A) (A) (A) (A) (A)
                 (A) (A) (A) (A) (A) (A) (A) (A) (A) (A) (A) (A)
                 (A) (A) (A) (A) (A) (A) (A) (A) (A) (A) (A) (A)
                 (A) (A) (A) (A) (A) (A) (A) (A) (A) (A) (A) (A)
                 (A) (A) (A) (A) (A) (A) (A) (A) (A) (A) (A) (A)
                 (A) (A) (A) (A) (A) (A) (A) (A) (A) (A) (A) (A)
                 (A) (A) (A) (A) (A) (A) (A) (A) (A) (A) (A) (A)
                 (A) (A) (A) (A) (A) (A) (A) (A) (A) (A) (A) (A)
                 (A) (A) (A) (A) (A) (A) (A) (A) (A) (A) (A) (A)
                 (A) (A) (A) (A) (A) (A) (A) (A) (A) (A) (A) (A)
                 (A) (A) (A) (A) (A) (A) (A) (A) (A) (A) (A) (A)
                 (A) (A) (A) (A) (A) (A) (A) (A) (A) (A) (A) (A)
                 (A) (A) (A) (A) (A) (A) (A) (A) (A) (A) (A) (A)
                 (A) (A) (A) (A) (A) (A) (A) (A) (A) (A) (A) (A)
                 (A) (A) (A) (A) (A) (A) (A) (A) (A) (A) (A) (A)
                 (A) (A) (A) (A) (A) (A)
 The electronic state is 1-A.
 Alpha  occ. eigenvalues --  -89.07477 -89.06430 -89.06251 -19.27822 -10.39038
 Alpha  occ. eigenvalues --  -10.36850 -10.36294 -10.34342 -10.34198 -10.34144
 Alpha  occ. eigenvalues --  -10.34139 -10.34053 -10.32695 -10.32225  -8.11314
 Alpha  occ. eigenvalues --   -8.10372  -8.10193  -6.06168  -6.05800  -6.05398
 Alpha  occ. eigenvalues --   -6.05225  -6.05062  -6.04859  -6.04686  -6.04438
 Alpha  occ. eigenvalues --   -6.04233  -1.03409  -1.01386  -0.98483  -0.94221
 Alpha  occ. eigenvalues --   -0.87932  -0.85507  -0.84365  -0.81204  -0.78746
 Alpha  occ. eigenvalues --   -0.71803  -0.67443  -0.65274  -0.63151  -0.62313
 Alpha  occ. eigenvalues --   -0.59090  -0.58322  -0.54007  -0.52342  -0.51059
 Alpha  occ. eigenvalues --   -0.49878  -0.48663  -0.48317  -0.48166  -0.47816
 Alpha  occ. eigenvalues --   -0.46208  -0.44421  -0.43173  -0.42610  -0.40567
 Alpha  occ. eigenvalues --   -0.40059  -0.37835  -0.34620  -0.32937  -0.31195
 Alpha  occ. eigenvalues --   -0.27222
 Alpha virt. eigenvalues --   -0.02371  -0.00650   0.03073   0.04923   0.05418
 Alpha virt. eigenvalues --    0.05516   0.06420   0.06681   0.06894   0.07457
 Alpha virt. eigenvalues --    0.07888   0.08537   0.08986   0.09236   0.09895
 Alpha virt. eigenvalues --    0.09966   0.10847   0.11082   0.11370   0.11573
 Alpha virt. eigenvalues --    0.12288   0.12654   0.13253   0.14117   0.14290
 Alpha virt. eigenvalues --    0.15011   0.15553   0.15746   0.16136   0.16822
 Alpha virt. eigenvalues --    0.17115   0.17520   0.17841   0.18424   0.18880
 Alpha virt. eigenvalues --    0.19001   0.19587   0.20324   0.20519   0.20946
 Alpha virt. eigenvalues --    0.21316   0.21671   0.22864   0.22989   0.23206
 Alpha virt. eigenvalues --    0.23493   0.23700   0.24130   0.24887   0.25218
 Alpha virt. eigenvalues --    0.25291   0.25952   0.26195   0.26542   0.26621
 Alpha virt. eigenvalues --    0.27215   0.27581   0.27754   0.28123   0.28659
 Alpha virt. eigenvalues --    0.29111   0.29733   0.30314   0.30968   0.31056
 Alpha virt. eigenvalues --    0.31386   0.31573   0.32696   0.33351   0.34623
 Alpha virt. eigenvalues --    0.34908   0.35378   0.35982   0.37320   0.37930
 Alpha virt. eigenvalues --    0.38594   0.39588   0.40234   0.40939   0.41075
 Alpha virt. eigenvalues --    0.41836   0.42978   0.43235   0.43785   0.45653
 Alpha virt. eigenvalues --    0.46654   0.47614   0.48354   0.49768   0.50318
 Alpha virt. eigenvalues --    0.51959   0.52791   0.56083   0.57332   0.60075
 Alpha virt. eigenvalues --    0.60814   0.61888   0.62960   0.63359   0.63630
 Alpha virt. eigenvalues --    0.63891   0.65073   0.65582   0.67177   0.68172
 Alpha virt. eigenvalues --    0.69325   0.69808   0.70565   0.71219   0.71775
 Alpha virt. eigenvalues --    0.73798   0.74524   0.75458   0.76452   0.77308
 Alpha virt. eigenvalues --    0.78194   0.78655   0.79101   0.80262   0.81186
 Alpha virt. eigenvalues --    0.81561   0.82164   0.82814   0.83765   0.84577
 Alpha virt. eigenvalues --    0.85853   0.86442   0.87300   0.88506   0.88747
 Alpha virt. eigenvalues --    0.90199   0.90804   0.92095   0.92766   0.94180
 Alpha virt. eigenvalues --    0.94540   0.96135   0.96764   0.97828   0.98023
 Alpha virt. eigenvalues --    0.99845   1.00746   1.00964   1.01933   1.03155
 Alpha virt. eigenvalues --    1.04168   1.06015   1.06567   1.08379   1.08862
 Alpha virt. eigenvalues --    1.09979   1.12993   1.13637   1.14630   1.15558
 Alpha virt. eigenvalues --    1.18750   1.19554   1.22364   1.22997   1.26081
 Alpha virt. eigenvalues --    1.28996   1.29896   1.32368   1.33394   1.36854
 Alpha virt. eigenvalues --    1.42576   1.43174   1.43956   1.45619   1.47127
 Alpha virt. eigenvalues --    1.49863   1.53969   1.55009   1.57277   1.58265
 Alpha virt. eigenvalues --    1.58862   1.60488   1.64110   1.64903   1.66989
 Alpha virt. eigenvalues --    1.68716   1.69102   1.70412   1.70958   1.72998
 Alpha virt. eigenvalues --    1.74272   1.74857   1.76676   1.77143   1.78419
 Alpha virt. eigenvalues --    1.78659   1.81259   1.82279   1.83623   1.86132
 Alpha virt. eigenvalues --    1.86318   1.87076   1.89355   1.91525   1.92322
 Alpha virt. eigenvalues --    1.94283   1.95277   1.98204   1.99019   2.00071
 Alpha virt. eigenvalues --    2.02382   2.03402   2.04295   2.06120   2.07537
 Alpha virt. eigenvalues --    2.07810   2.08515   2.10588   2.11273   2.14121
 Alpha virt. eigenvalues --    2.15219   2.16527   2.19037   2.20207   2.22268
 Alpha virt. eigenvalues --    2.22949   2.27043   2.28512   2.31806   2.38950
 Alpha virt. eigenvalues --    2.41961   2.42949   2.44959   2.50627   2.55321
 Alpha virt. eigenvalues --    2.57757   2.62109   2.64395   2.67791   2.71469
 Alpha virt. eigenvalues --    2.73718   2.75685   2.77422   2.79684   2.80530
 Alpha virt. eigenvalues --    2.81322   2.83352   2.84922   2.86219   2.88923
 Alpha virt. eigenvalues --    2.90448   2.94325   2.96442   3.00135   3.01532
 Alpha virt. eigenvalues --    3.02620   3.04367   3.04940   3.07209   3.10592
 Alpha virt. eigenvalues --    3.11805   3.13026   3.14179   3.18728   3.28721
 Alpha virt. eigenvalues --    3.29539   3.34006   3.35802   3.40487   3.45676
 Alpha virt. eigenvalues --    3.48927   3.56353   3.58186   3.66973   3.69498
 Alpha virt. eigenvalues --    3.87580   3.92500   4.02440   4.13032   4.21842
 Alpha virt. eigenvalues --    4.40068   4.55528   5.13118   5.23495   5.36480
 Alpha virt. eigenvalues --    8.03127   8.06027   8.08066  17.40352  17.41775
 Alpha virt. eigenvalues --   17.43008  17.55810  17.57643  17.59931  17.60366
 Alpha virt. eigenvalues --   17.63424  17.63983  23.53976  23.68808  23.79672
 Alpha virt. eigenvalues --   23.88396  23.92535  23.97773  23.98712  24.00906
 Alpha virt. eigenvalues --   24.06580  24.08551  49.98399 189.27338 189.30659
 Alpha virt. eigenvalues --  189.33106
          Condensed to atoms (all electrons):
               1          2          3          4          5          6
     1  C    7.101406  -0.935926   0.145914  -1.043112   0.843279   0.045442
     2  C   -0.935926  12.230891  -3.313065   0.083520  -2.313843  -0.031273
     3  C    0.145914  -3.313065   9.247980  -0.027047   0.652345   0.022424
     4  C   -1.043112   0.083520  -0.027047   7.342728  -0.589008   0.360849
     5  S    0.843279  -2.313843   0.652345  -0.589008  17.315899  -0.026525
     6  H    0.045442  -0.031273   0.022424   0.360849  -0.026525   0.422259
     7  C    0.049175  -0.546048  -0.322244  -0.102320   0.583151  -0.002138
     8  S    0.038065  -0.344474   0.650430   0.081476   0.069029  -0.000572
     9  C   -0.033357  -0.076658  -0.445913  -0.019494   0.105327   0.000027
    10  C    0.045201  -0.283482   0.656124  -0.008945  -0.102383  -0.000076
    11  C   -0.075332   0.567833  -1.141739  -0.172417  -0.080319   0.000945
    12  H   -0.003157   0.002541   0.026446   0.003099  -0.005928   0.000002
    13  S   -0.000839   0.024492   0.006568  -0.000060  -0.012299   0.000001
    14  C    0.000039   0.008083  -0.010128   0.000543  -0.000450  -0.000000
    15  C   -0.017370  -0.017255  -0.040283   0.003465  -0.004853  -0.000004
    16  H   -0.000000  -0.000062  -0.000107  -0.000001   0.000017   0.000000
    17  H    0.000052   0.000071  -0.000553  -0.000007   0.000001  -0.000000
    18  H   -0.073053   0.286234   0.117979  -0.031052   0.006789  -0.000047
    19  O    0.330633  -0.023062  -0.018772  -0.140700   0.011872  -0.000315
    20  H   -0.061563  -0.025200   0.029777   0.055476  -0.002709  -0.000131
               7          8          9         10         11         12
     1  C    0.049175   0.038065  -0.033357   0.045201  -0.075332  -0.003157
     2  C   -0.546048  -0.344474  -0.076658  -0.283482   0.567833   0.002541
     3  C   -0.322244   0.650430  -0.445913   0.656124  -1.141739   0.026446
     4  C   -0.102320   0.081476  -0.019494  -0.008945  -0.172417   0.003099
     5  S    0.583151   0.069029   0.105327  -0.102383  -0.080319  -0.005928
     6  H   -0.002138  -0.000572   0.000027  -0.000076   0.000945   0.000002
     7  C    9.905797   0.609646  -0.270587   1.360083  -4.336581   0.115675
     8  S    0.609646  17.823148  -0.998164   1.454050  -2.666673   0.009056
     9  C   -0.270587  -0.998164  13.334386  -6.191889   2.088198  -0.044301
    10  C    1.360083   1.454050  -6.191889  18.749393  -8.795611   0.118617
    11  C   -4.336581  -2.666673   2.088198  -8.795611  18.520832   0.139064
    12  H    0.115675   0.009056  -0.044301   0.118617   0.139064   0.468915
    13  S   -0.446886   0.063335   0.520776  -1.173231   0.653392   0.002532
    14  C    0.222077  -0.020342   0.748906  -0.426030  -0.334772   0.002200
    15  C   -0.585170  -0.192368  -2.806593   0.412540   1.199842  -0.012726
    16  H   -0.003560   0.000524  -0.030592   0.014518   0.010649  -0.000002
    17  H    0.006557   0.013663   0.018661  -0.031827  -0.005354   0.000009
    18  H    0.015170   0.008290   0.003160  -0.001115  -0.001348   0.000005
    19  O    0.012324   0.001372  -0.000450   0.000468  -0.000666   0.000001
    20  H   -0.001150   0.000920  -0.000098   0.000119  -0.000250   0.000000
              13         14         15         16         17         18
     1  C   -0.000839   0.000039  -0.017370  -0.000000   0.000052  -0.073053
     2  C    0.024492   0.008083  -0.017255  -0.000062   0.000071   0.286234
     3  C    0.006568  -0.010128  -0.040283  -0.000107  -0.000553   0.117979
     4  C   -0.000060   0.000543   0.003465  -0.000001  -0.000007  -0.031052
     5  S   -0.012299  -0.000450  -0.004853   0.000017   0.000001   0.006789
     6  H    0.000001  -0.000000  -0.000004   0.000000  -0.000000  -0.000047
     7  C   -0.446886   0.222077  -0.585170  -0.003560   0.006557   0.015170
     8  S    0.063335  -0.020342  -0.192368   0.000524   0.013663   0.008290
     9  C    0.520776   0.748906  -2.806593  -0.030592   0.018661   0.003160
    10  C   -1.173231  -0.426030   0.412540   0.014518  -0.031827  -0.001115
    11  C    0.653392  -0.334772   1.199842   0.010649  -0.005354  -0.001348
    12  H    0.002532   0.002200  -0.012726  -0.000002   0.000009   0.000005
    13  S   16.623780   0.310040  -0.364984  -0.024884  -0.000571  -0.000057
    14  C    0.310040   5.549720  -0.125875   0.372042   0.011387   0.000019
    15  C   -0.364984  -0.125875   8.203581   0.024677   0.346424  -0.000225
    16  H   -0.024884   0.372042   0.024677   0.436316  -0.002628  -0.000000
    17  H   -0.000571   0.011387   0.346424  -0.002628   0.473909  -0.000000
    18  H   -0.000057   0.000019  -0.000225  -0.000000  -0.000000   0.495070
    19  O   -0.000004   0.000001  -0.000002  -0.000000   0.000000  -0.000315
    20  H    0.000000  -0.000000  -0.000004  -0.000000   0.000000   0.000669
              19         20
     1  C    0.330633  -0.061563
     2  C   -0.023062  -0.025200
     3  C   -0.018772   0.029777
     4  C   -0.140700   0.055476
     5  S    0.011872  -0.002709
     6  H   -0.000315  -0.000131
     7  C    0.012324  -0.001150
     8  S    0.001372   0.000920
     9  C   -0.000450  -0.000098
    10  C    0.000468   0.000119
    11  C   -0.000666  -0.000250
    12  H    0.000001   0.000000
    13  S   -0.000004   0.000000
    14  C    0.000001  -0.000000
    15  C   -0.000002  -0.000004
    16  H   -0.000000  -0.000000
    17  H    0.000000   0.000000
    18  H   -0.000315   0.000669
    19  O    8.085477   0.207096
    20  H    0.207096   0.492640
 Mulliken charges:
               1
     1  C   -0.355497
     2  C    0.706682
     3  C   -0.236137
     4  C    0.203007
     5  S   -0.449392
     6  H    0.209133
     7  C   -0.262970
     8  S   -0.600411
     9  C    0.098654
    10  C    0.203476
    11  C    0.430308
    12  H    0.177953
    13  S   -0.181101
    14  C   -0.307461
    15  C   -0.022818
    16  H    0.203092
    17  H    0.170204
    18  H    0.173829
    19  O   -0.464958
    20  H    0.304406
 Sum of Mulliken charges =  -0.00000
 Mulliken charges with hydrogens summed into heavy atoms:
               1
     1  C   -0.355497
     2  C    0.880511
     3  C   -0.236137
     4  C    0.412141
     5  S   -0.449392
     7  C   -0.262970
     8  S   -0.600411
     9  C    0.098654
    10  C    0.203476
    11  C    0.608261
    13  S   -0.181101
    14  C   -0.104369
    15  C    0.147387
    19  O   -0.160552
 Electronic spatial extent (au):  <R**2>=           4993.0643
 Charge=              0.0000 electrons
 Dipole moment (field-independent basis, Debye):
    X=              1.3798    Y=              1.1463    Z=              1.1601  Tot=              2.1363
 Quadrupole moment (field-independent basis, Debye-Ang):
   XX=           -100.2884   YY=            -87.9399   ZZ=           -108.7373
   XY=             -0.7799   XZ=              3.8144   YZ=              2.7993
 Traceless Quadrupole moment (field-independent basis, Debye-Ang):
   XX=             -1.2999   YY=             11.0487   ZZ=             -9.7488
   XY=             -0.7799   XZ=              3.8144   YZ=              2.7993
 Octapole moment (field-independent basis, Debye-Ang**2):
  XXX=             65.3900  YYY=             28.1320  ZZZ=              1.6956  XYY=            -45.9790
  XXY=             38.9969  XXZ=             28.1457  XZZ=             -1.5347  YZZ=              0.7598
  YYZ=              9.7802  XYZ=            -14.0699
 Hexadecapole moment (field-independent basis, Debye-Ang**3):
 XXXX=          -5627.4130 YYYY=           -862.6983 ZZZZ=           -228.0314 XXXY=            -67.8585
 XXXZ=            132.7162 YYYX=           -113.5600 YYYZ=             25.9678 ZZZX=             11.1603
 ZZZY=              2.6774 XXYY=           -808.5191 XXZZ=          -1035.7836 YYZZ=           -204.2844
 XXYZ=             81.6772 YYXZ=            -28.1897 ZZXY=            -18.5713
 N-N= 1.076441822702D+03 E-N=-6.062025980559D+03  KE= 1.648892141007D+03
 Calling FoFJK, ICntrl=      2127 FMM=F ISym2X=0 I1Cent= 0 IOpClX= 0 NMat=1 NMatS=1 NMatT=0.
 ***** Axes restored to original set *****
 -------------------------------------------------------------------
 Center     Atomic                   Forces (Hartrees/Bohr)
 Number     Number              X              Y              Z
 -------------------------------------------------------------------
      1        6          -0.018525608    0.007583073   -0.021019530
      2        6           0.006059910    0.021037397   -0.017356756
      3        6          -0.045051498    0.026263081    0.004945113
      4        6          -0.008136442    0.060526821   -0.010216274
      5       16          -0.005093861    0.036424305   -0.004320416
      6        1           0.002663165   -0.003576668   -0.000393769
      7        6           0.051163260   -0.026298919    0.014737209
      8       16          -0.012027240   -0.018552751    0.005268376
      9        6           0.012203884   -0.016860935    0.034681134
     10        6          -0.024410178    0.034632636   -0.008515611
     11        6          -0.032636863    0.042902990   -0.029280659
     12        1          -0.005209273   -0.003173805   -0.000469536
     13       16           0.008518335    0.011975749   -0.018607193
     14        6          -0.052074980    0.026585463   -0.029778347
     15        6           0.035403966   -0.029455147    0.043520847
     16        1           0.001949778   -0.006850103   -0.001751154
     17        1           0.003428468   -0.006846919   -0.005373005
     18        1           0.014283290   -0.070683034    0.019452332
     19        8           0.023492854    0.026531646   -0.007078083
     20        1           0.043999036   -0.112164879    0.031555322
 -------------------------------------------------------------------
 Cartesian Forces:  Max     0.112164879 RMS     0.029541187

 GradGradGradGradGradGradGradGradGradGradGradGradGradGradGradGradGradGrad
 Berny optimization.
 FormGI is forming the generalized inverse of G from B-inverse, IUseBI=4.
 Internal  Forces:  Max     0.121131479 RMS     0.024596156
 Search for a local minimum.
 Step number   1 out of a maximum of  116
 All quantities printed in internal units (Hartrees-Bohrs-Radians)
 Mixed Optimization -- RFO/linear search
 Second derivative matrix not updated -- first step.
 ITU=  0
     Eigenvalues ---    0.00230   0.00983   0.01055   0.01222   0.01273
     Eigenvalues ---    0.01296   0.01386   0.01417   0.01420   0.01464
     Eigenvalues ---    0.01491   0.01554   0.01594   0.01769   0.02199
     Eigenvalues ---    0.02651   0.15072   0.15686   0.15736   0.15872
     Eigenvalues ---    0.15997   0.16000   0.18002   0.18458   0.20203
     Eigenvalues ---    0.21719   0.22444   0.23320   0.23380   0.23776
     Eigenvalues ---    0.23979   0.24292   0.24978   0.24995   0.26219
     Eigenvalues ---    0.26531   0.28413   0.30834   0.31360   0.31567
     Eigenvalues ---    0.34821   0.35247   0.35849   0.35907   0.36006
     Eigenvalues ---    0.36206   0.36309   0.37598   0.38222   0.38494
     Eigenvalues ---    0.39449   0.39658   0.406631000.000001000.00000
     Eigenvalues --- 1000.000001000.000001000.000001000.000001000.00000
     Eigenvalues --- 1000.000001000.000001000.000001000.000001000.00000
     Eigenvalues --- 1000.000001000.000001000.000001000.000001000.00000
     Eigenvalues --- 1000.000001000.000001000.000001000.000001000.00000
     Eigenvalues --- 1000.000001000.000001000.000001000.000001000.00000
     Eigenvalues --- 1000.000001000.000001000.000001000.000001000.00000
     Eigenvalues --- 1000.000001000.000001000.000001000.000001000.00000
     Eigenvalues --- 1000.000001000.000001000.000001000.000001000.00000
     Eigenvalues --- 1000.000001000.000001000.000001000.000001000.00000
     Eigenvalues --- 1000.000001000.000001000.000001000.000001000.00000
     Eigenvalues --- 1000.00000
 RFO step:  Lambda=-1.59870323D-01 EMin= 2.30000000D-03
 Linear search not attempted -- first point.
 Maximum step size (   0.300) exceeded in Quadratic search.
    -- Step size scaled by   0.473
 Iteration  1 RMS(Cart)=  0.06067343 RMS(Int)=  0.00139066
 Iteration  2 RMS(Cart)=  0.00164526 RMS(Int)=  0.00005956
 Iteration  3 RMS(Cart)=  0.00000827 RMS(Int)=  0.00005932
 Iteration  4 RMS(Cart)=  0.00000000 RMS(Int)=  0.00005932
 Iteration  1 RMS(Cart)=  0.00000035 RMS(Int)=  0.00000018
 Variable       Old X    -DE/DX   Delta X   Delta X   Delta X     New X
                                 (Linear)    (Quad)   (Total)
    R1        2.71917  -0.02420   0.00000  -0.02156  -0.02149   2.69768
    R2        2.71391  -0.06954   0.00000  -0.05918  -0.05915   2.65476
    R3        3.19503  -0.10729   0.00000  -0.14748  -0.14748   3.04756
    R4        2.75906  -0.07417   0.00000  -0.06662  -0.06660   2.69247
    R5        2.35064  -0.07279   0.00000  -0.09140  -0.09140   2.25924
    R6        3.39578  -0.02608   0.00000  -0.02809  -0.02813   3.36765
    R7        2.74954  -0.01478   0.00000  -0.01306  -0.01306   2.73648
    R8        3.28671  -0.02098   0.00000  -0.02016  -0.02021   3.26651
    R9        2.04073  -0.00064   0.00000  -0.00059  -0.00059   2.04014
   R10        3.38372  -0.01964   0.00000  -0.02078  -0.02081   3.36290
   R11        2.76721  -0.07053   0.00000  -0.06394  -0.06395   2.70326
   R12        3.26947  -0.00524   0.00000  -0.00452  -0.00453   3.26494
   R13        2.72315  -0.03925   0.00000  -0.03409  -0.03403   2.68912
   R14        2.69427  -0.00322   0.00000  -0.00339  -0.00335   2.69092
   R15        2.70786  -0.01406   0.00000  -0.01261  -0.01258   2.69528
   R16        3.27268  -0.00450   0.00000  -0.00364  -0.00365   3.26903
   R17        2.03761   0.00244   0.00000   0.00222   0.00222   2.03983
   R18        3.33503  -0.01802   0.00000  -0.01839  -0.01844   3.31659
   R19        2.73190  -0.06585   0.00000  -0.05734  -0.05735   2.67455
   R20        2.04227  -0.00080   0.00000  -0.00073  -0.00073   2.04154
   R21        2.05276  -0.00367   0.00000  -0.00339  -0.00339   2.04936
   R22        2.39943  -0.12113   0.00000  -0.15847  -0.15847   2.24096
    A1        1.97020   0.01991   0.00000   0.02153   0.02161   1.99182
    A2        2.13260   0.00485   0.00000   0.00708   0.00705   2.13965
    A3        2.16079  -0.02411   0.00000  -0.02693  -0.02701   2.13377
    A4        1.97187  -0.00399   0.00000  -0.00663  -0.00654   1.96533
    A5        1.96334   0.02135   0.00000   0.03214   0.03210   1.99544
    A6        2.34288  -0.01715   0.00000  -0.02487  -0.02493   2.31796
    A7        1.90440   0.00150   0.00000   0.00249   0.00248   1.90687
    A8        2.31891  -0.00961   0.00000  -0.01148  -0.01148   2.30743
    A9        2.05972   0.00812   0.00000   0.00900   0.00900   2.06872
   A10        1.95339  -0.01472   0.00000  -0.01810  -0.01811   1.93528
   A11        2.17580   0.01184   0.00000   0.01570   0.01570   2.19150
   A12        2.15384   0.00290   0.00000   0.00246   0.00246   2.15630
   A13        1.62490  -0.00269   0.00000   0.00073   0.00057   1.62546
   A14        2.12901  -0.00510   0.00000  -0.00575  -0.00577   2.12324
   A15        2.24002  -0.00442   0.00000  -0.00498  -0.00500   2.23503
   A16        1.91345   0.00959   0.00000   0.01087   0.01090   1.92435
   A17        1.61884  -0.00770   0.00000  -0.00700  -0.00698   1.61186
   A18        1.96185  -0.01001   0.00000  -0.01012  -0.01024   1.95161
   A19        2.23770   0.00826   0.00000   0.01310   0.01298   2.25068
   A20        1.96640   0.00557   0.00000   0.00619   0.00623   1.97263
   A21        1.96624   0.00760   0.00000   0.00791   0.00792   1.97416
   A22        1.96600  -0.01278   0.00000  -0.01323  -0.01329   1.95271
   A23        2.23762   0.00856   0.00000   0.01324   0.01314   2.25075
   A24        1.96366   0.00055   0.00000  -0.00161  -0.00155   1.96211
   A25        2.16160  -0.00388   0.00000  -0.00417  -0.00422   2.15737
   A26        2.14613   0.00385   0.00000   0.00720   0.00715   2.15328
   A27        1.59369   0.00026   0.00000   0.00163   0.00162   1.59531
   A28        1.96001   0.00200   0.00000   0.00162   0.00160   1.96161
   A29        2.13599  -0.00472   0.00000  -0.00579  -0.00584   2.13015
   A30        2.16997   0.00380   0.00000   0.00697   0.00693   2.17690
   A31        1.93835   0.00494   0.00000   0.00378   0.00383   1.94219
   A32        2.16652   0.00032   0.00000   0.00338   0.00328   2.16980
   A33        2.14142  -0.00334   0.00000  -0.00219  -0.00230   2.13912
   A34        2.33954  -0.06945   0.00000  -0.10280  -0.10280   2.23674
    D1        0.00683  -0.00104   0.00000  -0.00282  -0.00283   0.00400
    D2        3.05589  -0.00028   0.00000   0.00143   0.00158   3.05747
    D3       -2.93068  -0.00153   0.00000  -0.00826  -0.00845  -2.93913
    D4        0.11838  -0.00077   0.00000  -0.00401  -0.00404   0.11434
    D5       -0.00671   0.00049   0.00000   0.00104   0.00105  -0.00566
    D6       -3.13020  -0.00098   0.00000  -0.00204  -0.00203  -3.13222
    D7        2.92697   0.00504   0.00000   0.01133   0.01125   2.93822
    D8       -0.19651   0.00357   0.00000   0.00824   0.00817  -0.18834
    D9       -0.13323   0.00188   0.00000   0.00257   0.00252  -0.13070
   D10       -3.04818  -0.00433   0.00000  -0.00974  -0.00969  -3.05787
   D11       -0.00388   0.00124   0.00000   0.00340   0.00335  -0.00053
   D12        3.11762   0.00202   0.00000   0.00366   0.00362   3.12124
   D13       -3.02603  -0.00280   0.00000  -0.00660  -0.00656  -3.03259
   D14        0.09547  -0.00202   0.00000  -0.00634  -0.00629   0.08918
   D15        0.00006  -0.00076   0.00000  -0.00233  -0.00232  -0.00226
   D16       -3.12486  -0.00119   0.00000  -0.00229  -0.00228  -3.12714
   D17       -0.43609  -0.00171   0.00000   0.00000  -0.00000  -0.43609
   D18        2.66100   0.00082   0.00000   0.00466   0.00466   2.66566
   D19        2.68400  -0.00095   0.00000   0.00020   0.00020   2.68420
   D20       -0.50209   0.00158   0.00000   0.00486   0.00486  -0.49723
   D21        0.00376   0.00015   0.00000   0.00075   0.00073   0.00448
   D22        3.12751   0.00171   0.00000   0.00396   0.00390   3.13141
   D23        3.13744   0.00093   0.00000   0.00173   0.00174   3.13918
   D24        0.03290  -0.00092   0.00000  -0.00186  -0.00188   0.03102
   D25       -3.13863  -0.00189   0.00000  -0.00371  -0.00370   3.14086
   D26       -0.15750   0.00203   0.00000   0.00659   0.00658  -0.15092
   D27       -0.03711   0.00012   0.00000   0.00018   0.00023  -0.03688
   D28        2.94402   0.00404   0.00000   0.01048   0.01051   2.95453
   D29       -0.02095   0.00192   0.00000   0.00355   0.00353  -0.01742
   D30       -2.61742  -0.00700   0.00000  -0.01677  -0.01679  -2.63421
   D31        0.00287  -0.00178   0.00000  -0.00370  -0.00367  -0.00081
   D32       -2.68845  -0.01048   0.00000  -0.02206  -0.02188  -2.71033
   D33        2.68716   0.00752   0.00000   0.01659   0.01648   2.70364
   D34       -0.00415  -0.00119   0.00000  -0.00177  -0.00173  -0.00588
   D35        2.61437   0.00606   0.00000   0.01783   0.01796   2.63233
   D36       -0.24449  -0.00066   0.00000  -0.00037  -0.00031  -0.24480
   D37        0.01905   0.00104   0.00000   0.00157   0.00154   0.02060
   D38       -2.83981  -0.00568   0.00000  -0.01663  -0.01673  -2.85653
   D39        0.02270   0.00105   0.00000   0.00217   0.00215   0.02485
   D40       -2.96007  -0.00201   0.00000  -0.00682  -0.00689  -2.96696
   D41        2.62775   0.00459   0.00000   0.01529   0.01542   2.64317
   D42       -0.35502   0.00152   0.00000   0.00629   0.00637  -0.34865
   D43       -0.00912   0.00105   0.00000   0.00137   0.00135  -0.00777
   D44       -2.61423  -0.00754   0.00000  -0.01699  -0.01695  -2.63118
   D45        0.02006  -0.00032   0.00000  -0.00036  -0.00036   0.01970
   D46        2.97116   0.00610   0.00000   0.01589   0.01582   2.98698
   D47       -0.02582  -0.00024   0.00000  -0.00051  -0.00049  -0.02630
   D48        2.83781   0.00704   0.00000   0.01842   0.01845   2.85625
   D49       -2.97255  -0.00571   0.00000  -0.01548  -0.01552  -2.98807
   D50       -0.10892   0.00157   0.00000   0.00345   0.00342  -0.10551
         Item               Value     Threshold  Converged?
 Maximum Force            0.121131     0.000450     NO 
 RMS     Force            0.024712     0.000300     NO 
 Maximum Displacement     0.401385     0.001800     NO 
 RMS     Displacement     0.060235     0.001200     NO 
 Predicted change in Energy=-6.527608D-02
 GradGradGradGradGradGradGradGradGradGradGradGradGradGradGradGradGradGrad

                          Input orientation:                          
 ---------------------------------------------------------------------
 Center     Atomic      Atomic             Coordinates (Angstroms)
 Number     Number       Type             X           Y           Z
 ---------------------------------------------------------------------
      1          6           0       -4.221897   -1.366746   -0.225680
      2          6           0       -2.911011   -0.961640   -0.619843
      3          6           0       -1.980801   -2.040873   -0.618886
      4          6           0       -4.331438   -2.732169    0.086080
      5         16           0       -2.813029   -3.533621   -0.113992
      6          1           0       -5.235158   -3.234939    0.395986
      7          6           0       -0.575405   -2.114152   -0.960109
      8         16           0        0.175097   -0.953788   -2.081348
      9          6           0        1.725267   -1.701571   -1.930178
     10          6           0        1.695944   -2.802103   -1.028535
     11          6           0        0.405999   -3.029004   -0.463884
     12          1           0        0.226674   -3.713454    0.351308
     13         16           0        3.253374   -3.116844   -0.344510
     14          6           0        3.968271   -1.799150   -1.257121
     15          6           0        3.017479   -1.115934   -2.052303
     16          1           0        4.979023   -1.461310   -1.080013
     17          1           0        3.206968   -0.135543   -2.475406
     18          1           0       -2.832929    0.177917   -0.972862
     19          8           0       -5.513831   -0.417463   -0.400494
     20          1           0       -5.547596    0.719386   -0.736209
 ---------------------------------------------------------------------
                    Distance matrix (angstroms):
                    1          2          3          4          5
     1  C    0.000000
     2  C    1.427550   0.000000
     3  C    2.373092   1.424793   0.000000
     4  C    1.404839   2.377123   2.549580   0.000000
     5  S    2.587031   2.623084   1.782082   1.728560   0.000000
     6  H    2.214342   3.406092   3.612008   1.079597   2.493191
     7  C    3.794062   2.626618   1.448082   3.947688   2.781684
     8  S    4.790365   3.414692   2.822843   5.307470   4.410773
     9  C    6.195658   4.874376   3.945827   6.466150   5.220255
    10  C    6.142122   4.977787   3.777001   6.129975   4.658577
    11  C    4.923136   3.911633   2.587904   4.778481   3.277073
    12  H    5.062582   4.284937   2.934579   4.670080   3.080363
    13  S    7.678323   6.536081   5.350662   7.606757   6.085071
    14  C    8.266177   6.959315   5.988091   8.459307   7.092331
    15  C    7.470477   6.101044   5.281383   7.822498   6.602808
    16  H    9.240982   7.919221   6.999120   9.468872   8.120575
    17  H    7.859082   6.446334   5.830086   8.374440   7.305038
    18  H    2.207600   1.195537   2.403008   3.440275   3.809668
    19  O    1.612697   2.668130   3.894285   2.644366   4.133625
    20  H    2.523900   3.129053   4.511632   3.750791   5.094417
                    6          7          8          9         10
     6  H    0.000000
     7  C    4.980810   0.000000
     8  S    6.372731   1.779571   0.000000
     9  C    7.497318   2.530681   1.727732   0.000000
    10  C    7.089202   2.374233   2.614892   1.423022   0.000000
    11  C    5.710030   1.430506   2.641217   2.377512   1.426279
    12  H    5.482936   2.218313   3.679162   3.390964   2.212076
    13  S    8.521588   4.005484   4.143816   2.617720   1.729896
    14  C    9.460304   4.564255   3.972676   2.343842   2.494320
    15  C    8.865119   3.885632   2.847151   1.423972   2.374389
    16  H   10.471573   5.593947   4.933351   3.371563   3.546686
    17  H    9.440374   4.529610   3.164972   2.223771   3.389274
    18  H    4.392271   3.217166   3.399664   5.022557   5.421652
    19  O    2.941124   5.251664   5.956242   7.509554   7.619829
    20  H    4.125067   5.727282   6.112130   7.757650   8.059480
                   11         12         13         14         15
    11  C    0.000000
    12  H    1.079429   0.000000
    13  S    2.851229   3.162439   0.000000
    14  C    3.851174   4.500128   1.755065   0.000000
    15  C    3.605931   4.507000   2.641183   1.415310   0.000000
    16  H    4.873379   5.450290   2.501924   1.080335   2.216368
    17  H    4.501529   5.447378   3.664837   2.198042   1.084477
    18  H    4.586290   5.124194   6.949343   7.088435   6.088228
    19  O    6.470592   6.661994   9.173532   9.620453   8.717774
    20  H    7.040589   7.360364   9.608703   9.857287   8.857823
                   16         17         18         19         20
    16  H    0.000000
    17  H    2.616287   0.000000
    18  H    7.982802   6.231874   0.000000
    19  O   10.566520   8.968672   2.805231   0.000000
    20  H   10.755620   8.966499   2.778239   1.185863   0.000000
 Stoichiometry    C10H6OS3
 Framework group  C1[X(C10H6OS3)]
 Deg. of freedom    54
 Full point group                 C1      NOp   1
 Largest Abelian subgroup         C1      NOp   1
 Largest concise Abelian subgroup C1      NOp   1
                         Standard orientation:                         
 ---------------------------------------------------------------------
 Center     Atomic      Atomic             Coordinates (Angstroms)
 Number     Number       Type             X           Y           Z
 ---------------------------------------------------------------------
      1          6           0       -3.822766    0.326936    0.354002
      2          6           0       -2.500481    0.864040    0.385292
      3          6           0       -1.513686   -0.087020   -0.004264
      4          6           0       -3.886668   -1.018495   -0.045127
      5         16           0       -2.309421   -1.632820   -0.395576
      6          1           0       -4.789372   -1.602890   -0.140729
      7          6           0       -0.075257    0.005082   -0.143479
      8         16           0        0.735093    1.558118   -0.456988
      9          6           0        2.297566    0.820905   -0.472863
     10          6           0        2.224885   -0.578064   -0.222667
     11          6           0        0.891679   -1.041630   -0.017876
     12          1           0        0.655760   -2.033619    0.336339
     13         16           0        3.703092   -1.193594    0.431985
     14          6           0        4.443102    0.396622    0.369903
     15          6           0        3.557118    1.384764   -0.121738
     16          1           0        5.402232    0.600684    0.823281
     17          1           0        3.737184    2.446384    0.007214
     18          1           0       -2.449003    2.031840    0.636098
     19          8           0       -5.138744    1.250418    0.481191
     20          1           0       -5.200019    2.408171    0.730440
 ---------------------------------------------------------------------
 Rotational constants (GHZ):           1.3997142           0.2338775           0.2055641
 Standard basis: 6-311+G(d,p) (5D, 7F)
 There are   382 symmetry adapted cartesian basis functions of A   symmetry.
 There are   368 symmetry adapted basis functions of A   symmetry.
   368 basis functions,   594 primitive gaussians,   382 cartesian basis functions
    61 alpha electrons       61 beta electrons
       nuclear repulsion energy      1088.1854641519 Hartrees.
 NAtoms=   20 NActive=   20 NUniq=   20 SFac= 1.00D+00 NAtFMM=   60 NAOKFM=F Big=F
 Integral buffers will be    131072 words long.
 Raffenetti 2 integral format.
 Two-electron integral symmetry is turned on.
 Nuclear repulsion after empirical dispersion term =     1088.1755538550 Hartrees.
 One-electron integrals computed using PRISM.
 NBasis=   368 RedAO= T EigKep=  2.66D-06  NBF=   368
 NBsUse=   367 1.00D-06 EigRej=  4.54D-07 NBFU=   367
 Initial guess from the checkpoint file:  "/tmp/pbs.4766238[150].pbs/Gau-993374.chk"
 B after Tr=    -0.000000   -0.000000   -0.000000
         Rot=    0.999994   -0.002260   -0.000696    0.002445 Ang=  -0.39 deg.
 ExpMin= 4.05D-02 ExpMax= 9.34D+04 ExpMxC= 3.17D+03 IAcc=3 IRadAn=         5 AccDes= 0.00D+00
 Harris functional with IExCor= 4639 and IRadAn=       5 diagonalized for initial guess.
 HarFok:  IExCor= 4639 AccDes= 0.00D+00 IRadAn=         5 IDoV= 1 UseB2=F ITyADJ=14
 ICtDFT=  3500011 ScaDFX=  1.000000  1.000000  1.000000  1.000000
 FoFCou: FMM=F IPFlag=           0 FMFlag=      100000 FMFlg1=           0
         NFxFlg=           0 DoJE=T BraDBF=F KetDBF=T FulRan=T
         wScrn=  0.000000 ICntrl=       500 IOpCl=  0 I1Cent=   200000004 NGrid=           0
         NMat0=    1 NMatS0=      1 NMatT0=    0 NMatD0=    1 NMtDS0=    0 NMtDT0=    0
 Petite list used in FoFCou.
 Requested convergence on RMS density matrix=1.00D-08 within 128 cycles.
 Requested convergence on MAX density matrix=1.00D-06.
 Requested convergence on             energy=1.00D-06.
 No special actions if energy rises.
 SCF Done:  E(RwB97XD) =  -1654.29701236     A.U. after   15 cycles
            NFock= 15  Conv=0.63D-08     -V/T= 2.0029
 Calling FoFJK, ICntrl=      2127 FMM=F ISym2X=0 I1Cent= 0 IOpClX= 0 NMat=1 NMatS=1 NMatT=0.
 ***** Axes restored to original set *****
 -------------------------------------------------------------------
 Center     Atomic                   Forces (Hartrees/Bohr)
 Number     Number              X              Y              Z
 -------------------------------------------------------------------
      1        6          -0.037909557    0.024769803   -0.021368623
      2        6           0.005166057    0.022490578   -0.015473905
      3        6          -0.035772780    0.017075918    0.004545177
      4        6          -0.005952065    0.044584002   -0.006180456
      5       16           0.000164592    0.023644806   -0.002848154
      6        1           0.002303571   -0.002990443   -0.000724969
      7        6           0.041130849   -0.019124162    0.010264802
      8       16          -0.011224848   -0.013484026    0.001529197
      9        6           0.008004103   -0.011532141    0.027638680
     10        6          -0.014690980    0.027934024   -0.005612644
     11        6          -0.025944094    0.030202797   -0.020369210
     12        1          -0.003999738   -0.002974673   -0.001172802
     13       16           0.008485906    0.005684656   -0.013196493
     14        6          -0.038079704    0.020481816   -0.020837280
     15        6           0.026603401   -0.019452712    0.031757792
     16        1           0.001872772   -0.006352518   -0.001558222
     17        1           0.002514763   -0.005586827   -0.005910820
     18        1           0.011392765   -0.056340160    0.016151206
     19        8           0.036219042    0.030676179   -0.008205743
     20        1           0.029715944   -0.109706915    0.031572466
 -------------------------------------------------------------------
 Cartesian Forces:  Max     0.109706915 RMS     0.025363616

 GradGradGradGradGradGradGradGradGradGradGradGradGradGradGradGradGradGrad
 Berny optimization.
 Using GEDIIS/GDIIS optimizer.
 FormGI is forming the generalized inverse of G from B-inverse, IUseBI=4.
 Internal  Forces:  Max     0.114955305 RMS     0.020397989
 Search for a local minimum.
 Step number   2 out of a maximum of  116
 All quantities printed in internal units (Hartrees-Bohrs-Radians)
 Mixed Optimization -- RFO/linear search
 Update second derivatives using D2CorX and points    1    2
 DE= -7.01D-02 DEPred=-6.53D-02 R= 1.07D+00
 TightC=F SS=  1.41D+00  RLast= 3.06D-01 DXNew= 5.0454D-01 9.1900D-01
 Trust test= 1.07D+00 RLast= 3.06D-01 DXMaxT set to 5.05D-01
 ITU=  1  0
 Use linear search instead of GDIIS.
 Linear search step of   0.600 exceeds DXMaxT=   0.505 but not scaled.
 Quartic linear search produced a step of  2.00000.
 Iteration  1 RMS(Cart)=  0.10474762 RMS(Int)=  0.01821347
 Iteration  2 RMS(Cart)=  0.02055653 RMS(Int)=  0.00036417
 Iteration  3 RMS(Cart)=  0.00010899 RMS(Int)=  0.00035655
 Iteration  4 RMS(Cart)=  0.00000003 RMS(Int)=  0.00035655
 Iteration  1 RMS(Cart)=  0.00000139 RMS(Int)=  0.00000074
 Iteration  2 RMS(Cart)=  0.00000076 RMS(Int)=  0.00000083
 Variable       Old X    -DE/DX   Delta X   Delta X   Delta X     New X
                                 (Linear)    (Quad)   (Total)
    R1        2.69768  -0.01321  -0.04299   0.00000  -0.04257   2.65511
    R2        2.65476  -0.04739  -0.11830   0.00000  -0.11813   2.53663
    R3        3.04756  -0.10187  -0.29496   0.00000  -0.29496   2.75260
    R4        2.69247  -0.05063  -0.13319   0.00000  -0.13303   2.55944
    R5        2.25924  -0.05773  -0.18280   0.00000  -0.18280   2.07643
    R6        3.36765  -0.01960  -0.05627   0.00000  -0.05657   3.31108
    R7        2.73648  -0.00606  -0.02611   0.00000  -0.02611   2.71037
    R8        3.26651  -0.01154  -0.04041   0.00000  -0.04071   3.22579
    R9        2.04014  -0.00074  -0.00117   0.00000  -0.00117   2.03897
   R10        3.36290  -0.01404  -0.04163   0.00000  -0.04180   3.32110
   R11        2.70326  -0.05047  -0.12790   0.00000  -0.12792   2.57534
   R12        3.26494  -0.00164  -0.00906   0.00000  -0.00910   3.25584
   R13        2.68912  -0.02751  -0.06805   0.00000  -0.06766   2.62146
   R14        2.69092  -0.00054  -0.00670   0.00000  -0.00642   2.68450
   R15        2.69528  -0.00697  -0.02516   0.00000  -0.02501   2.67026
   R16        3.26903  -0.00134  -0.00731   0.00000  -0.00741   3.26162
   R17        2.03983   0.00167   0.00443   0.00000   0.00443   2.04426
   R18        3.31659  -0.01247  -0.03687   0.00000  -0.03717   3.27943
   R19        2.67455  -0.04621  -0.11470   0.00000  -0.11472   2.55983
   R20        2.04154  -0.00049  -0.00146   0.00000  -0.00146   2.04008
   R21        2.04936  -0.00231  -0.00678   0.00000  -0.00678   2.04258
   R22        2.24096  -0.11496  -0.31695   0.00000  -0.31695   1.92401
    A1        1.99182   0.01143   0.04323   0.00000   0.04376   2.03558
    A2        2.13965   0.00620   0.01410   0.00000   0.01386   2.15351
    A3        2.13377  -0.01696  -0.05402   0.00000  -0.05450   2.07927
    A4        1.96533  -0.00237  -0.01308   0.00000  -0.01250   1.95283
    A5        1.99544   0.01806   0.06420   0.00000   0.06391   2.05934
    A6        2.31796  -0.01548  -0.04986   0.00000  -0.05023   2.26773
    A7        1.90687   0.00259   0.00496   0.00000   0.00491   1.91178
    A8        2.30743  -0.00849  -0.02296   0.00000  -0.02293   2.28450
    A9        2.06872   0.00592   0.01800   0.00000   0.01803   2.08675
   A10        1.93528  -0.00840  -0.03623   0.00000  -0.03630   1.89898
   A11        2.19150   0.00795   0.03140   0.00000   0.03143   2.22293
   A12        2.15630   0.00046   0.00492   0.00000   0.00494   2.16124
   A13        1.62546  -0.00325   0.00113   0.00000   0.00012   1.62558
   A14        2.12324  -0.00470  -0.01153   0.00000  -0.01162   2.11162
   A15        2.23503  -0.00256  -0.00999   0.00000  -0.01009   2.22494
   A16        1.92435   0.00733   0.02179   0.00000   0.02193   1.94628
   A17        1.61186  -0.00549  -0.01396   0.00000  -0.01386   1.59799
   A18        1.95161  -0.00708  -0.02047   0.00000  -0.02115   1.93046
   A19        2.25068   0.00689   0.02596   0.00000   0.02524   2.27592
   A20        1.97263   0.00361   0.01245   0.00000   0.01268   1.98531
   A21        1.97416   0.00458   0.01583   0.00000   0.01587   1.99002
   A22        1.95271  -0.00854  -0.02659   0.00000  -0.02694   1.92577
   A23        2.25075   0.00705   0.02627   0.00000   0.02566   2.27641
   A24        1.96211   0.00069  -0.00309   0.00000  -0.00272   1.95939
   A25        2.15737  -0.00283  -0.00845   0.00000  -0.00875   2.14863
   A26        2.15328   0.00261   0.01430   0.00000   0.01399   2.16727
   A27        1.59531  -0.00060   0.00324   0.00000   0.00312   1.59843
   A28        1.96161   0.00236   0.00321   0.00000   0.00311   1.96472
   A29        2.13015  -0.00474  -0.01169   0.00000  -0.01203   2.11812
   A30        2.17690   0.00332   0.01387   0.00000   0.01361   2.19051
   A31        1.94219   0.00316   0.00767   0.00000   0.00800   1.95019
   A32        2.16980   0.00012   0.00655   0.00000   0.00592   2.17572
   A33        2.13912  -0.00162  -0.00461   0.00000  -0.00529   2.13383
   A34        2.23674  -0.05924  -0.20560   0.00000  -0.20560   2.03114
    D1        0.00400  -0.00075  -0.00566   0.00000  -0.00571  -0.00171
    D2        3.05747   0.00034   0.00316   0.00000   0.00405   3.06152
    D3       -2.93913  -0.00245  -0.01691   0.00000  -0.01800  -2.95713
    D4        0.11434  -0.00136  -0.00809   0.00000  -0.00824   0.10610
    D5       -0.00566   0.00031   0.00210   0.00000   0.00216  -0.00350
    D6       -3.13222  -0.00094  -0.00406   0.00000  -0.00396  -3.13618
    D7        2.93822   0.00494   0.02249   0.00000   0.02200   2.96023
    D8       -0.18834   0.00369   0.01634   0.00000   0.01588  -0.17246
    D9       -0.13070   0.00148   0.00505   0.00000   0.00475  -0.12595
   D10       -3.05787  -0.00381  -0.01939   0.00000  -0.01909  -3.07697
   D11       -0.00053   0.00089   0.00671   0.00000   0.00645   0.00592
   D12        3.12124   0.00173   0.00724   0.00000   0.00698   3.12822
   D13       -3.03259  -0.00295  -0.01312   0.00000  -0.01281  -3.04540
   D14        0.08918  -0.00211  -0.01259   0.00000  -0.01228   0.07690
   D15       -0.00226  -0.00060  -0.00463   0.00000  -0.00456  -0.00682
   D16       -3.12714  -0.00112  -0.00457   0.00000  -0.00451  -3.13165
   D17       -0.43609  -0.00175  -0.00000   0.00000  -0.00000  -0.43609
   D18        2.66566   0.00069   0.00932   0.00000   0.00933   2.67499
   D19        2.68420  -0.00090   0.00040   0.00000   0.00040   2.68460
   D20       -0.49723   0.00154   0.00972   0.00000   0.00973  -0.48750
   D21        0.00448   0.00016   0.00145   0.00000   0.00128   0.00577
   D22        3.13141   0.00145   0.00780   0.00000   0.00743   3.13884
   D23        3.13918   0.00085   0.00347   0.00000   0.00351  -3.14050
   D24        0.03102  -0.00104  -0.00377   0.00000  -0.00391   0.02712
   D25        3.14086  -0.00154  -0.00740   0.00000  -0.00730   3.13356
   D26       -0.15092   0.00208   0.01317   0.00000   0.01312  -0.13779
   D27       -0.03688   0.00047   0.00046   0.00000   0.00074  -0.03614
   D28        2.95453   0.00409   0.02102   0.00000   0.02116   2.97569
   D29       -0.01742   0.00165   0.00706   0.00000   0.00692  -0.01050
   D30       -2.63421  -0.00635  -0.03358   0.00000  -0.03368  -2.66789
   D31       -0.00081  -0.00139  -0.00735   0.00000  -0.00718  -0.00799
   D32       -2.71033  -0.00921  -0.04376   0.00000  -0.04266  -2.75299
   D33        2.70364   0.00696   0.03296   0.00000   0.03227   2.73591
   D34       -0.00588  -0.00087  -0.00346   0.00000  -0.00321  -0.00909
   D35        2.63233   0.00617   0.03592   0.00000   0.03668   2.66901
   D36       -0.24480  -0.00033  -0.00062   0.00000  -0.00029  -0.24509
   D37        0.02060   0.00064   0.00309   0.00000   0.00296   0.02355
   D38       -2.85653  -0.00586  -0.03345   0.00000  -0.03401  -2.89054
   D39        0.02485   0.00060   0.00431   0.00000   0.00420   0.02905
   D40       -2.96696  -0.00247  -0.01379   0.00000  -0.01419  -2.98115
   D41        2.64317   0.00512   0.03083   0.00000   0.03158   2.67475
   D42       -0.34865   0.00205   0.01274   0.00000   0.01320  -0.33545
   D43       -0.00777   0.00088   0.00269   0.00000   0.00256  -0.00521
   D44       -2.63118  -0.00666  -0.03390   0.00000  -0.03367  -2.66485
   D45        0.01970  -0.00043  -0.00072   0.00000  -0.00072   0.01898
   D46        2.98698   0.00564   0.03165   0.00000   0.03121   3.01819
   D47       -0.02630   0.00004  -0.00097   0.00000  -0.00083  -0.02714
   D48        2.85625   0.00669   0.03689   0.00000   0.03703   2.89328
   D49       -2.98807  -0.00526  -0.03103   0.00000  -0.03126  -3.01932
   D50       -0.10551   0.00139   0.00683   0.00000   0.00660  -0.09891
         Item               Value     Threshold  Converged?
 Maximum Force            0.114955     0.000450     NO 
 RMS     Force            0.020493     0.000300     NO 
 Maximum Displacement     0.723960     0.001800     NO 
 RMS     Displacement     0.117335     0.001200     NO 
 Predicted change in Energy=-1.033426D-01
 GradGradGradGradGradGradGradGradGradGradGradGradGradGradGradGradGradGrad

                          Input orientation:                          
 ---------------------------------------------------------------------
 Center     Atomic      Atomic             Coordinates (Angstroms)
 Number     Number       Type             X           Y           Z
 ---------------------------------------------------------------------
      1          6           0       -4.163247   -1.375554   -0.257444
      2          6           0       -2.869668   -0.982227   -0.639585
      3          6           0       -1.999329   -2.019739   -0.617779
      4          6           0       -4.330523   -2.669964    0.056184
      5         16           0       -2.837018   -3.476959   -0.122996
      6          1           0       -5.242786   -3.156253    0.365201
      7          6           0       -0.603376   -2.081217   -0.941274
      8         16           0        0.121388   -0.922045   -2.045659
      9          6           0        1.669103   -1.660608   -1.879710
     10          6           0        1.606592   -2.733500   -1.002577
     11          6           0        0.322318   -2.956316   -0.456975
     12          1           0        0.115421   -3.650899    0.346135
     13         16           0        3.171075   -3.072863   -0.357433
     14          6           0        3.882354   -1.783549   -1.275777
     15          6           0        2.971450   -1.110568   -2.018942
     16          1           0        4.912112   -1.493052   -1.132012
     17          1           0        3.189199   -0.152775   -2.470090
     18          1           0       -2.723610    0.053954   -0.974789
     19          8           0       -5.335962   -0.524030   -0.403626
     20          1           0       -5.164493    0.435162   -0.698851
 ---------------------------------------------------------------------
                    Distance matrix (angstroms):
                    1          2          3          4          5
     1  C    0.000000
     2  C    1.405022   0.000000
     3  C    2.286341   1.354398   0.000000
     4  C    1.342326   2.338086   2.512266   0.000000
     5  S    2.488546   2.547865   1.752148   1.707016   0.000000
     6  H    2.173472   3.371598   3.574622   1.078977   2.475663
     7  C    3.693002   2.536705   1.434264   3.902969   2.758048
     8  S    4.664920   3.305613   2.782304   5.224220   4.356189
     9  C    6.060471   4.753793   3.896003   6.384512   5.166266
    10  C    5.974135   4.820334   3.695970   6.031115   4.590432
    11  C    4.760138   3.757545   2.508601   4.689804   3.219319
    12  H    4.883493   4.123615   2.839363   4.562097   2.994534
    13  S    7.528821   6.398511   5.282985   7.523788   6.026229
    14  C    8.120047   6.829104   5.923086   8.367270   7.024706
    15  C    7.353706   6.003145   5.243901   7.749624   6.552306
    16  H    9.118159   7.814059   6.950529   9.392723   8.062445
    17  H    7.774924   6.383463   5.816995   8.322530   7.271474
    18  H    2.151890   1.098802   2.225363   3.326380   3.633972
    19  O    1.456614   2.519570   3.662803   2.413993   3.878565
    20  H    2.115663   2.697912   4.006417   3.302634   4.588403
                    6          7          8          9         10
     6  H    0.000000
     7  C    4.938289   0.000000
     8  S    6.291128   1.757449   0.000000
     9  C    7.419622   2.494341   1.722915   0.000000
    10  C    6.997394   2.305036   2.564219   1.387216   0.000000
    11  C    5.629061   1.362811   2.588928   2.348801   1.413043
    12  H    5.381024   2.153600   3.628685   3.365943   2.210031
    13  S    8.445248   3.945975   4.095939   2.562755   1.725974
    14  C    9.372583   4.508023   3.934435   2.297462   2.481156
    15  C    8.794466   3.857837   2.856415   1.420576   2.351540
    16  H   10.398550   5.550039   4.910381   3.332302   3.532977
    17  H    9.389255   4.521038   3.191141   2.220990   3.364279
    18  H    4.295026   3.009230   3.192702   4.801513   5.149885
    19  O    2.743788   5.011115   5.712912   7.248557   7.310237
    20  H    3.746545   5.214856   5.621071   7.244634   7.481997
                   11         12         13         14         15
    11  C    0.000000
    12  H    1.081775   0.000000
    13  S    2.852878   3.188441   0.000000
    14  C    3.836623   4.506371   1.735397   0.000000
    15  C    3.586701   4.494860   2.578966   1.354602   0.000000
    16  H    4.864466   5.463466   2.475275   1.079564   2.167743
    17  H    4.486812   5.442067   3.604242   2.136884   1.080887
    18  H    4.313645   4.850862   6.701151   6.863364   5.905935
    19  O    6.159139   6.329062   8.880787   9.344752   8.483300
    20  H    6.454900   6.757617   9.050111   9.332790   8.386030
                   16         17         18         19         20
    16  H    0.000000
    17  H    2.560317   0.000000
    18  H    7.792445   6.102455   0.000000
    19  O   10.319524   8.779890   2.735814   0.000000
    20  H   10.268574   8.559622   2.485835   1.018141   0.000000
 Stoichiometry    C10H6OS3
 Framework group  C1[X(C10H6OS3)]
 Deg. of freedom    54
 Full point group                 C1      NOp   1
 Largest Abelian subgroup         C1      NOp   1
 Largest concise Abelian subgroup C1      NOp   1
                         Standard orientation:                         
 ---------------------------------------------------------------------
 Center     Atomic      Atomic             Coordinates (Angstroms)
 Number     Number       Type             X           Y           Z
 ---------------------------------------------------------------------
      1          6           0       -3.731841    0.353188    0.337726
      2          6           0       -2.421961    0.860457    0.369018
      3          6           0       -1.510757   -0.071165   -0.000014
      4          6           0       -3.872405   -0.926995   -0.040710
      5         16           0       -2.330121   -1.570184   -0.389380
      6          1           0       -4.790720   -1.486405   -0.129877
      7          6           0       -0.084175    0.008624   -0.124955
      8         16           0        0.713490    1.546184   -0.422059
      9          6           0        2.263386    0.793748   -0.431992
     10          6           0        2.145928   -0.569215   -0.201990
     11          6           0        0.816596   -1.007349   -0.008066
     12          1           0        0.546487   -2.001419    0.322238
[...]
 Stoichiometry    C10H6OS3
 Framework group  C1[X(C10H6OS3)]
 Deg. of freedom    54
 Full point group                 C1      NOp   1
 Largest Abelian subgroup         C1      NOp   1
 Largest concise Abelian subgroup C1      NOp   1
                         Standard orientation:                         
 ---------------------------------------------------------------------
 Center     Atomic      Atomic             Coordinates (Angstroms)
 Number     Number       Type             X           Y           Z
 ---------------------------------------------------------------------
      1          6           0       -3.810101    0.408207    0.188292
      2          6           0       -2.465741    0.871847    0.272998
      3          6           0       -1.551006   -0.109529    0.004807
      4          6           0       -3.902196   -0.909156   -0.142655
      5         16           0       -2.341759   -1.602369   -0.376560
      6          1           0       -4.798272   -1.496592   -0.262718
      7          6           0       -0.100465   -0.007295   -0.010396
      8         16           0        0.659491    1.544310   -0.310629
      9          6           0        2.233570    0.846051   -0.134422
     10          6           0        2.145494   -0.507937    0.122492
     11          6           0        0.814499   -0.999462    0.201088
     12          1           0        0.541516   -2.021816    0.424545
     13         16           0        3.719887   -1.205620    0.296290
     14          6           0        4.463469    0.338696    0.016733
     15          6           0        3.567816    1.339101   -0.197156
     16          1           0        5.540504    0.414184    0.026110
     17          1           0        3.847387    2.365311   -0.388890
     18          1           0       -2.191039    1.882783    0.550254
     19          8           0       -4.909101    1.172894    0.418642
     20          1           0       -4.641252    2.068704    0.625250
 ---------------------------------------------------------------------
 Rotational constants (GHZ):           1.5229978           0.2401969           0.2104535

 **********************************************************************

            Population analysis using the SCF Density.

 **********************************************************************

 Orbital symmetries:
       Occupied  (A) (A) (A) (A) (A) (A) (A) (A) (A) (A) (A) (A)
                 (A) (A) (A) (A) (A) (A) (A) (A) (A) (A) (A) (A)
                 (A) (A) (A) (A) (A) (A) (A) (A) (A) (A) (A) (A)
                 (A) (A) (A) (A) (A) (A) (A) (A) (A) (A) (A) (A)
                 (A) (A) (A) (A) (A) (A) (A) (A) (A) (A) (A) (A)
                 (A)
       Virtual   (A) (A) (A) (A) (A) (A) (A) (A) (A) (A) (A) (A)
                 (A) (A) (A) (A) (A) (A) (A) (A) (A) (A) (A) (A)
                 (A) (A) (A) (A) (A) (A) (A) (A) (A) (A) (A) (A)
                 (A) (A) (A) (A) (A) (A) (A) (A) (A) (A) (A) (A)
                 (A) (A) (A) (A) (A) (A) (A) (A) (A) (A) (A) (A)
                 (A) (A) (A) (A) (A) (A) (A) (A) (A) (A) (A) (A)
                 (A) (A) (A) (A) (A) (A) (A) (A) (A) (A) (A) (A)
                 (A) (A) (A) (A) (A) (A) (A) (A) (A) (A) (A) (A)
                 (A) (A) (A) (A) (A) (A) (A) (A) (A) (A) (A) (A)
                 (A) (A) (A) (A) (A) (A) (A) (A) (A) (A) (A) (A)
                 (A) (A) (A) (A) (A) (A) (A) (A) (A) (A) (A) (A)
                 (A) (A) (A) (A) (A) (A) (A) (A) (A) (A) (A) (A)
                 (A) (A) (A) (A) (A) (A) (A) (A) (A) (A) (A) (A)
                 (A) (A) (A) (A) (A) (A) (A) (A) (A) (A) (A) (A)
                 (A) (A) (A) (A) (A) (A) (A) (A) (A) (A) (A) (A)
                 (A) (A) (A) (A) (A) (A) (A) (A) (A) (A) (A) (A)
                 (A) (A) (A) (A) (A) (A) (A) (A) (A) (A) (A) (A)
                 (A) (A) (A) (A) (A) (A) (A) (A) (A) (A) (A) (A)
                 (A) (A) (A) (A) (A) (A) (A) (A) (A) (A) (A) (A)
                 (A) (A) (A) (A) (A) (A) (A) (A) (A) (A) (A) (A)
                 (A) (A) (A) (A) (A) (A) (A) (A) (A) (A) (A) (A)
                 (A) (A) (A) (A) (A) (A) (A) (A) (A) (A) (A) (A)
                 (A) (A) (A) (A) (A) (A) (A) (A) (A) (A) (A) (A)
                 (A) (A) (A) (A) (A) (A) (A) (A) (A) (A) (A) (A)
                 (A) (A) (A) (A) (A) (A) (A) (A) (A) (A) (A) (A)
                 (A) (A) (A) (A) (A)
 The electronic state is 1-A.
 Alpha  occ. eigenvalues --  -89.05559 -89.05446 -89.05256 -19.28832 -10.35865
 Alpha  occ. eigenvalues --  -10.34341 -10.34166 -10.32875 -10.32810 -10.32688
 Alpha  occ. eigenvalues --  -10.30974 -10.30891 -10.30855 -10.30290  -8.09609
 Alpha  occ. eigenvalues --   -8.09490  -8.09321  -6.04469  -6.04339  -6.04164
 Alpha  occ. eigenvalues --   -6.04098  -6.03965  -6.03780  -6.03646  -6.03553
 Alpha  occ. eigenvalues --   -6.03401  -1.17919  -1.02721  -0.99962  -0.95718
 Alpha  occ. eigenvalues --   -0.87618  -0.86402  -0.84335  -0.81438  -0.80388
 Alpha  occ. eigenvalues --   -0.72532  -0.68022  -0.67126  -0.64745  -0.63803
 Alpha  occ. eigenvalues --   -0.62271  -0.58983  -0.57111  -0.52553  -0.52492
 Alpha  occ. eigenvalues --   -0.52097  -0.51082  -0.50023  -0.48096  -0.47874
 Alpha  occ. eigenvalues --   -0.46364  -0.45588  -0.45521  -0.43588  -0.42592
 Alpha  occ. eigenvalues --   -0.42403  -0.37472  -0.34564  -0.31770  -0.31225
 Alpha  occ. eigenvalues --   -0.27712
 Alpha virt. eigenvalues --   -0.00069   0.04847   0.05365   0.05544   0.06054
 Alpha virt. eigenvalues --    0.06740   0.07518   0.07630   0.08012   0.08539
 Alpha virt. eigenvalues --    0.09036   0.09432   0.09963   0.10099   0.10155
 Alpha virt. eigenvalues --    0.10798   0.11630   0.11956   0.12439   0.12902
 Alpha virt. eigenvalues --    0.13448   0.13676   0.13959   0.14598   0.15017
 Alpha virt. eigenvalues --    0.15666   0.16200   0.16826   0.17367   0.17527
 Alpha virt. eigenvalues --    0.17772   0.18482   0.18758   0.18963   0.19645
 Alpha virt. eigenvalues --    0.20021   0.20424   0.20956   0.21401   0.21612
 Alpha virt. eigenvalues --    0.22376   0.22674   0.23205   0.23510   0.23726
 Alpha virt. eigenvalues --    0.24140   0.24584   0.24753   0.25724   0.25797
 Alpha virt. eigenvalues --    0.26359   0.26593   0.26860   0.27429   0.28109
 Alpha virt. eigenvalues --    0.28304   0.28639   0.28855   0.29437   0.30218
 Alpha virt. eigenvalues --    0.30667   0.30873   0.31510   0.32863   0.33554
 Alpha virt. eigenvalues --    0.33996   0.34494   0.35214   0.36079   0.36774
 Alpha virt. eigenvalues --    0.37365   0.38471   0.39320   0.39830   0.40395
 Alpha virt. eigenvalues --    0.40656   0.41701   0.41883   0.42412   0.42835
 Alpha virt. eigenvalues --    0.44553   0.46174   0.47240   0.47434   0.49336
 Alpha virt. eigenvalues --    0.50413   0.52286   0.52370   0.54099   0.55371
 Alpha virt. eigenvalues --    0.56451   0.59496   0.61229   0.61800   0.62518
 Alpha virt. eigenvalues --    0.63188   0.63468   0.63900   0.64862   0.65959
 Alpha virt. eigenvalues --    0.66947   0.67688   0.68424   0.69534   0.70000
 Alpha virt. eigenvalues --    0.70763   0.72017   0.72934   0.74967   0.76093
 Alpha virt. eigenvalues --    0.77059   0.78257   0.78773   0.79468   0.80364
 Alpha virt. eigenvalues --    0.80882   0.81830   0.83056   0.83688   0.84531
 Alpha virt. eigenvalues --    0.84631   0.86269   0.86792   0.87052   0.87407
 Alpha virt. eigenvalues --    0.90219   0.90498   0.91026   0.91776   0.92513
 Alpha virt. eigenvalues --    0.93068   0.93303   0.95556   0.95739   0.96677
 Alpha virt. eigenvalues --    0.97106   0.98162   0.99283   1.00219   1.01932
 Alpha virt. eigenvalues --    1.03064   1.04575   1.05197   1.06464   1.07604
 Alpha virt. eigenvalues --    1.10453   1.11419   1.12087   1.12740   1.14000
 Alpha virt. eigenvalues --    1.14694   1.15067   1.16367   1.17211   1.19897
 Alpha virt. eigenvalues --    1.21663   1.22269   1.22870   1.25203   1.26883
 Alpha virt. eigenvalues --    1.28850   1.30803   1.34267   1.34837   1.42736
 Alpha virt. eigenvalues --    1.43813   1.44911   1.46463   1.50010   1.50785
 Alpha virt. eigenvalues --    1.51654   1.60258   1.61800   1.63362   1.64361
 Alpha virt. eigenvalues --    1.66204   1.66817   1.68118   1.68605   1.69105
 Alpha virt. eigenvalues --    1.71843   1.74028   1.75338   1.76964   1.77242
 Alpha virt. eigenvalues --    1.79200   1.80712   1.81838   1.82482   1.84195
 Alpha virt. eigenvalues --    1.84996   1.87747   1.89049   1.90723   1.93167
 Alpha virt. eigenvalues --    1.95261   1.95574   1.97454   1.99637   2.00264
 Alpha virt. eigenvalues --    2.04172   2.04892   2.06078   2.06903   2.08413
 Alpha virt. eigenvalues --    2.10309   2.11039   2.12259   2.13487   2.13983
 Alpha virt. eigenvalues --    2.15586   2.17231   2.17666   2.18934   2.21131
 Alpha virt. eigenvalues --    2.21898   2.24253   2.26354   2.27196   2.28724
 Alpha virt. eigenvalues --    2.31846   2.37982   2.39509   2.44669   2.49604
 Alpha virt. eigenvalues --    2.51027   2.53373   2.59418   2.62309   2.67945
 Alpha virt. eigenvalues --    2.71395   2.76631   2.77439   2.78402   2.79780
 Alpha virt. eigenvalues --    2.80759   2.81648   2.82196   2.83347   2.85214
 Alpha virt. eigenvalues --    2.86238   2.86990   2.92358   2.95430   2.99897
 Alpha virt. eigenvalues --    3.01568   3.04787   3.04930   3.08786   3.12242
 Alpha virt. eigenvalues --    3.16704   3.17670   3.22263   3.24391   3.27069
 Alpha virt. eigenvalues --    3.28801   3.31966   3.37732   3.38525   3.40502
 Alpha virt. eigenvalues --    3.44209   3.46671   3.53796   3.56411   3.57902
 Alpha virt. eigenvalues --    3.66275   3.71725   3.74934   3.94983   3.97658
 Alpha virt. eigenvalues --    4.06706   4.18534   4.21884   4.31398   4.46836
 Alpha virt. eigenvalues --    4.65684   5.11197   5.54033   5.86461   8.09099
 Alpha virt. eigenvalues --    8.10772   8.11970  17.41430  17.42369  17.43523
 Alpha virt. eigenvalues --   17.59542  17.61769  17.64430  17.66748  17.68234
 Alpha virt. eigenvalues --   17.70649  23.60431  23.76488  23.88881  23.94096
 Alpha virt. eigenvalues --   23.98490  24.17157  24.23614  24.25770  24.27677
 Alpha virt. eigenvalues --   24.29607  50.07911 189.33885 189.35842 189.37330
          Condensed to atoms (all electrons):
               1          2          3          4          5          6
     1  C    9.128631  -2.099543  -0.279139  -0.797362   0.700154   0.053995
     2  C   -2.099543  13.050625  -2.532414   0.655342  -2.590752  -0.040102
     3  C   -0.279139  -2.532414   9.537486  -0.592471   0.593255   0.030560
     4  C   -0.797362   0.655342  -0.592471   7.066994  -0.572984   0.372634
     5  S    0.700154  -2.590752   0.593255  -0.572984  17.528354  -0.035920
     6  H    0.053995  -0.040102   0.030560   0.372634  -0.035920   0.440254
     7  C    0.019627  -0.536291  -0.184999  -0.088884   0.667835  -0.003317
     8  S   -0.158900   0.134559   0.358389   0.097394   0.032506  -0.000664
     9  C    0.006533  -0.746345  -0.570853  -0.047818   0.209188  -0.000157
    10  C    0.028286   0.004470   0.158498  -0.031537  -0.041950   0.000094
    11  C    0.009383  -0.091580  -1.065469  -0.209038  -0.014394   0.000861
    12  H   -0.002651   0.005286   0.028150   0.003169   0.000296   0.000002
    13  S    0.000302   0.028043  -0.000322  -0.000005  -0.022827   0.000006
    14  C   -0.001090  -0.013233  -0.035276  -0.000276   0.005835  -0.000001
    15  C   -0.006013  -0.099143   0.228734   0.005259   0.005419  -0.000008
    16  H   -0.000001   0.000001  -0.000033  -0.000000  -0.000000   0.000000
    17  H    0.000008  -0.000124  -0.000798  -0.000003   0.000024   0.000000
    18  H   -0.029867   0.259735   0.137657  -0.055672   0.019763  -0.000008
    19  O    0.188347   0.021073   0.045068  -0.257722   0.017452  -0.004837
    20  H    0.023312  -0.087969  -0.017170   0.102785  -0.007570   0.000254
               7          8          9         10         11         12
     1  C    0.019627  -0.158900   0.006533   0.028286   0.009383  -0.002651
     2  C   -0.536291   0.134559  -0.746345   0.004470  -0.091580   0.005286
     3  C   -0.184999   0.358389  -0.570853   0.158498  -1.065469   0.028150
     4  C   -0.088884   0.097394  -0.047818  -0.031537  -0.209038   0.003169
     5  S    0.667835   0.032506   0.209188  -0.041950  -0.014394   0.000296
     6  H   -0.003317  -0.000664  -0.000157   0.000094   0.000861   0.000002
     7  C   10.505682   0.467395  -1.387568  -2.010693  -0.371170   0.027658
     8  S    0.467395  17.775376  -0.497803  -0.516630  -0.816870   0.012131
     9  C   -1.387568  -0.497803  15.333798  -4.984626   0.642175  -0.067388
    10  C   -2.010693  -0.516630  -4.984626  12.883255  -0.209846  -0.015771
    11  C   -0.371170  -0.816870   0.642175  -0.209846   9.116186   0.350167
    12  H    0.027658   0.012131  -0.067388  -0.015771   0.350167   0.473222
    13  S   -1.075253   0.084652   0.228893  -0.465410  -0.064981   0.007876
    14  C   -0.183342  -0.062688   0.629997  -0.854083   0.051377  -0.002795
    15  C   -0.021641  -0.346591  -3.162515   1.894471  -1.355815   0.009990
    16  H    0.004800  -0.000815   0.020473   0.026348   0.000080  -0.000003
    17  H   -0.007297   0.012838   0.013130  -0.051175   0.003385   0.000002
    18  H    0.016674   0.010395   0.006851  -0.001316  -0.008117   0.000023
    19  O    0.001900   0.003301   0.000558  -0.001136   0.000633  -0.000001
    20  H   -0.000641   0.000883  -0.000243   0.000061  -0.000583  -0.000000
              13         14         15         16         17         18
     1  C    0.000302  -0.001090  -0.006013  -0.000001   0.000008  -0.029867
     2  C    0.028043  -0.013233  -0.099143   0.000001  -0.000124   0.259735
     3  C   -0.000322  -0.035276   0.228734  -0.000033  -0.000798   0.137657
     4  C   -0.000005  -0.000276   0.005259  -0.000000  -0.000003  -0.055672
     5  S   -0.022827   0.005835   0.005419  -0.000000   0.000024   0.019763
     6  H    0.000006  -0.000001  -0.000008   0.000000   0.000000  -0.000008
     7  C   -1.075253  -0.183342  -0.021641   0.004800  -0.007297   0.016674
     8  S    0.084652  -0.062688  -0.346591  -0.000815   0.012838   0.010395
     9  C    0.228893   0.629997  -3.162515   0.020473   0.013130   0.006851
    10  C   -0.465410  -0.854083   1.894471   0.026348  -0.051175  -0.001316
    11  C   -0.064981   0.051377  -1.355815   0.000080   0.003385  -0.008117
    12  H    0.007876  -0.002795   0.009990  -0.000003   0.000002   0.000023
    13  S   17.633524   0.409203  -0.270947  -0.041980   0.007669  -0.000105
    14  C    0.409203   5.591165   0.186816   0.390930   0.024575  -0.000002
    15  C   -0.270947   0.186816   8.946801  -0.031863   0.357949   0.000133
    16  H   -0.041980   0.390930  -0.031863   0.440889  -0.003547  -0.000000
    17  H    0.007669   0.024575   0.357949  -0.003547   0.480664  -0.000000
    18  H   -0.000105  -0.000002   0.000133  -0.000000  -0.000000   0.494463
    19  O   -0.000039  -0.000001   0.000077   0.000000   0.000000  -0.003352
    20  H   -0.000000   0.000001  -0.000006   0.000000  -0.000000   0.002386
              19         20
     1  C    0.188347   0.023312
     2  C    0.021073  -0.087969
     3  C    0.045068  -0.017170
     4  C   -0.257722   0.102785
     5  S    0.017452  -0.007570
     6  H   -0.004837   0.000254
     7  C    0.001900  -0.000641
     8  S    0.003301   0.000883
     9  C    0.000558  -0.000243
    10  C   -0.001136   0.000061
    11  C    0.000633  -0.000583
    12  H   -0.000001  -0.000000
    13  S   -0.000039  -0.000000
    14  C   -0.000001   0.000001
    15  C    0.000077  -0.000006
    16  H    0.000000   0.000000
    17  H    0.000000  -0.000000
    18  H   -0.003352   0.002386
    19  O    7.994728   0.265258
    20  H    0.265258   0.454883
 Mulliken charges:
               1
     1  C   -0.784012
     2  C    0.678360
     3  C    0.161146
     4  C    0.350195
     5  S   -0.493685
     6  H    0.186353
     7  C    0.159525
     8  S   -0.588858
     9  C    0.373719
    10  C    0.188691
    11  C    0.033616
    12  H    0.170638
    13  S   -0.458298
    14  C   -0.137113
    15  C   -0.341106
    16  H    0.194721
    17  H    0.162698
    18  H    0.150358
    19  O   -0.271306
    20  H    0.264359
 Sum of Mulliken charges =  -0.00000
 Mulliken charges with hydrogens summed into heavy atoms:
               1
     1  C   -0.784012
     2  C    0.828719
     3  C    0.161146
     4  C    0.536547
     5  S   -0.493685
     7  C    0.159525
     8  S   -0.588858
     9  C    0.373719
    10  C    0.188691
    11  C    0.204254
    13  S   -0.458298
    14  C    0.057608
    15  C   -0.178409
    19  O   -0.006947
 Electronic spatial extent (au):  <R**2>=           4745.0362
 Charge=              0.0000 electrons
 Dipole moment (field-independent basis, Debye):
    X=              1.1425    Y=              1.5168    Z=              0.4137  Tot=              1.9435
 Quadrupole moment (field-independent basis, Debye-Ang):
   XX=            -96.2311   YY=            -91.0520   ZZ=           -107.3568
   XY=             -0.2334   XZ=             -1.2859   YZ=              1.0739
 Traceless Quadrupole moment (field-independent basis, Debye-Ang):
   XX=              1.9822   YY=              7.1613   ZZ=             -9.1435
   XY=             -0.2334   XZ=             -1.2859   YZ=              1.0739
 Octapole moment (field-independent basis, Debye-Ang**2):
  XXX=             77.9797  YYY=             20.5639  ZZZ=              1.7844  XYY=            -27.8575
  XXY=             22.5381  XXZ=             -1.2068  XZZ=             -9.5237  YZZ=              2.2653
  YYZ=              4.2166  XYZ=            -13.3927
 Hexadecapole moment (field-independent basis, Debye-Ang**3):
 XXXX=          -5227.6194 YYYY=           -838.7483 ZZZZ=           -177.2756 XXXY=             70.7011
 XXXZ=              6.0726 YYYX=            -58.8892 YYYZ=              8.5120 ZZZX=             -8.3638
 ZZZY=              4.1323 XXYY=           -888.3512 XXZZ=           -990.0024 YYZZ=           -185.2857
 XXYZ=             29.7660 YYXZ=            -24.5697 ZZXY=            -18.5974
 N-N= 1.110296507207D+03 E-N=-6.131816870785D+03  KE= 1.651141273869D+03
 Unable to Open any file for archive entry.
 1\1\GINC-CX3-11-5\FOpt\RwB97XD\6-311+G(d,p)\C10H6O1S3\NS5018\26-Oct-20
 21\0\\# opt=modredundant wb97xd/6-311+g(d,p)\\pg2T_TT_-25.pdb\\0,1\C,-
 4.2791418318,-1.3912957924,-0.3993912033\C,-2.9405076384,-0.9960521701
 ,-0.6844918178\C,-2.0505929475,-2.029575816,-0.576574318\C,-4.39183919
 37,-2.7105037255,-0.0824673479\S,-2.8606047866,-3.4987853067,-0.146917
 5561\H,-5.2878442702,-3.2506801494,0.1779819956\C,-0.6134278824,-2.005
 8509103,-0.7973614118\S,0.0849942957,-0.7918622788,-1.8526300635\C,1.6
 781099506,-1.3993836942,-1.5539013074\C,1.6390842173,-2.4850122286,-0.
 7012978955\C,0.3333150195,-2.83165171,-0.2606948634\H,0.1022895709,-3.
 6294222316,0.4320168577\S,3.2322207331,-3.093124105,-0.4049946753\C,3.
 9169153499,-1.8755767404,-1.4368619778\C,2.98895335,-1.0443345396,-1.9
 815414148\H,4.986456289,-1.8489725912,-1.5823447337\H,3.2302020291,-0.
 2290299556,-2.6487053119\H,-2.6486916052,0.0183534354,-0.9297434931\O,
 -5.3535672522,-0.5602010507,-0.4217601908\H,-5.0753233972,0.3199615606
 ,-0.6763192713\\Version=ES64L-G16RevC.01\State=1-A\HF=-1654.4124435\RM
 SD=7.916e-09\RMSF=2.927e-04\Dipole=0.4574751,0.5864229,-0.1774321\Quad
 rupole=1.1384534,3.5221534,-4.6606068,-0.9873209,-1.6372431,-4.3105229
 \PG=C01 [X(C10H6O1S3)]\\@
 The archive entry for this job was punched.



 IN THIS SHORT LIFE

 THAT ONLY LASTS AN HOUR

 HOW MUCH, HOW LITTLE, IS WITHIN OUR POWER....


 EMILY DICKINSON BOLTS OF MELODY NO. 521
 Job cpu time:       0 days  4 hours 16 minutes 30.5 seconds.
 Elapsed time:       0 days  0 hours 32 minutes 17.4 seconds.
 File lengths (MBytes):  RWF=     86 Int=      0 D2E=      0 Chk=     11 Scr=      1
 Normal termination of Gaussian 16 at Tue Oct 26 23:28:53 2021.
