 Entering Gaussian System, Link 0=g16
 Input=pg2T_TT_140.gjf
 Output=pg2T_TT_140.log
 Initial command:
 /apps/gaussian/g16-c01-avx/g16/l1.exe "/tmp/pbs.4766238[315].pbs/Gau-1632026.inp" -scrdir="/tmp/pbs.4766238[315].pbs/"
 Entering Link 1 = /apps/gaussian/g16-c01-avx/g16/l1.exe PID=   1632027.
  
 Copyright (c) 1988-2019, Gaussian, Inc.  All Rights Reserved.
  
 This is part of the Gaussian(R) 16 program.  It is based on
 the Gaussian(R) 09 system (copyright 2009, Gaussian, Inc.),
 the Gaussian(R) 03 system (copyright 2003, Gaussian, Inc.),
 the Gaussian(R) 98 system (copyright 1998, Gaussian, Inc.),
 the Gaussian(R) 94 system (copyright 1995, Gaussian, Inc.),
 the Gaussian 92(TM) system (copyright 1992, Gaussian, Inc.),
 the Gaussian 90(TM) system (copyright 1990, Gaussian, Inc.),
 the Gaussian 88(TM) system (copyright 1988, Gaussian, Inc.),
 the Gaussian 86(TM) system (copyright 1986, Carnegie Mellon
 University), and the Gaussian 82(TM) system (copyright 1983,
 Carnegie Mellon University). Gaussian is a federally registered
 trademark of Gaussian, Inc.
  
 This software contains proprietary and confidential information,
 including trade secrets, belonging to Gaussian, Inc.
  
 This software is provided under written license and may be
 used, copied, transmitted, or stored only in accord with that
 written license.
  
 The following legend is applicable only to US Government
 contracts under FAR:
  
                    RESTRICTED RIGHTS LEGEND
  
 Use, reproduction and disclosure by the US Government is
 subject to restrictions as set forth in subparagraphs (a)
 and (c) of the Commercial Computer Software - Restricted
 Rights clause in FAR 52.227-19.
  
 Gaussian, Inc.
 340 Quinnipiac St., Bldg. 40, Wallingford CT 06492
  
  
 ---------------------------------------------------------------
 Warning -- This program may not be used in any manner that
 competes with the business of Gaussian, Inc. or will provide
 assistance to any competitor of Gaussian, Inc.  The licensee
 of this program is prohibited from giving any competitor of
 Gaussian, Inc. access to this program.  By using this program,
 the user acknowledges that Gaussian, Inc. is engaged in the
 business of creating and licensing software in the field of
 computational chemistry and represents and warrants to the
 licensee that it is not a competitor of Gaussian, Inc. and that
 it will not use this program in any manner prohibited above.
 ---------------------------------------------------------------
  

 Cite this work as:
 Gaussian 16, Revision C.01,
 M. J. Frisch, G. W. Trucks, H. B. Schlegel, G. E. Scuseria, 
 M. A. Robb, J. R. Cheeseman, G. Scalmani, V. Barone, 
 G. A. Petersson, H. Nakatsuji, X. Li, M. Caricato, A. V. Marenich, 
 J. Bloino, B. G. Janesko, R. Gomperts, B. Mennucci, H. P. Hratchian, 
 J. V. Ortiz, A. F. Izmaylov, J. L. Sonnenberg, D. Williams-Young, 
 F. Ding, F. Lipparini, F. Egidi, J. Goings, B. Peng, A. Petrone, 
 T. Henderson, D. Ranasinghe, V. G. Zakrzewski, J. Gao, N. Rega, 
 G. Zheng, W. Liang, M. Hada, M. Ehara, K. Toyota, R. Fukuda, 
 J. Hasegawa, M. Ishida, T. Nakajima, Y. Honda, O. Kitao, H. Nakai, 
 T. Vreven, K. Throssell, J. A. Montgomery, Jr., J. E. Peralta, 
 F. Ogliaro, M. J. Bearpark, J. J. Heyd, E. N. Brothers, K. N. Kudin, 
 V. N. Staroverov, T. A. Keith, R. Kobayashi, J. Normand, 
 K. Raghavachari, A. P. Rendell, J. C. Burant, S. S. Iyengar, 
 J. Tomasi, M. Cossi, J. M. Millam, M. Klene, C. Adamo, R. Cammi, 
 J. W. Ochterski, R. L. Martin, K. Morokuma, O. Farkas, 
 J. B. Foresman, and D. J. Fox, Gaussian, Inc., Wallingford CT, 2019.
 
 ******************************************
 Gaussian 16:  ES64L-G16RevC.01  3-Jul-2019
                27-Oct-2021 
 ******************************************
 %mem=10GB
 %nprocshared=8
 Will use up to    8 processors via shared memory.
 --------------------------------------
 # opt=modredundant wb97xd/6-311+g(d,p)
 --------------------------------------
 1/18=120,19=15,26=3,38=1/1,3;
 2/9=110,12=2,17=6,18=5,40=1/2;
 3/5=4,6=6,7=111,11=2,25=1,30=1,71=1,74=-58/1,2,3;
 4//1;
 5/5=2,38=5/2;
 6/7=2,8=2,9=2,10=2,28=1/1;
 7//1,2,3,16;
 1/18=20,19=15,26=3/3(2);
 2/9=110/2;
 99//99;
 2/9=110/2;
 3/5=4,6=6,7=111,11=2,25=1,30=1,71=1,74=-58/1,2,3;
 4/5=5,16=3,69=1/1;
 5/5=2,38=5/2;
 7//1,2,3,16;
 1/18=20,19=15,26=3/3(-5);
 2/9=110/2;
 6/7=2,8=2,9=2,10=2,19=2,28=1/1;
 99/9=1/99;
 ---------------
 pg2T_TT_140.pdb
 ---------------
 Symbolic Z-matrix:
 Charge =  0 Multiplicity = 1
 C                    -4.25     -1.36     -0.21 
 C                    -2.93     -0.95     -0.61 
 C                    -1.97     -2.05     -0.62 
 C                    -4.33     -2.76      0.1 
 S                    -2.8      -3.56     -0.11 
 H                    -5.23     -3.27      0.41 
 C                    -0.56     -2.13     -0.97 
 S                     0.597    -3.117    -0.025 
 C                     1.927    -2.685    -1.045 
 C                     1.531    -1.82     -2.126 
 C                     0.131    -1.514    -2.105 
 H                    -0.375    -1.019    -2.919 
 S                     2.578    -1.946    -3.5 
 C                     3.582    -3.14     -2.675 
 C                     3.087    -3.454    -1.354 
 H                     4.355    -3.698    -3.185 
 H                     3.393    -4.343    -0.808 
 H                    -2.89      0.24     -0.97 
 O                    -5.6      -0.36     -0.4 
 H                    -5.76      0.85     -0.75 
 
 Add virtual bond connecting atoms H20        and O19        Dist= 2.40D+00.
 Add virtual bond connecting atoms O19        and C1         Dist= 3.20D+00.
 The following ModRedundant input section has been read:
 D       2       3       7       8 F                                           
 

 GradGradGradGradGradGradGradGradGradGradGradGradGradGradGradGradGradGrad
 Berny optimization.
 Initialization pass.
                           ----------------------------
                           !    Initial Parameters    !
                           ! (Angstroms and Degrees)  !
 --------------------------                            --------------------------
 ! Name  Definition              Value          Derivative Info.                !
 --------------------------------------------------------------------------------
 ! R1    R(1,2)                  1.4389         estimate D2E/DX2                !
 ! R2    R(1,4)                  1.4361         estimate D2E/DX2                !
 ! R3    R(1,19)                 1.6907         estimate D2E/DX2                !
 ! R4    R(2,3)                  1.46           estimate D2E/DX2                !
 ! R5    R(2,18)                 1.2439         estimate D2E/DX2                !
 ! R6    R(3,5)                  1.797          estimate D2E/DX2                !
 ! R7    R(3,7)                  1.455          estimate D2E/DX2                !
 ! R8    R(4,5)                  1.7393         estimate D2E/DX2                !
 ! R9    R(4,6)                  1.0799         estimate D2E/DX2                !
 ! R10   R(7,8)                  1.7905         estimate D2E/DX2                !
 ! R11   R(7,11)                 1.4646         estimate D2E/DX2                !
 ! R12   R(8,9)                  1.7309         estimate D2E/DX2                !
 ! R13   R(9,10)                 1.44           estimate D2E/DX2                !
 ! R14   R(9,15)                 1.4256         estimate D2E/DX2                !
 ! R15   R(10,11)                1.4332         estimate D2E/DX2                !
 ! R16   R(10,13)                1.732          estimate D2E/DX2                !
 ! R17   R(11,12)                1.0787         estimate D2E/DX2                !
 ! R18   R(13,14)                1.7647         estimate D2E/DX2                !
 ! R19   R(14,15)                1.4452         estimate D2E/DX2                !
 ! R20   R(14,16)                1.0812         estimate D2E/DX2                !
 ! R21   R(15,17)                1.0872         estimate D2E/DX2                !
 ! R22   R(19,20)                1.2697         estimate D2E/DX2                !
 ! A1    A(2,1,4)              112.8843         estimate D2E/DX2                !
 ! A2    A(2,1,19)             122.1887         estimate D2E/DX2                !
 ! A3    A(4,1,19)             123.8039         estimate D2E/DX2                !
 ! A4    A(1,2,3)              112.9799         estimate D2E/DX2                !
 ! A5    A(1,2,18)             112.491          estimate D2E/DX2                !
 ! A6    A(3,2,18)             134.2373         estimate D2E/DX2                !
 ! A7    A(2,3,5)              109.1138         estimate D2E/DX2                !
 ! A8    A(2,3,7)              132.8639         estimate D2E/DX2                !
 ! A9    A(5,3,7)              118.0132         estimate D2E/DX2                !
 ! A10   A(1,4,5)              111.9209         estimate D2E/DX2                !
 ! A11   A(1,4,6)              124.6643         estimate D2E/DX2                !
 ! A12   A(5,4,6)              123.4062         estimate D2E/DX2                !
 ! A13   A(3,5,4)               93.0997         estimate D2E/DX2                !
 ! A14   A(3,7,8)              121.9757         estimate D2E/DX2                !
 ! A15   A(3,7,11)             128.3517         estimate D2E/DX2                !
 ! A16   A(8,7,11)             109.6322         estimate D2E/DX2                !
 ! A17   A(7,8,9)               92.747          estimate D2E/DX2                !
 ! A18   A(8,9,10)             112.3955         estimate D2E/DX2                !
 ! A19   A(8,9,15)             128.1937         estimate D2E/DX2                !
 ! A20   A(10,9,15)            112.648          estimate D2E/DX2                !
 ! A21   A(9,10,11)            112.6985         estimate D2E/DX2                !
 ! A22   A(9,10,13)            112.6798         estimate D2E/DX2                !
 ! A23   A(11,10,13)           128.144          estimate D2E/DX2                !
 ! A24   A(7,11,10)            112.4834         estimate D2E/DX2                !
 ! A25   A(7,11,12)            123.8108         estimate D2E/DX2                !
 ! A26   A(10,11,12)           123.0328         estimate D2E/DX2                !
 ! A27   A(10,13,14)            91.2763         estimate D2E/DX2                !
 ! A28   A(13,14,15)           112.2997         estimate D2E/DX2                !
 ! A29   A(13,14,16)           122.3723         estimate D2E/DX2                !
 ! A30   A(15,14,16)           124.3259         estimate D2E/DX2                !
 ! A31   A(9,15,14)            111.0762         estimate D2E/DX2                !
 ! A32   A(9,15,17)            124.1401         estimate D2E/DX2                !
 ! A33   A(14,15,17)           122.7029         estimate D2E/DX2                !
 ! A34   A(1,19,20)            134.0455         estimate D2E/DX2                !
 ! D1    D(4,1,2,3)              0.3915         estimate D2E/DX2                !
 ! D2    D(4,1,2,18)           175.0898         estimate D2E/DX2                !
 ! D3    D(19,1,2,3)          -167.9154         estimate D2E/DX2                !
 ! D4    D(19,1,2,18)            6.7829         estimate D2E/DX2                !
 ! D5    D(2,1,4,5)             -0.3845         estimate D2E/DX2                !
 ! D6    D(2,1,4,6)           -179.3471         estimate D2E/DX2                !
 ! D7    D(19,1,4,5)           167.7032         estimate D2E/DX2                !
 ! D8    D(19,1,4,6)           -11.2593         estimate D2E/DX2                !
 ! D9    D(2,1,19,20)           -7.6334         estimate D2E/DX2                !
 ! D10   D(4,1,19,20)         -174.6479         estimate D2E/DX2                !
 ! D11   D(1,2,3,5)             -0.2224         estimate D2E/DX2                !
 ! D12   D(1,2,3,7)            178.6265         estimate D2E/DX2                !
 ! D13   D(18,2,3,5)          -173.3787         estimate D2E/DX2                !
 ! D14   D(18,2,3,7)             5.4701         estimate D2E/DX2                !
 ! D15   D(2,3,5,4)              0.0033         estimate D2E/DX2                !
 ! D16   D(7,3,5,4)           -179.041          estimate D2E/DX2                !
 ! D17   D(2,3,7,8)            140.007          Frozen                          !
 ! D18   D(2,3,7,11)           -42.5515         estimate D2E/DX2                !
 ! D19   D(5,3,7,8)            -41.2251         estimate D2E/DX2                !
 ! D20   D(5,3,7,11)           136.2164         estimate D2E/DX2                !
 ! D21   D(1,4,5,3)              0.2153         estimate D2E/DX2                !
 ! D22   D(6,4,5,3)            179.1932         estimate D2E/DX2                !
 ! D23   D(3,7,8,9)            179.782          estimate D2E/DX2                !
 ! D24   D(11,7,8,9)             1.912          estimate D2E/DX2                !
 ! D25   D(3,7,11,10)         -179.841          estimate D2E/DX2                !
 ! D26   D(3,7,11,12)           -9.0103         estimate D2E/DX2                !
 ! D27   D(8,7,11,10)           -2.1451         estimate D2E/DX2                !
 ! D28   D(8,7,11,12)          168.6856         estimate D2E/DX2                !
 ! D29   D(7,8,9,10)            -1.2285         estimate D2E/DX2                !
 ! D30   D(7,8,9,15)          -149.8918         estimate D2E/DX2                !
 ! D31   D(8,9,10,11)            0.1855         estimate D2E/DX2                !
 ! D32   D(8,9,10,13)         -154.0249         estimate D2E/DX2                !
 ! D33   D(15,9,10,11)         153.8975         estimate D2E/DX2                !
 ! D34   D(15,9,10,13)          -0.3129         estimate D2E/DX2                !
 ! D35   D(8,9,15,14)          149.7824         estimate D2E/DX2                !
 ! D36   D(8,9,15,17)          -14.1424         estimate D2E/DX2                !
 ! D37   D(10,9,15,14)           1.1829         estimate D2E/DX2                !
 ! D38   D(10,9,15,17)        -162.742          estimate D2E/DX2                !
 ! D39   D(9,10,11,7)            1.2998         estimate D2E/DX2                !
 ! D40   D(9,10,11,12)        -169.6134         estimate D2E/DX2                !
 ! D41   D(13,10,11,7)         150.6079         estimate D2E/DX2                !
 ! D42   D(13,10,11,12)        -20.3052         estimate D2E/DX2                !
 ! D43   D(9,10,13,14)          -0.4936         estimate D2E/DX2                !
 ! D44   D(11,10,13,14)       -149.8064         estimate D2E/DX2                !
 ! D45   D(10,13,14,15)          1.1727         estimate D2E/DX2                !
 ! D46   D(10,13,14,16)        170.1725         estimate D2E/DX2                !
 ! D47   D(13,14,15,9)          -1.549          estimate D2E/DX2                !
 ! D48   D(13,14,15,17)        162.6467         estimate D2E/DX2                !
 ! D49   D(16,14,15,9)        -170.296          estimate D2E/DX2                !
 ! D50   D(16,14,15,17)         -6.1003         estimate D2E/DX2                !
 --------------------------------------------------------------------------------
 Trust Radius=3.00D-01 FncErr=1.00D-07 GrdErr=1.00D-06 EigMax=2.50D+02 EigMin=1.00D-04
 Number of steps in this run=    116 maximum allowed number of steps=    120.
 GradGradGradGradGradGradGradGradGradGradGradGradGradGradGradGradGradGrad

                          Input orientation:                          
 ---------------------------------------------------------------------
 Center     Atomic      Atomic             Coordinates (Angstroms)
 Number     Number       Type             X           Y           Z
 ---------------------------------------------------------------------
      1          6           0       -4.250000   -1.360000   -0.210000
      2          6           0       -2.930000   -0.950000   -0.610000
      3          6           0       -1.970000   -2.050000   -0.620000
      4          6           0       -4.330000   -2.760000    0.100000
      5         16           0       -2.800000   -3.560000   -0.110000
      6          1           0       -5.230000   -3.270000    0.410000
      7          6           0       -0.560000   -2.130000   -0.970000
      8         16           0        0.597000   -3.117000   -0.025000
      9          6           0        1.927000   -2.685000   -1.045000
     10          6           0        1.531000   -1.820000   -2.126000
     11          6           0        0.131000   -1.514000   -2.105000
     12          1           0       -0.375000   -1.019000   -2.919000
     13         16           0        2.578000   -1.946000   -3.500000
     14          6           0        3.582000   -3.140000   -2.675000
     15          6           0        3.087000   -3.454000   -1.354000
     16          1           0        4.355000   -3.698000   -3.185000
     17          1           0        3.393000   -4.343000   -0.808000
     18          1           0       -2.890000    0.240000   -0.970000
     19          8           0       -5.600000   -0.360000   -0.400000
     20          1           0       -5.760000    0.850000   -0.750000
 ---------------------------------------------------------------------
                    Distance matrix (angstroms):
                    1          2          3          4          5
     1  C    0.000000
     2  C    1.438923   0.000000
     3  C    2.417147   1.460034   0.000000
     4  C    1.436141   2.395871   2.567509   0.000000
     5  S    2.636759   2.660639   1.796970   1.739253   0.000000
     6  H    2.234480   3.422397   3.630000   1.079907   2.501879
     7  C    3.845335   2.671872   1.454991   3.969219   2.793224
     8  S    5.158942   4.180651   2.842886   4.941498   3.426818
     9  C    6.372455   5.175896   3.971204   6.361344   4.897385
    10  C    6.107587   4.791208   3.818106   6.339558   5.084232
    11  C    4.775762   3.452947   2.628064   5.129821   4.093520
    12  H    4.740315   3.444455   2.982011   5.271382   4.497531
    13  S    7.601913   6.299379   5.384192   7.832181   6.558962
    14  C    8.401479   7.174013   6.019620   8.393138   6.890976
    15  C    7.715254   6.559561   5.299360   7.589970   6.017935
    16  H    9.400154   8.200814   7.021450   9.332754   7.789011
    17  H    8.226259   7.178578   5.835663   7.935684   6.281205
    18  H    2.233204   1.243905   2.492589   3.495497   3.897140
    19  O    1.690739   2.742462   4.010162   2.760960   4.261936
    20  H    2.730531   3.356859   4.773992   3.974858   5.349701
                    6          7          8          9         10
     6  H    0.000000
     7  C    5.001290   0.000000
     8  S    5.845217   1.790487   0.000000
     9  C    7.326793   2.549278   1.730874   0.000000
    10  C    7.365115   2.409298   2.639842   1.440001   0.000000
    11  C    6.176494   1.464637   2.667052   2.391748   1.433205
    12  H    6.302402   2.251032   3.704271   3.403915   2.214336
    13  S    8.832097   4.035071   4.167880   2.645174   1.732040
    14  C    9.337316   4.591654   3.991648   2.367055   2.500080
    15  C    8.504001   3.898851   2.842518   1.425637   2.384759
    16  H   10.245947   5.614452   4.944262   3.391306   3.552934
    17  H    8.774451   4.533191   3.151790   2.225823   3.401426
    18  H    4.438479   3.323522   4.931698   5.636022   5.012502
    19  O    3.043206   5.372095   6.792973   7.904263   7.480764
    20  H    4.312876   5.997399   7.528224   8.466004   7.885490
                   11         12         13         14         15
    11  C    0.000000
    12  H    1.078729   0.000000
    13  S    2.849642   3.149143   0.000000
    14  C    3.857224   4.496224   1.764731   0.000000
    15  C    3.614628   4.512637   2.671790   1.445220   0.000000
    16  H    4.876313   5.442490   2.515245   1.081200   2.240518
    17  H    4.508447   5.450057   3.695497   2.229040   1.087232
    18  H    3.673034   3.421828   6.409253   7.497880   7.036876
    19  O    6.089590   5.837831   8.888480   9.859673   9.270756
    20  H    6.490640   6.098848   9.214248  10.339182   9.856908
                   16         17         18         19         20
    16  H    0.000000
    17  H    2.644163   0.000000
    18  H    8.538389   7.778575   0.000000
    19  O   10.862803   9.844024   2.833549   0.000000
    20  H   11.354592  10.523689   2.942346   1.269724   0.000000
 Stoichiometry    C10H6OS3
 Framework group  C1[X(C10H6OS3)]
 Deg. of freedom    54
 Full point group                 C1      NOp   1
 Largest Abelian subgroup         C1      NOp   1
 Largest concise Abelian subgroup C1      NOp   1
                         Standard orientation:                         
 ---------------------------------------------------------------------
 Center     Atomic      Atomic             Coordinates (Angstroms)
 Number     Number       Type             X           Y           Z
 ---------------------------------------------------------------------
      1          6           0        3.890513    0.521860   -0.141718
      2          6           0        2.571210    0.957014   -0.516657
      3          6           0        1.525929    0.021400   -0.112040
      4          6           0        3.888922   -0.741965    0.540370
      5         16           0        2.280720   -1.377940    0.725359
      6          1           0        4.771616   -1.239332    0.914105
      7          6           0        0.076906    0.039315   -0.242470
      8         16           0       -0.856473   -1.432635   -0.652361
      9          6           0       -2.367420   -0.589853   -0.600573
     10          6           0       -2.209888    0.797761   -0.249413
     11          6           0       -0.841016    1.160406   -0.028609
     12          1           0       -0.544600    2.106010    0.397568
     13         16           0       -3.626093    1.463788    0.492702
     14          6           0       -4.475488   -0.076060    0.345479
     15          6           0       -3.651066   -1.102260   -0.251096
     16          1           0       -5.427066   -0.260402    0.824552
     17          1           0       -3.885798   -2.161253   -0.176875
     18          1           0        2.570302    2.095049   -1.018826
     19          8           0        5.233290    1.546182   -0.221179
     20          1           0        5.427148    2.713375   -0.681917
 ---------------------------------------------------------------------
 Rotational constants (GHZ):           1.3435072           0.2281323           0.2040245
 Standard basis: 6-311+G(d,p) (5D, 7F)
 There are   382 symmetry adapted cartesian basis functions of A   symmetry.
 There are   368 symmetry adapted basis functions of A   symmetry.
   368 basis functions,   594 primitive gaussians,   382 cartesian basis functions
    61 alpha electrons       61 beta electrons
       nuclear repulsion energy      1078.9161042441 Hartrees.
 NAtoms=   20 NActive=   20 NUniq=   20 SFac= 1.00D+00 NAtFMM=   60 NAOKFM=F Big=F
 Integral buffers will be    131072 words long.
 Raffenetti 2 integral format.
 Two-electron integral symmetry is turned on.
 Nuclear repulsion after empirical dispersion term =     1078.9064334804 Hartrees.
 One-electron integrals computed using PRISM.
 NBasis=   368 RedAO= T EigKep=  3.06D-06  NBF=   368
 NBsUse=   367 1.00D-06 EigRej=  5.32D-07 NBFU=   367
 ExpMin= 4.05D-02 ExpMax= 9.34D+04 ExpMxC= 3.17D+03 IAcc=3 IRadAn=         5 AccDes= 0.00D+00
 Harris functional with IExCor= 4639 and IRadAn=       5 diagonalized for initial guess.
 HarFok:  IExCor= 4639 AccDes= 0.00D+00 IRadAn=         5 IDoV= 1 UseB2=F ITyADJ=14
 ICtDFT=  3500011 ScaDFX=  1.000000  1.000000  1.000000  1.000000
 FoFCou: FMM=F IPFlag=           0 FMFlag=      100000 FMFlg1=           0
         NFxFlg=           0 DoJE=T BraDBF=F KetDBF=T FulRan=T
         wScrn=  0.000000 ICntrl=       500 IOpCl=  0 I1Cent=   200000004 NGrid=           0
         NMat0=    1 NMatS0=      1 NMatT0=    0 NMatD0=    1 NMtDS0=    0 NMtDT0=    0
 Petite list used in FoFCou.
 Requested convergence on RMS density matrix=1.00D-08 within 128 cycles.
 Requested convergence on MAX density matrix=1.00D-06.
 Requested convergence on             energy=1.00D-06.
 No special actions if energy rises.
 SCF Done:  E(RwB97XD) =  -1654.22524916     A.U. after   19 cycles
            NFock= 19  Conv=0.34D-08     -V/T= 2.0032

 **********************************************************************

            Population analysis using the SCF Density.

 **********************************************************************

 Orbital symmetries:
       Occupied  (A) (A) (A) (A) (A) (A) (A) (A) (A) (A) (A) (A)
                 (A) (A) (A) (A) (A) (A) (A) (A) (A) (A) (A) (A)
                 (A) (A) (A) (A) (A) (A) (A) (A) (A) (A) (A) (A)
                 (A) (A) (A) (A) (A) (A) (A) (A) (A) (A) (A) (A)
                 (A) (A) (A) (A) (A) (A) (A) (A) (A) (A) (A) (A)
                 (A)
       Virtual   (A) (A) (A) (A) (A) (A) (A) (A) (A) (A) (A) (A)
                 (A) (A) (A) (A) (A) (A) (A) (A) (A) (A) (A) (A)
                 (A) (A) (A) (A) (A) (A) (A) (A) (A) (A) (A) (A)
                 (A) (A) (A) (A) (A) (A) (A) (A) (A) (A) (A) (A)
                 (A) (A) (A) (A) (A) (A) (A) (A) (A) (A) (A) (A)
                 (A) (A) (A) (A) (A) (A) (A) (A) (A) (A) (A) (A)
                 (A) (A) (A) (A) (A) (A) (A) (A) (A) (A) (A) (A)
                 (A) (A) (A) (A) (A) (A) (A) (A) (A) (A) (A) (A)
                 (A) (A) (A) (A) (A) (A) (A) (A) (A) (A) (A) (A)
                 (A) (A) (A) (A) (A) (A) (A) (A) (A) (A) (A) (A)
                 (A) (A) (A) (A) (A) (A) (A) (A) (A) (A) (A) (A)
                 (A) (A) (A) (A) (A) (A) (A) (A) (A) (A) (A) (A)
                 (A) (A) (A) (A) (A) (A) (A) (A) (A) (A) (A) (A)
                 (A) (A) (A) (A) (A) (A) (A) (A) (A) (A) (A) (A)
                 (A) (A) (A) (A) (A) (A) (A) (A) (A) (A) (A) (A)
                 (A) (A) (A) (A) (A) (A) (A) (A) (A) (A) (A) (A)
                 (A) (A) (A) (A) (A) (A) (A) (A) (A) (A) (A) (A)
                 (A) (A) (A) (A) (A) (A) (A) (A) (A) (A) (A) (A)
                 (A) (A) (A) (A) (A) (A) (A) (A) (A) (A) (A) (A)
                 (A) (A) (A) (A) (A) (A) (A) (A) (A) (A) (A) (A)
                 (A) (A) (A) (A) (A) (A) (A) (A) (A) (A) (A) (A)
                 (A) (A) (A) (A) (A) (A) (A) (A) (A) (A) (A) (A)
                 (A) (A) (A) (A) (A) (A) (A) (A) (A) (A) (A) (A)
                 (A) (A) (A) (A) (A) (A) (A) (A) (A) (A) (A) (A)
                 (A) (A) (A) (A) (A) (A) (A) (A) (A) (A) (A) (A)
                 (A) (A) (A) (A) (A) (A)
 The electronic state is 1-A.
 Alpha  occ. eigenvalues --  -89.07426 -89.06413 -89.06268 -19.27826 -10.38998
 Alpha  occ. eigenvalues --  -10.36701 -10.36083 -10.34393 -10.34200 -10.34185
 Alpha  occ. eigenvalues --  -10.34091 -10.34037 -10.32642 -10.32219  -8.11273
 Alpha  occ. eigenvalues --   -8.10356  -8.10215  -6.06122  -6.05755  -6.05364
 Alpha  occ. eigenvalues --   -6.05209  -6.05081  -6.04844  -6.04705  -6.04423
 Alpha  occ. eigenvalues --   -6.04259  -1.03414  -1.01370  -0.98465  -0.94181
 Alpha  occ. eigenvalues --   -0.87842  -0.85456  -0.84360  -0.81133  -0.78757
 Alpha  occ. eigenvalues --   -0.71728  -0.67330  -0.65034  -0.63419  -0.62308
 Alpha  occ. eigenvalues --   -0.59080  -0.58195  -0.54042  -0.52311  -0.51015
 Alpha  occ. eigenvalues --   -0.49691  -0.48863  -0.48226  -0.48147  -0.47546
 Alpha  occ. eigenvalues --   -0.46239  -0.44663  -0.43087  -0.42371  -0.40571
 Alpha  occ. eigenvalues --   -0.40050  -0.37673  -0.34336  -0.32797  -0.31195
 Alpha  occ. eigenvalues --   -0.27644
 Alpha virt. eigenvalues --   -0.01956  -0.00695   0.02583   0.04909   0.05271
 Alpha virt. eigenvalues --    0.05616   0.06360   0.06455   0.06798   0.07690
 Alpha virt. eigenvalues --    0.08266   0.08822   0.09065   0.09170   0.09629
 Alpha virt. eigenvalues --    0.09719   0.10351   0.11423   0.11629   0.11961
 Alpha virt. eigenvalues --    0.12407   0.12619   0.13067   0.14242   0.14364
 Alpha virt. eigenvalues --    0.14691   0.15434   0.15750   0.16343   0.16565
 Alpha virt. eigenvalues --    0.17053   0.17416   0.17814   0.18372   0.19040
 Alpha virt. eigenvalues --    0.19163   0.19842   0.19950   0.20288   0.20504
 Alpha virt. eigenvalues --    0.21586   0.21771   0.22430   0.22727   0.23065
 Alpha virt. eigenvalues --    0.23764   0.24085   0.24314   0.24557   0.24841
 Alpha virt. eigenvalues --    0.25243   0.25445   0.26131   0.26660   0.26805
 Alpha virt. eigenvalues --    0.26933   0.27323   0.28005   0.28260   0.28932
 Alpha virt. eigenvalues --    0.29169   0.29278   0.30110   0.30801   0.31253
 Alpha virt. eigenvalues --    0.31619   0.32861   0.33202   0.33256   0.33648
 Alpha virt. eigenvalues --    0.34917   0.36135   0.36199   0.37174   0.37981
 Alpha virt. eigenvalues --    0.38617   0.39476   0.40370   0.41056   0.41950
 Alpha virt. eigenvalues --    0.41995   0.42341   0.43369   0.44304   0.44500
 Alpha virt. eigenvalues --    0.47349   0.47908   0.48928   0.49698   0.50718
 Alpha virt. eigenvalues --    0.51113   0.53094   0.55754   0.56822   0.60279
 Alpha virt. eigenvalues --    0.60777   0.62009   0.63072   0.63200   0.63705
 Alpha virt. eigenvalues --    0.64328   0.65682   0.65768   0.67311   0.67964
 Alpha virt. eigenvalues --    0.68841   0.69234   0.70284   0.70420   0.72078
 Alpha virt. eigenvalues --    0.73195   0.74344   0.76068   0.76943   0.77089
 Alpha virt. eigenvalues --    0.77966   0.78342   0.78569   0.80411   0.81226
 Alpha virt. eigenvalues --    0.81669   0.82320   0.82611   0.84323   0.84523
 Alpha virt. eigenvalues --    0.84971   0.85269   0.87910   0.88105   0.88819
 Alpha virt. eigenvalues --    0.89995   0.90781   0.91660   0.93479   0.94143
 Alpha virt. eigenvalues --    0.94477   0.96090   0.96710   0.97454   0.97914
 Alpha virt. eigenvalues --    0.99947   1.00827   1.01836   1.01872   1.03517
 Alpha virt. eigenvalues --    1.03717   1.05326   1.06734   1.07418   1.08584
 Alpha virt. eigenvalues --    1.09892   1.11719   1.14191   1.15144   1.16885
 Alpha virt. eigenvalues --    1.18610   1.19095   1.22249   1.23050   1.26326
 Alpha virt. eigenvalues --    1.28983   1.30442   1.32610   1.34744   1.36498
 Alpha virt. eigenvalues --    1.42376   1.43257   1.44950   1.45489   1.47535
 Alpha virt. eigenvalues --    1.49734   1.53533   1.55199   1.57793   1.58840
 Alpha virt. eigenvalues --    1.59251   1.60791   1.62220   1.65730   1.66611
 Alpha virt. eigenvalues --    1.67549   1.68109   1.70764   1.72043   1.72946
 Alpha virt. eigenvalues --    1.74398   1.75515   1.76674   1.77517   1.78303
 Alpha virt. eigenvalues --    1.79048   1.82284   1.82418   1.83855   1.85030
 Alpha virt. eigenvalues --    1.86204   1.87967   1.88203   1.90967   1.92718
 Alpha virt. eigenvalues --    1.93856   1.96417   1.98181   1.99126   2.00611
 Alpha virt. eigenvalues --    2.02746   2.03237   2.03673   2.05556   2.07450
 Alpha virt. eigenvalues --    2.07988   2.08402   2.10682   2.11546   2.12276
 Alpha virt. eigenvalues --    2.13651   2.17027   2.17172   2.21071   2.22469
 Alpha virt. eigenvalues --    2.24031   2.28316   2.29011   2.31321   2.38012
 Alpha virt. eigenvalues --    2.41561   2.43197   2.44886   2.50323   2.55280
 Alpha virt. eigenvalues --    2.57507   2.61073   2.63513   2.66729   2.71037
 Alpha virt. eigenvalues --    2.73669   2.76072   2.78281   2.78943   2.80923
 Alpha virt. eigenvalues --    2.82353   2.82953   2.85402   2.86964   2.89790
 Alpha virt. eigenvalues --    2.90921   2.94550   2.96446   3.00024   3.02041
 Alpha virt. eigenvalues --    3.02430   3.04317   3.04649   3.06901   3.10855
 Alpha virt. eigenvalues --    3.11127   3.12875   3.14317   3.18722   3.26419
 Alpha virt. eigenvalues --    3.30143   3.34397   3.36000   3.40319   3.45578
 Alpha virt. eigenvalues --    3.48883   3.56231   3.59082   3.67023   3.69847
 Alpha virt. eigenvalues --    3.87237   3.92465   4.02462   4.13275   4.21162
 Alpha virt. eigenvalues --    4.39476   4.55831   5.13121   5.23548   5.36476
 Alpha virt. eigenvalues --    8.03610   8.04896   8.08826  17.40865  17.42025
 Alpha virt. eigenvalues --   17.43707  17.55090  17.56582  17.59517  17.60021
 Alpha virt. eigenvalues --   17.63254  17.65007  23.54202  23.69439  23.79735
 Alpha virt. eigenvalues --   23.88365  23.92466  23.97757  23.99172  24.00864
 Alpha virt. eigenvalues --   24.06389  24.08616  49.98269 189.28262 189.29071
 Alpha virt. eigenvalues --  189.33967
          Condensed to atoms (all electrons):
               1          2          3          4          5          6
     1  C    6.869418  -0.973759  -0.269683  -0.968744   1.124377   0.034963
     2  C   -0.973759  12.216931  -2.516692   0.342814  -2.471693  -0.030315
     3  C   -0.269683  -2.516692   9.422078  -0.200683   0.086349   0.020489
     4  C   -0.968744   0.342814  -0.200683   7.294793  -0.818717   0.369915
     5  S    1.124377  -2.471693   0.086349  -0.818717  17.588535  -0.022401
     6  H    0.034963  -0.030315   0.020489   0.369915  -0.022401   0.421750
     7  C    0.050290  -0.931030  -0.123020  -0.130896   0.616561  -0.001939
     8  S   -0.077952   0.531208   0.726592   0.036857  -0.283773  -0.000422
     9  C    0.026646  -0.168476  -0.682901  -0.018700   0.178308   0.000066
    10  C    0.018113   0.508225   0.851401   0.025662  -0.302213  -0.000003
    11  C    0.271094  -1.085515  -1.380418  -0.014603   0.630441  -0.000317
    12  H   -0.001811   0.017208   0.010999   0.001787  -0.005756   0.000000
    13  S    0.008743  -0.004225  -0.022631   0.002006   0.002180  -0.000002
    14  C   -0.001256  -0.004457  -0.019518  -0.000020  -0.003736   0.000000
    15  C    0.017769  -0.046641  -0.093714  -0.012286   0.068417   0.000010
    16  H    0.000001   0.000048   0.000222  -0.000001  -0.000042   0.000000
    17  H   -0.000008   0.000088   0.000168   0.000005  -0.000091   0.000000
    18  H   -0.087226   0.321671   0.098741  -0.030581   0.005185  -0.000033
    19  O    0.329254  -0.052110   0.009703  -0.129949   0.008291  -0.000076
    20  H   -0.045365  -0.029931   0.022065   0.053390  -0.004278  -0.000139
               7          8          9         10         11         12
     1  C    0.050290  -0.077952   0.026646   0.018113   0.271094  -0.001811
     2  C   -0.931030   0.531208  -0.168476   0.508225  -1.085515   0.017208
     3  C   -0.123020   0.726592  -0.682901   0.851401  -1.380418   0.010999
     4  C   -0.130896   0.036857  -0.018700   0.025662  -0.014603   0.001787
     5  S    0.616561  -0.283773   0.178308  -0.302213   0.630441  -0.005756
     6  H   -0.001939  -0.000422   0.000066  -0.000003  -0.000317   0.000000
     7  C   10.497587   0.044604  -0.748173   1.787882  -4.341354   0.101298
     8  S    0.044604  18.406253  -1.680109   2.523974  -3.610049   0.010040
     9  C   -0.748173  -1.680109  13.430456  -6.807882   3.722587  -0.045800
    10  C    1.787882   2.523974  -6.807882  17.848824  -9.043659   0.083654
    11  C   -4.341354  -3.610049   3.722587  -9.043659  18.929077   0.187751
    12  H    0.101298   0.010040  -0.045800   0.083654   0.187751   0.474156
    13  S   -0.369291   0.108936   0.507681  -1.241864   0.576034   0.003804
    14  C    0.260539  -0.031376   0.652642  -0.246134  -0.346750   0.002112
    15  C   -0.717126  -0.262702  -2.477327  -0.263594   1.473196  -0.011812
    16  H   -0.004446   0.002514  -0.022255   0.011421   0.008827  -0.000001
    17  H    0.003708   0.012990   0.014755  -0.025514  -0.004627   0.000008
    18  H    0.004121  -0.003152   0.000916  -0.001037   0.023759  -0.000181
    19  O    0.010014   0.000481  -0.000172  -0.000465  -0.004088  -0.000003
    20  H    0.000986   0.000117  -0.000014  -0.000085  -0.000584  -0.000001
              13         14         15         16         17         18
     1  C    0.008743  -0.001256   0.017769   0.000001  -0.000008  -0.087226
     2  C   -0.004225  -0.004457  -0.046641   0.000048   0.000088   0.321671
     3  C   -0.022631  -0.019518  -0.093714   0.000222   0.000168   0.098741
     4  C    0.002006  -0.000020  -0.012286  -0.000001   0.000005  -0.030581
     5  S    0.002180  -0.003736   0.068417  -0.000042  -0.000091   0.005185
     6  H   -0.000002   0.000000   0.000010   0.000000   0.000000  -0.000033
     7  C   -0.369291   0.260539  -0.717126  -0.004446   0.003708   0.004121
     8  S    0.108936  -0.031376  -0.262702   0.002514   0.012990  -0.003152
     9  C    0.507681   0.652642  -2.477327  -0.022255   0.014755   0.000916
    10  C   -1.241864  -0.246134  -0.263594   0.011421  -0.025514  -0.001037
    11  C    0.576034  -0.346750   1.473196   0.008827  -0.004627   0.023759
    12  H    0.003804   0.002112  -0.011812  -0.000001   0.000008  -0.000181
    13  S   16.579232   0.271874  -0.224375  -0.023735  -0.000201  -0.000042
    14  C    0.271874   5.648625  -0.268380   0.375651   0.011826  -0.000016
    15  C   -0.224375  -0.268380   8.595358   0.014838   0.345699   0.000157
    16  H   -0.023735   0.375651   0.014838   0.436251  -0.002608  -0.000000
    17  H   -0.000201   0.011826   0.345699  -0.002608   0.473173  -0.000000
    18  H   -0.000042  -0.000016   0.000157  -0.000000  -0.000000   0.496880
    19  O   -0.000012   0.000002  -0.000029  -0.000000   0.000000  -0.000917
    20  H   -0.000000  -0.000000  -0.000000   0.000000  -0.000000   0.000239
              19         20
     1  C    0.329254  -0.045365
     2  C   -0.052110  -0.029931
     3  C    0.009703   0.022065
     4  C   -0.129949   0.053390
     5  S    0.008291  -0.004278
     6  H   -0.000076  -0.000139
     7  C    0.010014   0.000986
     8  S    0.000481   0.000117
     9  C   -0.000172  -0.000014
    10  C   -0.000465  -0.000085
    11  C   -0.004088  -0.000584
    12  H   -0.000003  -0.000001
    13  S   -0.000012  -0.000000
    14  C    0.000002  -0.000000
    15  C   -0.000029  -0.000000
    16  H   -0.000000   0.000000
    17  H    0.000000  -0.000000
    18  H   -0.000917   0.000239
    19  O    8.090618   0.206535
    20  H    0.206535   0.492385
 Mulliken charges:
               1
     1  C   -0.324866
     2  C    0.376653
     3  C    0.060455
     4  C    0.197950
     5  S   -0.395944
     6  H    0.208453
     7  C   -0.010315
     8  S   -0.455032
     9  C    0.117751
    10  C    0.273292
    11  C    0.009197
    12  H    0.172546
    13  S   -0.174114
    14  C   -0.301632
    15  C   -0.137457
    16  H    0.203314
    17  H    0.170628
    18  H    0.171516
    19  O   -0.467077
    20  H    0.304682
 Sum of Mulliken charges =  -0.00000
 Mulliken charges with hydrogens summed into heavy atoms:
               1
     1  C   -0.324866
     2  C    0.548169
     3  C    0.060455
     4  C    0.406402
     5  S   -0.395944
     7  C   -0.010315
     8  S   -0.455032
     9  C    0.117751
    10  C    0.273292
    11  C    0.181743
    13  S   -0.174114
    14  C   -0.098318
    15  C    0.033171
    19  O   -0.162395
 Electronic spatial extent (au):  <R**2>=           4976.5094
 Charge=             -0.0000 electrons
 Dipole moment (field-independent basis, Debye):
    X=             -1.3862    Y=              0.6827    Z=              0.7221  Tot=              1.7056
 Quadrupole moment (field-independent basis, Debye-Ang):
   XX=            -99.9133   YY=            -89.8457   ZZ=           -107.0228
   XY=              7.4986   XZ=             -5.6486   YZ=             -4.0667
 Traceless Quadrupole moment (field-independent basis, Debye-Ang):
   XX=             -0.9861   YY=              9.0816   ZZ=             -8.0955
   XY=              7.4986   XZ=             -5.6486   YZ=             -4.0667
 Octapole moment (field-independent basis, Debye-Ang**2):
  XXX=            -69.1810  YYY=             28.6366  ZZZ=              5.5653  XYY=             43.1029
  XXY=              2.0128  XXZ=             17.8576  XZZ=              8.6531  YZZ=              1.8703
  YYZ=             -5.3384  XYZ=            -26.4422
 Hexadecapole moment (field-independent basis, Debye-Ang**3):
 XXXX=          -5595.7377 YYYY=           -811.7000 ZZZZ=           -289.2407 XXXY=            185.2111
 XXXZ=           -181.2682 YYYX=            188.6226 YYYZ=            -29.1290 ZZZX=             -9.6788
 ZZZY=             -4.9630 XXYY=           -829.0138 XXZZ=          -1009.5250 YYZZ=           -197.1093
 XXYZ=           -112.0377 YYXZ=            -47.8962 ZZXY=              5.0612
 N-N= 1.078906433480D+03 E-N=-6.066995791547D+03  KE= 1.648899396490D+03
 Calling FoFJK, ICntrl=      2127 FMM=F ISym2X=0 I1Cent= 0 IOpClX= 0 NMat=1 NMatS=1 NMatT=0.
 ***** Axes restored to original set *****
 -------------------------------------------------------------------
 Center     Atomic                   Forces (Hartrees/Bohr)
 Number     Number              X              Y              Z
 -------------------------------------------------------------------
      1        6          -0.018903780    0.007096454   -0.021777900
      2        6           0.006604372    0.020794429   -0.017709116
      3        6          -0.046349648    0.029701897    0.007670483
      4        6          -0.007613034    0.060089140   -0.010435386
      5       16          -0.006730305    0.036358285   -0.002664965
      6        1           0.002568460   -0.003611444   -0.000554356
      7        6           0.041165159    0.025737771   -0.048330146
      8       16          -0.009904191    0.019010815   -0.004241121
      9        6          -0.005696031    0.005441400   -0.038677412
     10        6          -0.019453844   -0.026686589    0.027021605
     11        6          -0.017226203   -0.028733989    0.052280599
     12        1          -0.004532601    0.003991605    0.002882808
     13       16           0.015841377   -0.008724358    0.015390168
     14        6          -0.032691328   -0.010438523    0.055635251
     15        6           0.012582166    0.011753623   -0.060661298
     16        1           0.002633083    0.006801139   -0.001077316
     17        1           0.005636527    0.007720795    0.000819344
     18        1           0.014759985   -0.070761982    0.020017685
     19        8           0.023324114    0.026608672   -0.007238596
     20        1           0.043985720   -0.112149138    0.031649668
 -------------------------------------------------------------------
 Cartesian Forces:  Max     0.112149138 RMS     0.029940491

 GradGradGradGradGradGradGradGradGradGradGradGradGradGradGradGradGradGrad
 Berny optimization.
 FormGI is forming the generalized inverse of G from B-inverse, IUseBI=4.
 Internal  Forces:  Max     0.121140737 RMS     0.024637161
 Search for a local minimum.
 Step number   1 out of a maximum of  116
 All quantities printed in internal units (Hartrees-Bohrs-Radians)
 Mixed Optimization -- RFO/linear search
 Second derivative matrix not updated -- first step.
 ITU=  0
     Eigenvalues ---    0.00230   0.00983   0.01053   0.01221   0.01274
     Eigenvalues ---    0.01298   0.01386   0.01417   0.01424   0.01464
     Eigenvalues ---    0.01488   0.01554   0.01598   0.01770   0.02202
     Eigenvalues ---    0.02656   0.15084   0.15686   0.15734   0.15872
     Eigenvalues ---    0.15997   0.16000   0.17997   0.18458   0.20203
     Eigenvalues ---    0.21719   0.22443   0.23319   0.23380   0.23776
     Eigenvalues ---    0.23977   0.24292   0.24978   0.24995   0.26219
     Eigenvalues ---    0.26538   0.28420   0.30834   0.31343   0.31503
     Eigenvalues ---    0.34833   0.35135   0.35849   0.35850   0.36006
     Eigenvalues ---    0.36148   0.36339   0.37598   0.38286   0.38494
     Eigenvalues ---    0.39449   0.39629   0.406841000.000001000.00000
     Eigenvalues --- 1000.000001000.000001000.000001000.000001000.00000
     Eigenvalues --- 1000.000001000.000001000.000001000.000001000.00000
     Eigenvalues --- 1000.000001000.000001000.000001000.000001000.00000
     Eigenvalues --- 1000.000001000.000001000.000001000.000001000.00000
     Eigenvalues --- 1000.000001000.000001000.000001000.000001000.00000
     Eigenvalues --- 1000.000001000.000001000.000001000.000001000.00000
     Eigenvalues --- 1000.000001000.000001000.000001000.000001000.00000
     Eigenvalues --- 1000.000001000.000001000.000001000.000001000.00000
     Eigenvalues --- 1000.000001000.000001000.000001000.000001000.00000
     Eigenvalues --- 1000.000001000.000001000.000001000.000001000.00000
     Eigenvalues --- 1000.00000
 RFO step:  Lambda=-1.60200331D-01 EMin= 2.30000000D-03
 Linear search not attempted -- first point.
 Maximum step size (   0.300) exceeded in Quadratic search.
    -- Step size scaled by   0.473
 Iteration  1 RMS(Cart)=  0.06357923 RMS(Int)=  0.00155343
 Iteration  2 RMS(Cart)=  0.00189719 RMS(Int)=  0.00006035
 Iteration  3 RMS(Cart)=  0.00000956 RMS(Int)=  0.00006004
 Iteration  4 RMS(Cart)=  0.00000000 RMS(Int)=  0.00006004
 Iteration  1 RMS(Cart)=  0.00000061 RMS(Int)=  0.00000023
 Variable       Old X    -DE/DX   Delta X   Delta X   Delta X     New X
                                 (Linear)    (Quad)   (Total)
    R1        2.71917  -0.02371   0.00000  -0.02112  -0.02106   2.69811
    R2        2.71391  -0.06958   0.00000  -0.05916  -0.05913   2.65478
    R3        3.19503  -0.10708   0.00000  -0.14702  -0.14702   3.04801
    R4        2.75906  -0.07491   0.00000  -0.06723  -0.06720   2.69186
    R5        2.35064  -0.07301   0.00000  -0.09158  -0.09158   2.25906
    R6        3.39578  -0.02472   0.00000  -0.02655  -0.02660   3.36918
    R7        2.74954  -0.01186   0.00000  -0.01047  -0.01047   2.73906
    R8        3.28671  -0.02174   0.00000  -0.02090  -0.02095   3.26577
    R9        2.04073  -0.00059   0.00000  -0.00054  -0.00054   2.04019
   R10        3.38353  -0.01816   0.00000  -0.01914  -0.01917   3.36436
   R11        2.76776  -0.07220   0.00000  -0.06546  -0.06547   2.70230
   R12        3.27088  -0.00622   0.00000  -0.00547  -0.00547   3.26541
   R13        2.72121  -0.03856   0.00000  -0.03336  -0.03329   2.68792
   R14        2.69406  -0.00273   0.00000  -0.00298  -0.00293   2.69113
   R15        2.70837  -0.01401   0.00000  -0.01256  -0.01254   2.69583
   R16        3.27308  -0.00444   0.00000  -0.00358  -0.00359   3.26949
   R17        2.03850   0.00178   0.00000   0.00162   0.00162   2.04012
   R18        3.33486  -0.01777   0.00000  -0.01812  -0.01817   3.31668
   R19        2.73107  -0.06579   0.00000  -0.05718  -0.05719   2.67388
   R20        2.04317  -0.00112   0.00000  -0.00102  -0.00102   2.04215
   R21        2.05457  -0.00432   0.00000  -0.00399  -0.00399   2.05058
   R22        2.39943  -0.12114   0.00000  -0.15831  -0.15831   2.24112
    A1        1.97020   0.02000   0.00000   0.02163   0.02172   1.99192
    A2        2.13260   0.00483   0.00000   0.00706   0.00703   2.13962
    A3        2.16079  -0.02416   0.00000  -0.02694  -0.02703   2.13376
    A4        1.97187  -0.00376   0.00000  -0.00634  -0.00625   1.96562
    A5        1.96334   0.02157   0.00000   0.03245   0.03241   1.99574
    A6        2.34288  -0.01765   0.00000  -0.02556  -0.02562   2.31726
    A7        1.90440   0.00101   0.00000   0.00191   0.00190   1.90630
    A8        2.31891  -0.01104   0.00000  -0.01312  -0.01311   2.30580
    A9        2.05972   0.01003   0.00000   0.01120   0.01120   2.07092
   A10        1.95339  -0.01480   0.00000  -0.01818  -0.01819   1.93520
   A11        2.17580   0.01186   0.00000   0.01569   0.01569   2.19150
   A12        2.15384   0.00297   0.00000   0.00254   0.00255   2.15639
   A13        1.62490  -0.00245   0.00000   0.00099   0.00082   1.62572
   A14        2.12888  -0.00259   0.00000  -0.00282  -0.00283   2.12605
   A15        2.24016  -0.00669   0.00000  -0.00757  -0.00758   2.23258
   A16        1.91344   0.00936   0.00000   0.01057   0.01059   1.92403
   A17        1.61874  -0.00761   0.00000  -0.00687  -0.00685   1.61189
   A18        1.96167  -0.01024   0.00000  -0.01034  -0.01045   1.95122
   A19        2.23740   0.00849   0.00000   0.01339   0.01328   2.25068
   A20        1.96608   0.00564   0.00000   0.00630   0.00633   1.97241
   A21        1.96696   0.00761   0.00000   0.00793   0.00794   1.97490
   A22        1.96663  -0.01299   0.00000  -0.01345  -0.01352   1.95312
   A23        2.23653   0.00877   0.00000   0.01344   0.01334   2.24987
   A24        1.96321   0.00093   0.00000  -0.00117  -0.00111   1.96210
   A25        2.16091  -0.00484   0.00000  -0.00555  -0.00560   2.15530
   A26        2.14733   0.00441   0.00000   0.00808   0.00803   2.15536
   A27        1.59307   0.00043   0.00000   0.00180   0.00179   1.59486
   A28        1.96000   0.00210   0.00000   0.00173   0.00171   1.96170
   A29        2.13580  -0.00472   0.00000  -0.00574  -0.00580   2.13000
   A30        2.16990   0.00373   0.00000   0.00688   0.00684   2.17674
   A31        1.93864   0.00482   0.00000   0.00362   0.00368   1.94233
   A32        2.16665   0.00036   0.00000   0.00340   0.00329   2.16995
   A33        2.14157  -0.00327   0.00000  -0.00211  -0.00222   2.13935
   A34        2.33954  -0.06939   0.00000  -0.10259  -0.10259   2.23694
    D1        0.00683  -0.00056   0.00000  -0.00145  -0.00145   0.00539
    D2        3.05589  -0.00016   0.00000   0.00185   0.00200   3.05789
    D3       -2.93068  -0.00118   0.00000  -0.00725  -0.00744  -2.93811
    D4        0.11838  -0.00077   0.00000  -0.00395  -0.00399   0.11439
    D5       -0.00671   0.00052   0.00000   0.00119   0.00119  -0.00552
    D6       -3.13020  -0.00104   0.00000  -0.00225  -0.00223  -3.13243
    D7        2.92697   0.00520   0.00000   0.01184   0.01175   2.93873
    D8       -0.19651   0.00364   0.00000   0.00841   0.00833  -0.18818
    D9       -0.13323   0.00188   0.00000   0.00257   0.00252  -0.13071
   D10       -3.04818  -0.00448   0.00000  -0.01016  -0.01011  -3.05829
   D11       -0.00388   0.00051   0.00000   0.00120   0.00116  -0.00272
   D12        3.11762   0.00102   0.00000   0.00111   0.00108   3.11870
   D13       -3.02603  -0.00315   0.00000  -0.00767  -0.00764  -3.03367
   D14        0.09547  -0.00264   0.00000  -0.00776  -0.00772   0.08775
   D15        0.00006  -0.00013   0.00000  -0.00039  -0.00037  -0.00031
   D16       -3.12486  -0.00029   0.00000  -0.00001   0.00000  -3.12485
   D17        2.44358  -0.00134   0.00000   0.00000  -0.00000   2.44358
   D18       -0.74266   0.00156   0.00000   0.00613   0.00613  -0.73653
   D19       -0.71951  -0.00090   0.00000  -0.00021  -0.00021  -0.71972
   D20        2.37743   0.00201   0.00000   0.00592   0.00593   2.38335
   D21        0.00376  -0.00024   0.00000  -0.00047  -0.00048   0.00328
   D22        3.12751   0.00141   0.00000   0.00308   0.00302   3.13054
   D23        3.13779   0.00067   0.00000   0.00132   0.00133   3.13912
   D24        0.03337  -0.00143   0.00000  -0.00343  -0.00346   0.02991
   D25       -3.13882  -0.00176   0.00000  -0.00347  -0.00345   3.14092
   D26       -0.15726   0.00211   0.00000   0.00653   0.00652  -0.15074
   D27       -0.03744   0.00065   0.00000   0.00183   0.00188  -0.03556
   D28        2.94412   0.00453   0.00000   0.01182   0.01185   2.95597
   D29       -0.02144   0.00231   0.00000   0.00469   0.00466  -0.01678
   D30       -2.61611  -0.00675   0.00000  -0.01598  -0.01600  -2.63211
   D31        0.00324  -0.00190   0.00000  -0.00406  -0.00404  -0.00080
   D32       -2.68824  -0.01069   0.00000  -0.02252  -0.02233  -2.71057
   D33        2.68602   0.00758   0.00000   0.01661   0.01649   2.70251
   D34       -0.00546  -0.00120   0.00000  -0.00184  -0.00180  -0.00726
   D35        2.61420   0.00610   0.00000   0.01803   0.01816   2.63236
   D36       -0.24683  -0.00061   0.00000  -0.00012  -0.00006  -0.24689
   D37        0.02065   0.00104   0.00000   0.00152   0.00149   0.02214
   D38       -2.84038  -0.00567   0.00000  -0.01663  -0.01673  -2.85711
   D39        0.02269   0.00080   0.00000   0.00133   0.00131   0.02399
   D40       -2.96031  -0.00207   0.00000  -0.00714  -0.00721  -2.96753
   D41        2.62860   0.00428   0.00000   0.01440   0.01453   2.64313
   D42       -0.35439   0.00141   0.00000   0.00592   0.00600  -0.34839
   D43       -0.00862   0.00110   0.00000   0.00152   0.00150  -0.00712
   D44       -2.61461  -0.00750   0.00000  -0.01685  -0.01681  -2.63143
   D45        0.02047  -0.00037   0.00000  -0.00053  -0.00054   0.01993
   D46        2.97007   0.00611   0.00000   0.01588   0.01581   2.98589
   D47       -0.02704  -0.00018   0.00000  -0.00034  -0.00031  -0.02735
   D48        2.83872   0.00707   0.00000   0.01852   0.01855   2.85727
   D49       -2.97223  -0.00572   0.00000  -0.01548  -0.01552  -2.98775
   D50       -0.10647   0.00153   0.00000   0.00338   0.00334  -0.10313
         Item               Value     Threshold  Converged?
 Maximum Force            0.121141     0.000450     NO 
 RMS     Force            0.024753     0.000300     NO 
 Maximum Displacement     0.428594     0.001800     NO 
 RMS     Displacement     0.063008     0.001200     NO 
 Predicted change in Energy=-6.540639D-02
 GradGradGradGradGradGradGradGradGradGradGradGradGradGradGradGradGradGrad

                          Input orientation:                          
 ---------------------------------------------------------------------
 Center     Atomic      Atomic             Coordinates (Angstroms)
 Number     Number       Type             X           Y           Z
 ---------------------------------------------------------------------
      1          6           0       -4.221163   -1.358004   -0.228928
      2          6           0       -2.908460   -0.964717   -0.629791
      3          6           0       -1.986700   -2.050754   -0.628392
      4          6           0       -4.339987   -2.720946    0.090247
      5         16           0       -2.828655   -3.534615   -0.110716
      6          1           0       -5.246397   -3.215190    0.406041
      7          6           0       -0.582602   -2.134381   -0.978283
      8         16           0        0.563915   -3.113309   -0.031278
      9          6           0        1.887244   -2.684018   -1.056178
     10          6           0        1.477881   -1.830127   -2.117530
     11          6           0        0.083444   -1.530295   -2.090193
     12          1           0       -0.434337   -1.030456   -2.894909
     13         16           0        2.539560   -1.938584   -3.479316
     14          6           0        3.549659   -3.111514   -2.652056
     15          6           0        3.060726   -3.430196   -1.363067
     16          1           0        4.343606   -3.642308   -3.157752
     17          1           0        3.390736   -4.305366   -0.812927
     18          1           0       -2.822634    0.172393   -0.988531
     19          8           0       -5.506640   -0.399580   -0.403701
     20          1           0       -5.533198    0.735966   -0.744741
 ---------------------------------------------------------------------
                    Distance matrix (angstroms):
                    1          2          3          4          5
     1  C    0.000000
     2  C    1.427780   0.000000
     3  C    2.373246   1.424472   0.000000
     4  C    1.404850   2.377408   2.550208   0.000000
     5  S    2.586636   2.623010   1.782896   1.728169   0.000000
     6  H    2.214369   3.406396   3.612698   1.079621   2.492899
     7  C    3.795183   2.626628   1.449451   3.950159   2.785333
     8  S    5.100699   4.126991   2.826872   4.921075   3.419553
     9  C    6.305180   5.112395   3.948604   6.331988   4.884375
    10  C    6.022360   4.711931   3.777503   6.286130   5.047656
    11  C    4.692934   3.377002   2.587129   5.073334   4.051660
    12  H    4.642714   3.355051   2.930519   5.198367   4.444694
    13  S    7.523926   6.224879   5.350456   7.789868   6.535481
    14  C    8.326584   7.099689   5.989298   8.361775   6.878976
    15  C    7.655466   6.499805   5.283855   7.575336   6.021968
    16  H    9.335487   8.133421   7.000249   9.316824   7.793418
    17  H    8.183459   7.132555   5.833879   7.942933   6.306186
    18  H    2.207939   1.195441   2.402264   3.440572   3.809528
    19  O    1.612940   2.668527   3.894463   2.644580   4.133508
    20  H    2.524324   3.129662   4.511873   3.751160   5.094546
                    6          7          8          9         10
     6  H    0.000000
     7  C    4.983521   0.000000
     8  S    5.827637   1.780343   0.000000
     9  C    7.301306   2.531464   1.727979   0.000000
    10  C    7.314556   2.374036   2.614257   1.422384   0.000000
    11  C    6.121868   1.429993   2.641196   2.377805   1.426570
    12  H    6.230992   2.216774   3.679017   3.391893   2.213678
    13  S    8.794706   4.005171   4.143925   2.617782   1.730140
    14  C    9.313072   4.564196   3.972800   2.343757   2.493979
    15  C    8.496133   3.886006   2.847480   1.424087   2.373781
    16  H   10.239688   5.593877   4.933634   3.371742   3.546610
    17  H    8.790588   4.530777   3.165895   2.224506   3.389367
    18  H    4.392628   3.215440   4.814654   5.508777   4.876388
    19  O    2.941270   5.252221   6.659930   7.766203   7.332613
    20  H    4.125311   5.727288   7.245739   8.176567   7.591088
                   11         12         13         14         15
    11  C    0.000000
    12  H    1.079585   0.000000
    13  S    2.851117   3.163904   0.000000
    14  C    3.851050   4.501333   1.755114   0.000000
    15  C    3.605905   4.507855   2.641029   1.414958   0.000000
    16  H    4.873322   5.451568   2.502132   1.080659   2.216228
    17  H    4.502289   5.448933   3.665486   2.198394   1.085119
    18  H    3.543741   3.284066   6.278006   7.359177   6.908897
    19  O    5.947420   5.686157   8.750387   9.717316   9.138095
    20  H    6.204260   5.808774   8.933114  10.046852   9.570516
                   16         17         18         19         20
    16  H    0.000000
    17  H    2.616451   0.000000
    18  H    8.403123   7.660753   0.000000
    19  O   10.729745   9.725530   2.805898   0.000000
    20  H   11.069922  10.249696   2.779245   1.185950   0.000000
 Stoichiometry    C10H6OS3
 Framework group  C1[X(C10H6OS3)]
 Deg. of freedom    54
 Full point group                 C1      NOp   1
 Largest Abelian subgroup         C1      NOp   1
 Largest concise Abelian subgroup C1      NOp   1
                         Standard orientation:                         
 ---------------------------------------------------------------------
 Center     Atomic      Atomic             Coordinates (Angstroms)
 Number     Number       Type             X           Y           Z
 ---------------------------------------------------------------------
      1          6           0        3.841032    0.540450   -0.147204
      2          6           0        2.524448    0.957931   -0.508965
      3          6           0        1.524194    0.027874   -0.104481
      4          6           0        3.888549   -0.693841    0.522028
      5         16           0        2.301573   -1.348883    0.719497
      6          1           0        4.783084   -1.177480    0.884633
      7          6           0        0.080156    0.037959   -0.229215
      8         16           0       -0.837091   -1.432925   -0.635149
      9          6           0       -2.346380   -0.593480   -0.577813
     10          6           0       -2.176048    0.776572   -0.235585
     11          6           0       -0.812283    1.135584   -0.020281
     12          1           0       -0.504156    2.083056    0.395483
     13         16           0       -3.601851    1.444916    0.481206
     14          6           0       -4.448653   -0.084415    0.324685
     15          6           0       -3.637251   -1.094160   -0.244653
     16          1           0       -5.414343   -0.254148    0.779060
     17          1           0       -3.888055   -2.148194   -0.184708
     18          1           0        2.469719    2.047697   -0.997324
     19          8           0        5.118697    1.520816   -0.236812
     20          1           0        5.175490    2.609977   -0.702623
 ---------------------------------------------------------------------
 Rotational constants (GHZ):           1.3829001           0.2326892           0.2081721
 Standard basis: 6-311+G(d,p) (5D, 7F)
 There are   382 symmetry adapted cartesian basis functions of A   symmetry.
 There are   368 symmetry adapted basis functions of A   symmetry.
   368 basis functions,   594 primitive gaussians,   382 cartesian basis functions
    61 alpha electrons       61 beta electrons
       nuclear repulsion energy      1090.2156740233 Hartrees.
 NAtoms=   20 NActive=   20 NUniq=   20 SFac= 1.00D+00 NAtFMM=   60 NAOKFM=F Big=F
 Integral buffers will be    131072 words long.
 Raffenetti 2 integral format.
 Two-electron integral symmetry is turned on.
 Nuclear repulsion after empirical dispersion term =     1090.2058428265 Hartrees.
 One-electron integrals computed using PRISM.
 NBasis=   368 RedAO= T EigKep=  2.71D-06  NBF=   368
 NBsUse=   367 1.00D-06 EigRej=  4.81D-07 NBFU=   367
 Initial guess from the checkpoint file:  "/tmp/pbs.4766238[315].pbs/Gau-1632027.chk"
 B after Tr=    -0.000000    0.000000   -0.000000
         Rot=    0.999993    0.002814   -0.000731   -0.002168 Ang=   0.42 deg.
 ExpMin= 4.05D-02 ExpMax= 9.34D+04 ExpMxC= 3.17D+03 IAcc=3 IRadAn=         5 AccDes= 0.00D+00
 Harris functional with IExCor= 4639 and IRadAn=       5 diagonalized for initial guess.
 HarFok:  IExCor= 4639 AccDes= 0.00D+00 IRadAn=         5 IDoV= 1 UseB2=F ITyADJ=14
 ICtDFT=  3500011 ScaDFX=  1.000000  1.000000  1.000000  1.000000
 FoFCou: FMM=F IPFlag=           0 FMFlag=      100000 FMFlg1=           0
         NFxFlg=           0 DoJE=T BraDBF=F KetDBF=T FulRan=T
         wScrn=  0.000000 ICntrl=       500 IOpCl=  0 I1Cent=   200000004 NGrid=           0
         NMat0=    1 NMatS0=      1 NMatT0=    0 NMatD0=    1 NMtDS0=    0 NMtDT0=    0
 Petite list used in FoFCou.
 Requested convergence on RMS density matrix=1.00D-08 within 128 cycles.
 Requested convergence on MAX density matrix=1.00D-06.
 Requested convergence on             energy=1.00D-06.
 No special actions if energy rises.
 SCF Done:  E(RwB97XD) =  -1654.29549894     A.U. after   16 cycles
            NFock= 16  Conv=0.36D-08     -V/T= 2.0029
 Calling FoFJK, ICntrl=      2127 FMM=F ISym2X=0 I1Cent= 0 IOpClX= 0 NMat=1 NMatS=1 NMatT=0.
 ***** Axes restored to original set *****
 -------------------------------------------------------------------
 Center     Atomic                   Forces (Hartrees/Bohr)
 Number     Number              X              Y              Z
 -------------------------------------------------------------------
      1        6          -0.038073651    0.024512701   -0.022062402
      2        6           0.005797953    0.022274200   -0.016237474
      3        6          -0.036190802    0.019425769    0.007864525
      4        6          -0.005235833    0.044340951   -0.006646158
      5       16          -0.000673491    0.023624536   -0.001565970
      6        1           0.002205712   -0.003028421   -0.000844975
      7        6           0.033506764    0.018719685   -0.036358206
      8       16          -0.008491448    0.014701604   -0.000233713
      9        6          -0.006276779    0.002737886   -0.029581299
     10        6          -0.011569461   -0.022574828    0.018558223
     11        6          -0.015030571   -0.019508165    0.037911866
     12        1          -0.003155909    0.003722786    0.002637093
     13       16           0.013521276   -0.003866929    0.009048100
     14        6          -0.024360242   -0.008852370    0.040195460
     15        6           0.009752418    0.006621890   -0.044062896
     16        1           0.002475370    0.006238058   -0.001154951
     17        1           0.005036716    0.006641076    0.002115609
     18        1           0.011507212   -0.056411655    0.016967357
     19        8           0.036232106    0.030439709   -0.008644796
     20        1           0.029022659   -0.109758483    0.032094607
 -------------------------------------------------------------------
 Cartesian Forces:  Max     0.109758483 RMS     0.025614037

 GradGradGradGradGradGradGradGradGradGradGradGradGradGradGradGradGradGrad
 Berny optimization.
 Using GEDIIS/GDIIS optimizer.
 FormGI is forming the generalized inverse of G from B-inverse, IUseBI=4.
 Internal  Forces:  Max     0.114974076 RMS     0.020439968
 Search for a local minimum.
 Step number   2 out of a maximum of  116
 All quantities printed in internal units (Hartrees-Bohrs-Radians)
 Mixed Optimization -- RFO/linear search
 Update second derivatives using D2CorX and points    1    2
 DE= -7.02D-02 DEPred=-6.54D-02 R= 1.07D+00
 TightC=F SS=  1.41D+00  RLast= 3.06D-01 DXNew= 5.0454D-01 9.1924D-01
 Trust test= 1.07D+00 RLast= 3.06D-01 DXMaxT set to 5.05D-01
 ITU=  1  0
 Use linear search instead of GDIIS.
 Linear search step of   0.600 exceeds DXMaxT=   0.505 but not scaled.
 Quartic linear search produced a step of  2.00000.
 Iteration  1 RMS(Cart)=  0.11166176 RMS(Int)=  0.01870699
 Iteration  2 RMS(Cart)=  0.02118997 RMS(Int)=  0.00037039
 Iteration  3 RMS(Cart)=  0.00012810 RMS(Int)=  0.00036042
 Iteration  4 RMS(Cart)=  0.00000004 RMS(Int)=  0.00036042
 Iteration  1 RMS(Cart)=  0.00000261 RMS(Int)=  0.00000103
 Iteration  2 RMS(Cart)=  0.00000143 RMS(Int)=  0.00000115
 Iteration  3 RMS(Cart)=  0.00000078 RMS(Int)=  0.00000130
 Variable       Old X    -DE/DX   Delta X   Delta X   Delta X     New X
                                 (Linear)    (Quad)   (Total)
    R1        2.69811  -0.01292  -0.04212   0.00000  -0.04169   2.65642
    R2        2.65478  -0.04740  -0.11826   0.00000  -0.11808   2.53670
    R3        3.04801  -0.10168  -0.29404   0.00000  -0.29404   2.75397
    R4        2.69186  -0.05138  -0.13441   0.00000  -0.13424   2.55762
    R5        2.25906  -0.05792  -0.18317   0.00000  -0.18317   2.07589
    R6        3.36918  -0.01875  -0.05319   0.00000  -0.05350   3.31568
    R7        2.73906  -0.00449  -0.02094   0.00000  -0.02094   2.71812
    R8        3.26577  -0.01201  -0.04189   0.00000  -0.04219   3.22358
    R9        2.04019  -0.00071  -0.00108   0.00000  -0.00108   2.03911
   R10        3.36436  -0.01325  -0.03834   0.00000  -0.03853   3.32584
   R11        2.70230  -0.05165  -0.13093   0.00000  -0.13098   2.57132
   R12        3.26541  -0.00227  -0.01094   0.00000  -0.01097   3.25443
   R13        2.68792  -0.02695  -0.06658   0.00000  -0.06617   2.62174
   R14        2.69113  -0.00023  -0.00586   0.00000  -0.00558   2.68555
   R15        2.69583  -0.00698  -0.02508   0.00000  -0.02492   2.67090
   R16        3.26949  -0.00130  -0.00718   0.00000  -0.00728   3.26221
   R17        2.04012   0.00127   0.00324   0.00000   0.00324   2.04336
   R18        3.31668  -0.01234  -0.03635   0.00000  -0.03665   3.28003
   R19        2.67388  -0.04615  -0.11438   0.00000  -0.11441   2.55948
   R20        2.04215  -0.00071  -0.00204   0.00000  -0.00204   2.04011
   R21        2.05058  -0.00275  -0.00799   0.00000  -0.00799   2.04259
   R22        2.24112  -0.11497  -0.31662   0.00000  -0.31662   1.92450
    A1        1.99192   0.01146   0.04344   0.00000   0.04399   2.03592
    A2        2.13962   0.00618   0.01405   0.00000   0.01380   2.15342
    A3        2.13376  -0.01695  -0.05406   0.00000  -0.05456   2.07920
    A4        1.96562  -0.00229  -0.01250   0.00000  -0.01191   1.95372
    A5        1.99574   0.01838   0.06481   0.00000   0.06452   2.06027
    A6        2.31726  -0.01590  -0.05124   0.00000  -0.05159   2.26567
    A7        1.90630   0.00249   0.00380   0.00000   0.00374   1.91004
    A8        2.30580  -0.01011  -0.02622   0.00000  -0.02619   2.27961
    A9        2.07092   0.00763   0.02241   0.00000   0.02244   2.09336
   A10        1.93520  -0.00838  -0.03638   0.00000  -0.03644   1.89876
   A11        2.19150   0.00792   0.03139   0.00000   0.03141   2.22290
   A12        2.15639   0.00048   0.00509   0.00000   0.00510   2.16149
   A13        1.62572  -0.00327   0.00164   0.00000   0.00062   1.62634
   A14        2.12605  -0.00215  -0.00566   0.00000  -0.00575   2.12030
   A15        2.23258  -0.00515  -0.01517   0.00000  -0.01526   2.21732
   A16        1.92403   0.00737   0.02118   0.00000   0.02129   1.94532
   A17        1.61189  -0.00558  -0.01370   0.00000  -0.01360   1.59829
   A18        1.95122  -0.00711  -0.02091   0.00000  -0.02160   1.92962
   A19        2.25068   0.00705   0.02655   0.00000   0.02584   2.27652
   A20        1.97241   0.00355   0.01267   0.00000   0.01286   1.98528
   A21        1.97490   0.00446   0.01588   0.00000   0.01593   1.99082
   A22        1.95312  -0.00862  -0.02703   0.00000  -0.02737   1.92575
   A23        2.24987   0.00723   0.02667   0.00000   0.02602   2.27589
   A24        1.96210   0.00089  -0.00222   0.00000  -0.00185   1.96025
   A25        2.15530  -0.00353  -0.01120   0.00000  -0.01149   2.14381
   A26        2.15536   0.00310   0.01606   0.00000   0.01576   2.17112
   A27        1.59486  -0.00051   0.00357   0.00000   0.00347   1.59833
   A28        1.96170   0.00244   0.00341   0.00000   0.00331   1.96501
   A29        2.13000  -0.00474  -0.01160   0.00000  -0.01195   2.11805
   A30        2.17674   0.00327   0.01368   0.00000   0.01342   2.19016
   A31        1.94233   0.00314   0.00736   0.00000   0.00770   1.95003
   A32        2.16995   0.00010   0.00659   0.00000   0.00595   2.17590
   A33        2.13935  -0.00160  -0.00445   0.00000  -0.00513   2.13422
   A34        2.23694  -0.05923  -0.20518   0.00000  -0.20518   2.03176
    D1        0.00539  -0.00033  -0.00290   0.00000  -0.00291   0.00248
    D2        3.05789   0.00046   0.00399   0.00000   0.00483   3.06272
    D3       -2.93811  -0.00216  -0.01487   0.00000  -0.01595  -2.95407
    D4        0.11439  -0.00137  -0.00799   0.00000  -0.00822   0.10617
    D5       -0.00552   0.00035   0.00239   0.00000   0.00244  -0.00308
    D6       -3.13243  -0.00101  -0.00446   0.00000  -0.00434  -3.13676
    D7        2.93873   0.00510   0.02351   0.00000   0.02298   2.96171
    D8       -0.18818   0.00374   0.01666   0.00000   0.01621  -0.17197
    D9       -0.13071   0.00145   0.00503   0.00000   0.00472  -0.12600
   D10       -3.05829  -0.00397  -0.02023   0.00000  -0.01991  -3.07820
   D11       -0.00272   0.00024   0.00232   0.00000   0.00211  -0.00061
   D12        3.11870   0.00078   0.00216   0.00000   0.00197   3.12067
   D13       -3.03367  -0.00331  -0.01527   0.00000  -0.01503  -3.04870
   D14        0.08775  -0.00276  -0.01544   0.00000  -0.01517   0.07258
   D15       -0.00031  -0.00001  -0.00074   0.00000  -0.00061  -0.00092
   D16       -3.12485  -0.00024   0.00001   0.00000   0.00013  -3.12472
   D17        2.44358  -0.00135  -0.00000   0.00000  -0.00000   2.44358
   D18       -0.73653   0.00143   0.01226   0.00000   0.01226  -0.72427
   D19       -0.71972  -0.00084  -0.00041   0.00000  -0.00040  -0.72012
   D20        2.38335   0.00194   0.01186   0.00000   0.01187   2.39522
   D21        0.00328  -0.00020  -0.00096   0.00000  -0.00106   0.00222
   D22        3.13054   0.00120   0.00605   0.00000   0.00570   3.13624
   D23        3.13912   0.00075   0.00266   0.00000   0.00275  -3.14132
   D24        0.02991  -0.00137  -0.00692   0.00000  -0.00712   0.02279
   D25        3.14092  -0.00156  -0.00690   0.00000  -0.00676   3.13416
   D26       -0.15074   0.00204   0.01304   0.00000   0.01299  -0.13775
   D27       -0.03556   0.00081   0.00376   0.00000   0.00407  -0.03149
   D28        2.95597   0.00441   0.02369   0.00000   0.02381   2.97978
   D29       -0.01678   0.00188   0.00932   0.00000   0.00910  -0.00768
   D30       -2.63211  -0.00620  -0.03201   0.00000  -0.03217  -2.66428
   D31       -0.00080  -0.00147  -0.00807   0.00000  -0.00792  -0.00872
   D32       -2.71057  -0.00933  -0.04466   0.00000  -0.04353  -2.75410
   D33        2.70251   0.00702   0.03299   0.00000   0.03225   2.73476
   D34       -0.00726  -0.00084  -0.00360   0.00000  -0.00336  -0.01062
   D35        2.63236   0.00622   0.03633   0.00000   0.03712   2.66948
   D36       -0.24689  -0.00024  -0.00011   0.00000   0.00024  -0.24664
   D37        0.02214   0.00060   0.00299   0.00000   0.00287   0.02501
   D38       -2.85711  -0.00587  -0.03345   0.00000  -0.03401  -2.89112
   D39        0.02399   0.00043   0.00262   0.00000   0.00251   0.02650
   D40       -2.96753  -0.00251  -0.01443   0.00000  -0.01484  -2.98237
   D41        2.64313   0.00490   0.02905   0.00000   0.02981   2.67294
   D42       -0.34839   0.00196   0.01201   0.00000   0.01246  -0.33593
   D43       -0.00712   0.00089   0.00299   0.00000   0.00286  -0.00426
   D44       -2.63143  -0.00659  -0.03362   0.00000  -0.03337  -2.66480
   D45        0.01993  -0.00045  -0.00107   0.00000  -0.00109   0.01884
   D46        2.98589   0.00564   0.03163   0.00000   0.03119   3.01708
   D47       -0.02735   0.00009  -0.00062   0.00000  -0.00048  -0.02783
   D48        2.85727   0.00671   0.03710   0.00000   0.03725   2.89453
   D49       -2.98775  -0.00524  -0.03104   0.00000  -0.03127  -3.01902
   D50       -0.10313   0.00137   0.00668   0.00000   0.00646  -0.09667
         Item               Value     Threshold  Converged?
 Maximum Force            0.114974     0.000450     NO 
 RMS     Force            0.020536     0.000300     NO 
 Maximum Displacement     0.771332     0.001800     NO 
 RMS     Displacement     0.122090     0.001200     NO 
 Predicted change in Energy=-1.036399D-01
 GradGradGradGradGradGradGradGradGradGradGradGradGradGradGradGradGradGrad

                          Input orientation:                          
 ---------------------------------------------------------------------
 Center     Atomic      Atomic             Coordinates (Angstroms)
 Number     Number       Type             X           Y           Z
 ---------------------------------------------------------------------
      1          6           0       -4.160499   -1.349191   -0.267575
      2          6           0       -2.861708   -0.991409   -0.669039
      3          6           0       -2.016206   -2.047997   -0.645996
      4          6           0       -4.354579   -2.634560    0.067239
      5         16           0       -2.882945   -3.477906   -0.114317
      6          1           0       -5.274576   -3.094575    0.393335
      7          6           0       -0.623999   -2.140880   -0.995339
      8         16           0        0.499897   -3.105306   -0.044452
      9          6           0        1.810876   -2.683499   -1.078518
     10          6           0        1.377157   -1.851273   -2.100317
     11          6           0       -0.005672   -1.561770   -2.060122
     12          1           0       -0.546005   -1.051508   -2.845537
     13         16           0        2.466309   -1.925384   -3.437600
     14          6           0        3.484585   -3.059452   -2.607103
     15          6           0        3.008414   -3.385976   -1.381914
     16          1           0        4.316406   -3.535937   -3.103616
     17          1           0        3.382916   -4.232484   -0.823792
     18          1           0       -2.694259    0.035904   -1.020211
     19          8           0       -5.315084   -0.471966   -0.413352
     20          1           0       -5.125027    0.479169   -0.723775
 ---------------------------------------------------------------------
                    Distance matrix (angstroms):
                    1          2          3          4          5
     1  C    0.000000
     2  C    1.405716   0.000000
     3  C    2.286815   1.353434   0.000000
     4  C    1.342365   2.338956   2.514111   0.000000
     5  S    2.487380   2.547712   1.754583   1.705843   0.000000
     6  H    2.173554   3.372518   3.576662   1.079049   2.474783
     7  C    3.696382   2.536749   1.438369   3.910245   2.768876
     8  S    4.985280   4.019833   2.794733   4.878526   3.404018
     9  C    6.172141   4.986370   3.903523   6.271203   4.857234
    10  C    5.854627   4.555865   3.697115   6.177754   4.973792
    11  C    4.530010   3.227594   2.505676   4.958784   3.966917
    12  H    4.449614   3.178558   2.827093   5.049312   4.336849
    13  S    7.368557   6.076594   5.282141   7.701385   6.486066
    14  C    8.175921   6.950419   5.926861   8.293680   6.850878
    15  C    7.535486   6.379692   5.251530   7.541773   6.026887
    16  H    9.202331   7.995443   6.953836   9.276464   7.795507
    17  H    8.094805   7.037318   5.827016   7.950857   6.350887
    18  H    2.152860   1.098514   2.223158   3.327250   3.633608
    19  O    1.457340   2.520764   3.663413   2.414612   3.878194
    20  H    2.116916   2.699668   4.007166   3.303726   4.588770
                    6          7          8          9         10
     6  H    0.000000
     7  C    4.946293   0.000000
     8  S    5.791055   1.759957   0.000000
     9  C    7.248376   2.495991   1.722172   0.000000
    10  C    7.211772   2.304230   2.562960   1.387367   0.000000
    11  C    6.010847   1.360683   2.588634   2.349823   1.413381
    12  H    6.084718   2.148499   3.627406   3.367587   2.212133
    13  S    8.715754   3.944753   4.095417   2.563123   1.726287
    14  C    9.258874   4.507995   3.934163   2.297654   2.481487
    15  C    8.476104   3.859291   2.856613   1.421133   2.352108
    16  H   10.218141   5.549650   4.910159   3.332469   3.533254
    17  H    8.816371   4.523230   3.192131   2.221610   3.364930
    18  H    4.296050   3.004161   4.584968   5.262584   4.615679
    19  O    2.744169   5.013009   6.394104   7.490836   7.038070
    20  H    3.747259   5.215137   6.704454   7.631190   7.043027
                   11         12         13         14         15
    11  C    0.000000
    12  H    1.081297   0.000000
    13  S    2.853130   3.191901   0.000000
    14  C    3.837204   4.509362   1.735719   0.000000
    15  C    3.587814   4.497313   2.579351   1.354417   0.000000
    16  H    4.864830   5.466446   2.475537   1.079578   2.167392
    17  H    4.488180   5.444491   3.604840   2.136946   1.080892
    18  H    3.295827   3.021469   6.026763   7.090667   6.660373
    19  O    5.664748   5.384747   8.473994   9.430896   8.871876
    20  H    5.670894   5.273735   8.412793   9.497061   9.029139
                   16         17         18         19         20
    16  H    0.000000
    17  H    2.560113   0.000000
    18  H    8.139290   7.428982   0.000000
    19  O   10.459017   9.484997   2.737688   0.000000
    20  H   10.532111   9.725984   2.488572   1.018402   0.000000
 Stoichiometry    C10H6OS3
 Framework group  C1[X(C10H6OS3)]
 Deg. of freedom    54
 Full point group                 C1      NOp   1
 Largest Abelian subgroup         C1      NOp   1
 Largest concise Abelian subgroup C1      NOp   1
                         Standard orientation:                         
 ---------------------------------------------------------------------
 Center     Atomic      Atomic             Coordinates (Angstroms)
 Number     Number       Type             X           Y           Z
 ---------------------------------------------------------------------
      1          6           0        3.742686    0.574504   -0.159037
      2          6           0        2.432016    0.955899   -0.494776
      3          6           0        1.519985    0.041149   -0.090778
      4          6           0        3.883318   -0.595579    0.483670
      5         16           0        2.340663   -1.288380    0.707598
      6          1           0        4.801151   -1.049607    0.823944
      7          6           0        0.086060    0.035672   -0.203625
      8         16           0       -0.799211   -1.433105   -0.599147
      9          6           0       -2.305140   -0.600337   -0.531687
     10          6           0       -2.109529    0.734837   -0.209457
     11          6           0       -0.755722    1.086337   -0.006231
[...]
 Framework group  C1[X(C10H6OS3)]
 Deg. of freedom    54
 Full point group                 C1      NOp   1
 Largest Abelian subgroup         C1      NOp   1
 Largest concise Abelian subgroup C1      NOp   1
                         Standard orientation:                         
 ---------------------------------------------------------------------
 Center     Atomic      Atomic             Coordinates (Angstroms)
 Number     Number       Type             X           Y           Z
 ---------------------------------------------------------------------
      1          6           0        3.745743    0.736975   -0.193033
      2          6           0        2.361591    1.021708   -0.373521
      3          6           0        1.555754   -0.008756    0.024820
      4          6           0        3.973262   -0.500988    0.327075
      5         16           0        2.495083   -1.333495    0.625350
      6          1           0        4.925569   -0.957525    0.544565
      7          6           0        0.099921   -0.036772    0.005325
      8         16           0       -0.766579   -1.483538   -0.471928
      9          6           0       -2.285840   -0.684418   -0.253628
     10          6           0       -2.102357    0.624960    0.146545
     11          6           0       -0.739926    0.998110    0.302948
     12          1           0       -0.388272    1.961795    0.644132
     13         16           0       -3.623870    1.421078    0.366502
     14          6           0       -4.474771   -0.023612   -0.087843
     15          6           0       -3.652202   -1.062851   -0.389722
     16          1           0       -5.554331   -0.015640   -0.104957
     17          1           0       -4.003427   -2.039155   -0.692239
     18          1           0        1.976725    1.936157   -0.808481
     19          8           0        4.760077    1.583772   -0.510080
     20          1           0        4.401902    2.393332   -0.874989
 ---------------------------------------------------------------------
 Rotational constants (GHZ):           1.4592880           0.2394815           0.2123180

 **********************************************************************

            Population analysis using the SCF Density.

 **********************************************************************

 Orbital symmetries:
       Occupied  (A) (A) (A) (A) (A) (A) (A) (A) (A) (A) (A) (A)
                 (A) (A) (A) (A) (A) (A) (A) (A) (A) (A) (A) (A)
                 (A) (A) (A) (A) (A) (A) (A) (A) (A) (A) (A) (A)
                 (A) (A) (A) (A) (A) (A) (A) (A) (A) (A) (A) (A)
                 (A) (A) (A) (A) (A) (A) (A) (A) (A) (A) (A) (A)
                 (A)
       Virtual   (A) (A) (A) (A) (A) (A) (A) (A) (A) (A) (A) (A)
                 (A) (A) (A) (A) (A) (A) (A) (A) (A) (A) (A) (A)
                 (A) (A) (A) (A) (A) (A) (A) (A) (A) (A) (A) (A)
                 (A) (A) (A) (A) (A) (A) (A) (A) (A) (A) (A) (A)
                 (A) (A) (A) (A) (A) (A) (A) (A) (A) (A) (A) (A)
                 (A) (A) (A) (A) (A) (A) (A) (A) (A) (A) (A) (A)
                 (A) (A) (A) (A) (A) (A) (A) (A) (A) (A) (A) (A)
                 (A) (A) (A) (A) (A) (A) (A) (A) (A) (A) (A) (A)
                 (A) (A) (A) (A) (A) (A) (A) (A) (A) (A) (A) (A)
                 (A) (A) (A) (A) (A) (A) (A) (A) (A) (A) (A) (A)
                 (A) (A) (A) (A) (A) (A) (A) (A) (A) (A) (A) (A)
                 (A) (A) (A) (A) (A) (A) (A) (A) (A) (A) (A) (A)
                 (A) (A) (A) (A) (A) (A) (A) (A) (A) (A) (A) (A)
                 (A) (A) (A) (A) (A) (A) (A) (A) (A) (A) (A) (A)
                 (A) (A) (A) (A) (A) (A) (A) (A) (A) (A) (A) (A)
                 (A) (A) (A) (A) (A) (A) (A) (A) (A) (A) (A) (A)
                 (A) (A) (A) (A) (A) (A) (A) (A) (A) (A) (A) (A)
                 (A) (A) (A) (A) (A) (A) (A) (A) (A) (A) (A) (A)
                 (A) (A) (A) (A) (A) (A) (A) (A) (A) (A) (A) (A)
                 (A) (A) (A) (A) (A) (A) (A) (A) (A) (A) (A) (A)
                 (A) (A) (A) (A) (A) (A) (A) (A) (A) (A) (A) (A)
                 (A) (A) (A) (A) (A) (A) (A) (A) (A) (A) (A) (A)
                 (A) (A) (A) (A) (A) (A) (A) (A) (A) (A) (A) (A)
                 (A) (A) (A) (A) (A) (A) (A) (A) (A) (A) (A) (A)
                 (A) (A) (A) (A) (A) (A) (A) (A) (A) (A) (A) (A)
                 (A) (A) (A) (A) (A)
 The electronic state is 1-A.
 Alpha  occ. eigenvalues --  -89.05483 -89.05426 -89.05246 -19.28848 -10.35849
 Alpha  occ. eigenvalues --  -10.34221 -10.34049 -10.32821 -10.32759 -10.32663
 Alpha  occ. eigenvalues --  -10.30969 -10.30843 -10.30843 -10.30291  -8.09528
 Alpha  occ. eigenvalues --   -8.09470  -8.09308  -6.04384  -6.04320  -6.04147
 Alpha  occ. eigenvalues --   -6.04011  -6.03946  -6.03764  -6.03571  -6.03533
 Alpha  occ. eigenvalues --   -6.03396  -1.17923  -1.02660  -0.99927  -0.95668
 Alpha  occ. eigenvalues --   -0.87650  -0.86209  -0.84294  -0.81423  -0.80360
 Alpha  occ. eigenvalues --   -0.72468  -0.68097  -0.66925  -0.64184  -0.63797
 Alpha  occ. eigenvalues --   -0.62842  -0.59008  -0.57119  -0.52489  -0.52391
 Alpha  occ. eigenvalues --   -0.52029  -0.50988  -0.49861  -0.48375  -0.47729
 Alpha  occ. eigenvalues --   -0.46137  -0.45762  -0.45060  -0.43759  -0.42629
 Alpha  occ. eigenvalues --   -0.42311  -0.37378  -0.34237  -0.31740  -0.31076
 Alpha  occ. eigenvalues --   -0.28104
 Alpha virt. eigenvalues --    0.00419   0.04563   0.05152   0.05661   0.06106
 Alpha virt. eigenvalues --    0.06846   0.07022   0.07516   0.07790   0.08871
 Alpha virt. eigenvalues --    0.09130   0.09544   0.09688   0.10274   0.10327
 Alpha virt. eigenvalues --    0.10790   0.11464   0.11707   0.12603   0.12924
 Alpha virt. eigenvalues --    0.13581   0.13819   0.14335   0.14916   0.15026
 Alpha virt. eigenvalues --    0.15522   0.15702   0.16105   0.17265   0.17508
 Alpha virt. eigenvalues --    0.18268   0.18539   0.18957   0.19384   0.19705
 Alpha virt. eigenvalues --    0.19982   0.20131   0.20843   0.21175   0.21657
 Alpha virt. eigenvalues --    0.22386   0.22707   0.22847   0.23407   0.23589
 Alpha virt. eigenvalues --    0.24107   0.24247   0.24639   0.25272   0.25472
 Alpha virt. eigenvalues --    0.26117   0.26630   0.27182   0.27553   0.27585
 Alpha virt. eigenvalues --    0.28380   0.28862   0.29063   0.29287   0.29914
 Alpha virt. eigenvalues --    0.31120   0.31498   0.32086   0.32341   0.32849
 Alpha virt. eigenvalues --    0.33434   0.33896   0.34589   0.36206   0.37249
 Alpha virt. eigenvalues --    0.37591   0.38718   0.39033   0.40015   0.40230
 Alpha virt. eigenvalues --    0.40415   0.41334   0.41779   0.42329   0.44182
 Alpha virt. eigenvalues --    0.44760   0.45437   0.47466   0.47585   0.49351
 Alpha virt. eigenvalues --    0.50741   0.51741   0.51994   0.53928   0.56177
 Alpha virt. eigenvalues --    0.58234   0.58687   0.60823   0.61532   0.62460
 Alpha virt. eigenvalues --    0.63575   0.63760   0.64278   0.65178   0.65691
 Alpha virt. eigenvalues --    0.66724   0.67027   0.68319   0.68772   0.70276
 Alpha virt. eigenvalues --    0.70698   0.71181   0.72146   0.74897   0.75281
 Alpha virt. eigenvalues --    0.77836   0.78235   0.78728   0.79649   0.80253
 Alpha virt. eigenvalues --    0.80813   0.82183   0.82632   0.83480   0.84422
 Alpha virt. eigenvalues --    0.85329   0.86272   0.87141   0.87529   0.88104
 Alpha virt. eigenvalues --    0.89246   0.90046   0.90665   0.91587   0.92444
 Alpha virt. eigenvalues --    0.92896   0.93774   0.95132   0.95733   0.96428
 Alpha virt. eigenvalues --    0.97094   0.97284   0.97751   0.99679   1.02128
 Alpha virt. eigenvalues --    1.03270   1.04795   1.05384   1.05870   1.07401
 Alpha virt. eigenvalues --    1.09308   1.11355   1.12382   1.12797   1.13752
 Alpha virt. eigenvalues --    1.13998   1.15474   1.16610   1.17220   1.20281
 Alpha virt. eigenvalues --    1.21096   1.22076   1.23488   1.26055   1.26909
 Alpha virt. eigenvalues --    1.28904   1.30901   1.35479   1.35894   1.42734
 Alpha virt. eigenvalues --    1.43742   1.45151   1.47266   1.48577   1.50735
 Alpha virt. eigenvalues --    1.52133   1.61006   1.61265   1.63758   1.64407
 Alpha virt. eigenvalues --    1.65831   1.66936   1.67914   1.69096   1.69720
 Alpha virt. eigenvalues --    1.70545   1.73030   1.74676   1.76912   1.77907
 Alpha virt. eigenvalues --    1.80398   1.81224   1.82314   1.83513   1.84327
 Alpha virt. eigenvalues --    1.84916   1.87267   1.90275   1.91009   1.93526
 Alpha virt. eigenvalues --    1.94407   1.95270   1.98238   1.99299   2.01898
 Alpha virt. eigenvalues --    2.02827   2.04690   2.05953   2.06720   2.08494
 Alpha virt. eigenvalues --    2.09852   2.10203   2.11608   2.12791   2.15196
 Alpha virt. eigenvalues --    2.15840   2.16302   2.17480   2.18451   2.20747
 Alpha virt. eigenvalues --    2.21234   2.24910   2.26161   2.26697   2.29210
 Alpha virt. eigenvalues --    2.32263   2.36628   2.40455   2.44059   2.49585
 Alpha virt. eigenvalues --    2.51094   2.51400   2.59472   2.62130   2.67338
 Alpha virt. eigenvalues --    2.71305   2.74309   2.77692   2.77951   2.79305
 Alpha virt. eigenvalues --    2.80788   2.81849   2.82681   2.82763   2.84720
 Alpha virt. eigenvalues --    2.87204   2.89368   2.92541   2.95659   2.98296
 Alpha virt. eigenvalues --    3.02307   3.04987   3.06147   3.08831   3.12012
 Alpha virt. eigenvalues --    3.16790   3.17685   3.22360   3.24433   3.27052
 Alpha virt. eigenvalues --    3.27794   3.30205   3.35178   3.40436   3.40979
 Alpha virt. eigenvalues --    3.45036   3.45876   3.53960   3.56180   3.58442
 Alpha virt. eigenvalues --    3.66799   3.72589   3.75671   3.93235   3.97742
 Alpha virt. eigenvalues --    4.06926   4.19207   4.21816   4.31361   4.46167
 Alpha virt. eigenvalues --    4.65098   5.11300   5.53908   5.86389   8.08838
 Alpha virt. eigenvalues --    8.10742   8.11688  17.41743  17.43047  17.43928
 Alpha virt. eigenvalues --   17.59126  17.60354  17.64938  17.65751  17.68615
 Alpha virt. eigenvalues --   17.70862  23.60554  23.76859  23.89325  23.93964
 Alpha virt. eigenvalues --   23.98083  24.17070  24.23904  24.26241  24.26522
 Alpha virt. eigenvalues --   24.29669  50.07771 189.33865 189.35716 189.36876
          Condensed to atoms (all electrons):
               1          2          3          4          5          6
     1  C    8.169168  -1.944845  -0.064087  -0.863701   0.956743   0.043677
     2  C   -1.944845  12.508926  -1.956631   0.868507  -2.687149  -0.039709
     3  C   -0.064087  -1.956631   8.923503  -0.611013   0.330523   0.028552
     4  C   -0.863701   0.868507  -0.611013   7.009039  -0.733280   0.380486
     5  S    0.956743  -2.687149   0.330523  -0.733280  17.606878  -0.031166
     6  H    0.043677  -0.039709   0.028552   0.380486  -0.031166   0.440110
     7  C    0.114531  -0.866755  -0.342762  -0.152052   0.692596  -0.002692
     8  S   -0.090415   0.513900   0.361184   0.069820  -0.138593  -0.000545
     9  C    0.054209  -0.049044  -0.652357  -0.000918   0.039509  -0.000024
    10  C    0.085612  -0.178093   0.235103  -0.004584   0.048961  -0.000154
    11  C    0.097580  -0.793862  -0.895108  -0.087984   0.318434  -0.000319
    12  H    0.002820   0.029762   0.003325   0.002055  -0.004732   0.000000
    13  S   -0.002548  -0.031385  -0.021481   0.001572   0.003696  -0.000002
    14  C    0.001328  -0.003866  -0.033471  -0.000234  -0.000674  -0.000000
    15  C    0.013304   0.023752   0.285754  -0.001112  -0.033561   0.000001
    16  H   -0.000001  -0.000002  -0.000090  -0.000000  -0.000003   0.000000
    17  H   -0.000008   0.000043  -0.000594   0.000007   0.000033   0.000000
    18  H   -0.033150   0.304442   0.081787  -0.052100   0.015869   0.000024
    19  O    0.188960   0.035580   0.023669  -0.246824   0.015066  -0.004926
    20  H    0.021413  -0.097013  -0.003794   0.098332  -0.007299   0.000247
               7          8          9         10         11         12
     1  C    0.114531  -0.090415   0.054209   0.085612   0.097580   0.002820
     2  C   -0.866755   0.513900  -0.049044  -0.178093  -0.793862   0.029762
     3  C   -0.342762   0.361184  -0.652357   0.235103  -0.895108   0.003325
     4  C   -0.152052   0.069820  -0.000918  -0.004584  -0.087984   0.002055
     5  S    0.692596  -0.138593   0.039509   0.048961   0.318434  -0.004732
     6  H   -0.002692  -0.000545  -0.000024  -0.000154  -0.000319   0.000000
     7  C    9.920533  -0.182463  -0.926136  -1.653019   0.069520  -0.016048
     8  S   -0.182463  18.063980  -0.698718  -0.247579  -1.235654   0.009369
     9  C   -0.926136  -0.698718  14.557381  -4.971406   0.714708  -0.052108
    10  C   -1.653019  -0.247579  -4.971406  12.187738  -0.000440   0.012776
    11  C    0.069520  -1.235654   0.714708  -0.000440   8.791579   0.349095
    12  H   -0.016048   0.009369  -0.052108   0.012776   0.349095   0.482001
    13  S   -0.906363   0.124812   0.455373  -0.650508  -0.231473   0.010382
    14  C   -0.184098  -0.037797   0.459476  -0.707239   0.067015  -0.001312
    15  C    0.098025  -0.000469  -3.374904   1.763934  -1.140845   0.011525
    16  H    0.005028  -0.000759   0.022365   0.025908   0.000652  -0.000003
    17  H   -0.007041   0.012856   0.017036  -0.050155   0.002345   0.000002
    18  H    0.000964  -0.006732  -0.000372   0.002431   0.044344  -0.000057
    19  O    0.003963   0.000078  -0.000801  -0.000971   0.001029  -0.000053
    20  H    0.000651   0.000049  -0.000016  -0.000327  -0.000066   0.000007
              13         14         15         16         17         18
     1  C   -0.002548   0.001328   0.013304  -0.000001  -0.000008  -0.033150
     2  C   -0.031385  -0.003866   0.023752  -0.000002   0.000043   0.304442
     3  C   -0.021481  -0.033471   0.285754  -0.000090  -0.000594   0.081787
     4  C    0.001572  -0.000234  -0.001112  -0.000000   0.000007  -0.052100
     5  S    0.003696  -0.000674  -0.033561  -0.000003   0.000033   0.015869
     6  H   -0.000002  -0.000000   0.000001   0.000000   0.000000   0.000024
     7  C   -0.906363  -0.184098   0.098025   0.005028  -0.007041   0.000964
     8  S    0.124812  -0.037797  -0.000469  -0.000759   0.012856  -0.006732
     9  C    0.455373   0.459476  -3.374904   0.022365   0.017036  -0.000372
    10  C   -0.650508  -0.707239   1.763934   0.025908  -0.050155   0.002431
    11  C   -0.231473   0.067015  -1.140845   0.000652   0.002345   0.044344
    12  H    0.010382  -0.001312   0.011525  -0.000003   0.000002  -0.000057
    13  S   17.532607   0.404797  -0.210154  -0.042648   0.008124   0.000478
    14  C    0.404797   5.597430   0.163124   0.388850   0.022709  -0.000001
    15  C   -0.210154   0.163124   8.450828  -0.031369   0.354836  -0.000514
    16  H   -0.042648   0.388850  -0.031369   0.440929  -0.003550   0.000000
    17  H    0.008124   0.022709   0.354836  -0.003550   0.479740   0.000000
    18  H    0.000478  -0.000001  -0.000514   0.000000   0.000000   0.498736
    19  O   -0.000003  -0.000002  -0.000103   0.000000   0.000000  -0.003980
    20  H   -0.000009  -0.000000   0.000001  -0.000000  -0.000000   0.002110
              19         20
     1  C    0.188960   0.021413
     2  C    0.035580  -0.097013
     3  C    0.023669  -0.003794
     4  C   -0.246824   0.098332
     5  S    0.015066  -0.007299
     6  H   -0.004926   0.000247
     7  C    0.003963   0.000651
     8  S    0.000078   0.000049
     9  C   -0.000801  -0.000016
    10  C   -0.000971  -0.000327
    11  C    0.001029  -0.000066
    12  H   -0.000053   0.000007
    13  S   -0.000003  -0.000009
    14  C   -0.000002  -0.000000
    15  C   -0.000103   0.000001
    16  H    0.000000  -0.000000
    17  H    0.000000  -0.000000
    18  H   -0.003980   0.002110
    19  O    7.993989   0.266270
    20  H    0.266270   0.455275
 Mulliken charges:
               1
     1  C   -0.750592
     2  C    0.363441
     3  C    0.307987
     4  C    0.323982
     5  S   -0.391850
     6  H    0.186439
     7  C    0.333620
     8  S   -0.516325
     9  C    0.406748
    10  C    0.102011
    11  C   -0.070551
    12  H    0.161195
    13  S   -0.445271
    14  C   -0.136037
    15  C   -0.372053
    16  H    0.194691
    17  H    0.163617
    18  H    0.145721
    19  O   -0.270942
    20  H    0.264170
 Sum of Mulliken charges =  -0.00000
 Mulliken charges with hydrogens summed into heavy atoms:
               1
     1  C   -0.750592
     2  C    0.509161
     3  C    0.307987
     4  C    0.510421
     5  S   -0.391850
     7  C    0.333620
     8  S   -0.516325
     9  C    0.406748
    10  C    0.102011
    11  C    0.090644
    13  S   -0.445271
    14  C    0.058655
    15  C   -0.208436
    19  O   -0.006772
 Electronic spatial extent (au):  <R**2>=           4743.9444
 Charge=             -0.0000 electrons
 Dipole moment (field-independent basis, Debye):
    X=             -1.2520    Y=              1.3013    Z=             -0.6261  Tot=              1.9113
 Quadrupole moment (field-independent basis, Debye-Ang):
   XX=            -96.6128   YY=            -92.4157   ZZ=           -105.8821
   XY=              5.4473   XZ=              0.0072   YZ=             -1.7133
 Traceless Quadrupole moment (field-independent basis, Debye-Ang):
   XX=              1.6907   YY=              5.8878   ZZ=             -7.5785
   XY=              5.4473   XZ=              0.0072   YZ=             -1.7133
 Octapole moment (field-independent basis, Debye-Ang**2):
  XXX=            -81.0913  YYY=             24.2784  ZZZ=             -2.6726  XYY=             24.3103
  XXY=            -18.3605  XXZ=             -4.8343  XZZ=             12.2078  YZZ=              4.5820
  YYZ=             -8.8972  XYZ=            -19.6903
 Hexadecapole moment (field-independent basis, Debye-Ang**3):
 XXXX=          -5164.1468 YYYY=           -811.8010 ZZZZ=           -231.6806 XXXY=            -30.7850
 XXXZ=             43.1873 YYYX=            120.6077 YYYZ=            -18.3314 ZZZX=            -18.0225
 ZZZY=             -8.4080 XXYY=           -932.3718 XXZZ=           -975.2001 YYZZ=           -178.2610
 XXYZ=            -38.2622 YYXZ=            -25.1295 ZZXY=             20.5190
 N-N= 1.110752533713D+03 E-N=-6.132777750170D+03  KE= 1.651141084807D+03
 Unable to Open any file for archive entry.
 1\1\GINC-CX3-12-28\FOpt\RwB97XD\6-311+G(d,p)\C10H6O1S3\NS5018\27-Oct-2
 021\0\\# opt=modredundant wb97xd/6-311+g(d,p)\\pg2T_TT_140.pdb\\0,1\C,
 -4.2016084744,-1.2353555538,-0.2905429891\C,-2.8681884952,-1.054436386
 2,-0.7582878269\C,-2.1274254064,-2.2020670375,-0.6941039005\C,-4.45275
 73906,-2.5063219377,0.1294579666\S,-3.0665285689,-3.5111163185,-0.0597
 669382\H,-5.3727422386,-2.894100739,0.5367310849\C,-0.7449307074,-2.37
 40544152,-1.1180668109\S,0.3719142091,-3.3423359058,-0.1763586872\C,1.
 6541446091,-3.0018519885,-1.2873757994\C,1.220112815,-2.1732212335,-2.
 3038714847\C,-0.1529483432,-1.8171187722,-2.215464696\H,-0.6914567282,
 -1.2109036806,-2.9304946727\S,2.5042536185,-1.8363644966,-3.4150393514
 \C,3.5989475939,-2.814823444,-2.4866790678\C,3.0250560956,-3.374630226
 2,-1.3889387278\H,4.6220029675,-2.9178381534,-2.81615339\H,3.552270191
 6,-4.0137643346,-0.6949660115\H,-2.4621304171,-0.1095521044,-1.0986393
 797\O,-5.1457897432,-0.259390001,-0.2408586839\H,-4.7761955872,0.56324
 67288,-0.5625806337\\Version=ES64L-G16RevC.01\State=1-A\HF=-1654.41162
 12\RMSD=5.757e-09\RMSF=1.764e-05\Dipole=0.4896689,0.5000005,-0.2750714
 \Quadrupole=1.3125639,2.7490178,-4.0615817,-4.3929794,0.3842443,-3.454
 73\PG=C01 [X(C10H6O1S3)]\\@
 The archive entry for this job was punched.


 NOT WHAT WE DID SHALL BE THE TEST
 WHEN ACT AND WILL ARE DONE,
 BUT WHAT OUR LORD INFERS WE WOULD-
 HAD WE DIVINER BEEN.
           EMILY DICKINSON  POEMS NO. CLXXV
 Job cpu time:       0 days  3 hours  3 minutes  5.2 seconds.
 Elapsed time:       0 days  0 hours 23 minutes  2.7 seconds.
 File lengths (MBytes):  RWF=     86 Int=      0 D2E=      0 Chk=     11 Scr=      1
 Normal termination of Gaussian 16 at Wed Oct 27 01:12:36 2021.
