 Entering Gaussian System, Link 0=g16
 Input=pg2T_TT_-95.gjf
 Output=pg2T_TT_-95.log
 Initial command:
 /apps/gaussian/g16-c01-avx/g16/l1.exe "/tmp/pbs.4766238[80].pbs/Gau-3830898.inp" -scrdir="/tmp/pbs.4766238[80].pbs/"
 Entering Link 1 = /apps/gaussian/g16-c01-avx/g16/l1.exe PID=   3830899.
  
 Copyright (c) 1988-2019, Gaussian, Inc.  All Rights Reserved.
  
 This is part of the Gaussian(R) 16 program.  It is based on
 the Gaussian(R) 09 system (copyright 2009, Gaussian, Inc.),
 the Gaussian(R) 03 system (copyright 2003, Gaussian, Inc.),
 the Gaussian(R) 98 system (copyright 1998, Gaussian, Inc.),
 the Gaussian(R) 94 system (copyright 1995, Gaussian, Inc.),
 the Gaussian 92(TM) system (copyright 1992, Gaussian, Inc.),
 the Gaussian 90(TM) system (copyright 1990, Gaussian, Inc.),
 the Gaussian 88(TM) system (copyright 1988, Gaussian, Inc.),
 the Gaussian 86(TM) system (copyright 1986, Carnegie Mellon
 University), and the Gaussian 82(TM) system (copyright 1983,
 Carnegie Mellon University). Gaussian is a federally registered
 trademark of Gaussian, Inc.
  
 This software contains proprietary and confidential information,
 including trade secrets, belonging to Gaussian, Inc.
  
 This software is provided under written license and may be
 used, copied, transmitted, or stored only in accord with that
 written license.
  
 The following legend is applicable only to US Government
 contracts under FAR:
  
                    RESTRICTED RIGHTS LEGEND
  
 Use, reproduction and disclosure by the US Government is
 subject to restrictions as set forth in subparagraphs (a)
 and (c) of the Commercial Computer Software - Restricted
 Rights clause in FAR 52.227-19.
  
 Gaussian, Inc.
 340 Quinnipiac St., Bldg. 40, Wallingford CT 06492
  
  
 ---------------------------------------------------------------
 Warning -- This program may not be used in any manner that
 competes with the business of Gaussian, Inc. or will provide
 assistance to any competitor of Gaussian, Inc.  The licensee
 of this program is prohibited from giving any competitor of
 Gaussian, Inc. access to this program.  By using this program,
 the user acknowledges that Gaussian, Inc. is engaged in the
 business of creating and licensing software in the field of
 computational chemistry and represents and warrants to the
 licensee that it is not a competitor of Gaussian, Inc. and that
 it will not use this program in any manner prohibited above.
 ---------------------------------------------------------------
  

 Cite this work as:
 Gaussian 16, Revision C.01,
 M. J. Frisch, G. W. Trucks, H. B. Schlegel, G. E. Scuseria, 
 M. A. Robb, J. R. Cheeseman, G. Scalmani, V. Barone, 
 G. A. Petersson, H. Nakatsuji, X. Li, M. Caricato, A. V. Marenich, 
 J. Bloino, B. G. Janesko, R. Gomperts, B. Mennucci, H. P. Hratchian, 
 J. V. Ortiz, A. F. Izmaylov, J. L. Sonnenberg, D. Williams-Young, 
 F. Ding, F. Lipparini, F. Egidi, J. Goings, B. Peng, A. Petrone, 
 T. Henderson, D. Ranasinghe, V. G. Zakrzewski, J. Gao, N. Rega, 
 G. Zheng, W. Liang, M. Hada, M. Ehara, K. Toyota, R. Fukuda, 
 J. Hasegawa, M. Ishida, T. Nakajima, Y. Honda, O. Kitao, H. Nakai, 
 T. Vreven, K. Throssell, J. A. Montgomery, Jr., J. E. Peralta, 
 F. Ogliaro, M. J. Bearpark, J. J. Heyd, E. N. Brothers, K. N. Kudin, 
 V. N. Staroverov, T. A. Keith, R. Kobayashi, J. Normand, 
 K. Raghavachari, A. P. Rendell, J. C. Burant, S. S. Iyengar, 
 J. Tomasi, M. Cossi, J. M. Millam, M. Klene, C. Adamo, R. Cammi, 
 J. W. Ochterski, R. L. Martin, K. Morokuma, O. Farkas, 
 J. B. Foresman, and D. J. Fox, Gaussian, Inc., Wallingford CT, 2019.
 
 ******************************************
 Gaussian 16:  ES64L-G16RevC.01  3-Jul-2019
                26-Oct-2021 
 ******************************************
 %mem=10GB
 %nprocshared=8
 Will use up to    8 processors via shared memory.
 --------------------------------------
 # opt=modredundant wb97xd/6-311+g(d,p)
 --------------------------------------
 1/18=120,19=15,26=3,38=1/1,3;
 2/9=110,12=2,17=6,18=5,40=1/2;
 3/5=4,6=6,7=111,11=2,25=1,30=1,71=1,74=-58/1,2,3;
 4//1;
 5/5=2,38=5/2;
 6/7=2,8=2,9=2,10=2,28=1/1;
 7//1,2,3,16;
 1/18=20,19=15,26=3/3(2);
 2/9=110/2;
 99//99;
 2/9=110/2;
 3/5=4,6=6,7=111,11=2,25=1,30=1,71=1,74=-58/1,2,3;
 4/5=5,16=3,69=1/1;
 5/5=2,38=5/2;
 7//1,2,3,16;
 1/18=20,19=15,26=3/3(-5);
 2/9=110/2;
 6/7=2,8=2,9=2,10=2,19=2,28=1/1;
 99/9=1/99;
 ---------------
 pg2T_TT_-95.pdb
 ---------------
 Symbolic Z-matrix:
 Charge =  0 Multiplicity = 1
 C                    -4.25     -1.36     -0.21 
 C                    -2.93     -0.95     -0.61 
 C                    -1.97     -2.05     -0.62 
 C                    -4.33     -2.76      0.1 
 S                    -2.8      -3.56     -0.11 
 H                    -5.23     -3.27      0.41 
 C                    -0.56     -2.13     -0.97 
 S                    -0.015    -2.624    -2.602 
 C                     1.656    -2.455    -2.187 
 C                     1.842    -2.       -0.832 
 C                     0.602    -1.798    -0.143 
 H                     0.536    -1.308     0.816 
 S                     3.34     -1.16     -0.609 
 C                     3.773    -1.401    -2.303 
 C                     2.746    -2.105    -3.037 
 H                     4.619    -0.907    -2.76 
 H                     2.697    -2.107    -4.122 
 H                    -2.89      0.24     -0.97 
 O                    -5.6      -0.36     -0.4 
 H                    -5.76      0.85     -0.75 
 
 Add virtual bond connecting atoms H20        and O19        Dist= 2.40D+00.
 Add virtual bond connecting atoms O19        and C1         Dist= 3.20D+00.
 The following ModRedundant input section has been read:
 D       2       3       7       8 F                                           
 

 GradGradGradGradGradGradGradGradGradGradGradGradGradGradGradGradGradGrad
 Berny optimization.
 Initialization pass.
                           ----------------------------
                           !    Initial Parameters    !
                           ! (Angstroms and Degrees)  !
 --------------------------                            --------------------------
 ! Name  Definition              Value          Derivative Info.                !
 --------------------------------------------------------------------------------
 ! R1    R(1,2)                  1.4389         estimate D2E/DX2                !
 ! R2    R(1,4)                  1.4361         estimate D2E/DX2                !
 ! R3    R(1,19)                 1.6907         estimate D2E/DX2                !
 ! R4    R(2,3)                  1.46           estimate D2E/DX2                !
 ! R5    R(2,18)                 1.2439         estimate D2E/DX2                !
 ! R6    R(3,5)                  1.797          estimate D2E/DX2                !
 ! R7    R(3,7)                  1.455          estimate D2E/DX2                !
 ! R8    R(4,5)                  1.7393         estimate D2E/DX2                !
 ! R9    R(4,6)                  1.0799         estimate D2E/DX2                !
 ! R10   R(7,8)                  1.7901         estimate D2E/DX2                !
 ! R11   R(7,11)                 1.4644         estimate D2E/DX2                !
 ! R12   R(8,9)                  1.73           estimate D2E/DX2                !
 ! R13   R(9,10)                 1.4414         estimate D2E/DX2                !
 ! R14   R(9,15)                 1.4259         estimate D2E/DX2                !
 ! R15   R(10,11)                1.4329         estimate D2E/DX2                !
 ! R16   R(10,13)                1.7319         estimate D2E/DX2                !
 ! R17   R(11,12)                1.079          estimate D2E/DX2                !
 ! R18   R(13,14)                1.765          estimate D2E/DX2                !
 ! R19   R(14,15)                1.4454         estimate D2E/DX2                !
 ! R20   R(14,16)                1.081          estimate D2E/DX2                !
 ! R21   R(15,17)                1.0861         estimate D2E/DX2                !
 ! R22   R(19,20)                1.2697         estimate D2E/DX2                !
 ! A1    A(2,1,4)              112.8843         estimate D2E/DX2                !
 ! A2    A(2,1,19)             122.1887         estimate D2E/DX2                !
 ! A3    A(4,1,19)             123.8039         estimate D2E/DX2                !
 ! A4    A(1,2,3)              112.9799         estimate D2E/DX2                !
 ! A5    A(1,2,18)             112.491          estimate D2E/DX2                !
 ! A6    A(3,2,18)             134.2373         estimate D2E/DX2                !
 ! A7    A(2,3,5)              109.1138         estimate D2E/DX2                !
 ! A8    A(2,3,7)              132.8639         estimate D2E/DX2                !
 ! A9    A(5,3,7)              118.0132         estimate D2E/DX2                !
 ! A10   A(1,4,5)              111.9209         estimate D2E/DX2                !
 ! A11   A(1,4,6)              124.6643         estimate D2E/DX2                !
 ! A12   A(5,4,6)              123.4062         estimate D2E/DX2                !
 ! A13   A(3,5,4)               93.0997         estimate D2E/DX2                !
 ! A14   A(3,7,8)              121.9727         estimate D2E/DX2                !
 ! A15   A(3,7,11)             128.3643         estimate D2E/DX2                !
 ! A16   A(8,7,11)             109.624          estimate D2E/DX2                !
 ! A17   A(7,8,9)               92.7749         estimate D2E/DX2                !
 ! A18   A(8,9,10)             112.394          estimate D2E/DX2                !
 ! A19   A(8,9,15)             128.2679         estimate D2E/DX2                !
 ! A20   A(10,9,15)            112.5981         estimate D2E/DX2                !
 ! A21   A(9,10,11)            112.6349         estimate D2E/DX2                !
 ! A22   A(9,10,13)            112.6914         estimate D2E/DX2                !
 ! A23   A(11,10,13)           128.188          estimate D2E/DX2                !
 ! A24   A(7,11,10)            112.5308         estimate D2E/DX2                !
 ! A25   A(7,11,12)            123.8061         estimate D2E/DX2                !
 ! A26   A(10,11,12)           122.9805         estimate D2E/DX2                !
 ! A27   A(10,13,14)            91.2828         estimate D2E/DX2                !
 ! A28   A(13,14,15)           112.3085         estimate D2E/DX2                !
 ! A29   A(13,14,16)           122.3669         estimate D2E/DX2                !
 ! A30   A(15,14,16)           124.3304         estimate D2E/DX2                !
 ! A31   A(9,15,14)            111.1003         estimate D2E/DX2                !
 ! A32   A(9,15,17)            124.0959         estimate D2E/DX2                !
 ! A33   A(14,15,17)           122.7015         estimate D2E/DX2                !
 ! A34   A(1,19,20)            134.0455         estimate D2E/DX2                !
 ! D1    D(4,1,2,3)              0.3915         estimate D2E/DX2                !
 ! D2    D(4,1,2,18)           175.0898         estimate D2E/DX2                !
 ! D3    D(19,1,2,3)          -167.9154         estimate D2E/DX2                !
 ! D4    D(19,1,2,18)            6.7829         estimate D2E/DX2                !
 ! D5    D(2,1,4,5)             -0.3845         estimate D2E/DX2                !
 ! D6    D(2,1,4,6)           -179.3471         estimate D2E/DX2                !
 ! D7    D(19,1,4,5)           167.7032         estimate D2E/DX2                !
 ! D8    D(19,1,4,6)           -11.2593         estimate D2E/DX2                !
 ! D9    D(2,1,19,20)           -7.6334         estimate D2E/DX2                !
 ! D10   D(4,1,19,20)         -174.6479         estimate D2E/DX2                !
 ! D11   D(1,2,3,5)             -0.2224         estimate D2E/DX2                !
 ! D12   D(1,2,3,7)            178.6265         estimate D2E/DX2                !
 ! D13   D(18,2,3,5)          -173.3787         estimate D2E/DX2                !
 ! D14   D(18,2,3,7)             5.4701         estimate D2E/DX2                !
 ! D15   D(2,3,5,4)              0.0033         estimate D2E/DX2                !
 ! D16   D(7,3,5,4)           -179.041          estimate D2E/DX2                !
 ! D17   D(2,3,7,8)            -94.9943         Frozen                          !
 ! D18   D(2,3,7,11)            82.4875         estimate D2E/DX2                !
 ! D19   D(5,3,7,8)             83.7737         estimate D2E/DX2                !
 ! D20   D(5,3,7,11)           -98.7445         estimate D2E/DX2                !
 ! D21   D(1,4,5,3)              0.2153         estimate D2E/DX2                !
 ! D22   D(6,4,5,3)            179.1932         estimate D2E/DX2                !
 ! D23   D(3,7,8,9)            179.7759         estimate D2E/DX2                !
 ! D24   D(11,7,8,9)             1.8719         estimate D2E/DX2                !
 ! D25   D(3,7,11,10)         -179.8229         estimate D2E/DX2                !
 ! D26   D(3,7,11,12)           -9.0614         estimate D2E/DX2                !
 ! D27   D(8,7,11,10)           -2.0907         estimate D2E/DX2                !
 ! D28   D(8,7,11,12)          168.6708         estimate D2E/DX2                !
 ! D29   D(7,8,9,10)            -1.2126         estimate D2E/DX2                !
 ! D30   D(7,8,9,15)          -149.9054         estimate D2E/DX2                !
 ! D31   D(8,9,10,11)            0.1993         estimate D2E/DX2                !
 ! D32   D(8,9,10,13)         -154.0096         estimate D2E/DX2                !
 ! D33   D(15,9,10,11)         153.9742         estimate D2E/DX2                !
 ! D34   D(15,9,10,13)          -0.2346         estimate D2E/DX2                !
 ! D35   D(8,9,15,14)          149.748          estimate D2E/DX2                !
 ! D36   D(8,9,15,17)          -14.0975         estimate D2E/DX2                !
 ! D37   D(10,9,15,14)           1.1066         estimate D2E/DX2                !
 ! D38   D(10,9,15,17)        -162.7388         estimate D2E/DX2                !
 ! D39   D(9,10,11,7)            1.2551         estimate D2E/DX2                !
 ! D40   D(9,10,11,12)        -169.5945         estimate D2E/DX2                !
 ! D41   D(13,10,11,7)         150.5437         estimate D2E/DX2                !
 ! D42   D(13,10,11,12)        -20.3059         estimate D2E/DX2                !
 ! D43   D(9,10,13,14)          -0.5378         estimate D2E/DX2                !
 ! D44   D(11,10,13,14)       -149.8124         estimate D2E/DX2                !
 ! D45   D(10,13,14,15)          1.1735         estimate D2E/DX2                !
 ! D46   D(10,13,14,16)        170.2168         estimate D2E/DX2                !
 ! D47   D(13,14,15,9)          -1.5065         estimate D2E/DX2                !
 ! D48   D(13,14,15,17)        162.603          estimate D2E/DX2                !
 ! D49   D(16,14,15,9)        -170.2967         estimate D2E/DX2                !
 ! D50   D(16,14,15,17)         -6.1872         estimate D2E/DX2                !
 --------------------------------------------------------------------------------
 Trust Radius=3.00D-01 FncErr=1.00D-07 GrdErr=1.00D-06 EigMax=2.50D+02 EigMin=1.00D-04
 Number of steps in this run=    116 maximum allowed number of steps=    120.
 GradGradGradGradGradGradGradGradGradGradGradGradGradGradGradGradGradGrad

                          Input orientation:                          
 ---------------------------------------------------------------------
 Center     Atomic      Atomic             Coordinates (Angstroms)
 Number     Number       Type             X           Y           Z
 ---------------------------------------------------------------------
      1          6           0       -4.250000   -1.360000   -0.210000
      2          6           0       -2.930000   -0.950000   -0.610000
      3          6           0       -1.970000   -2.050000   -0.620000
      4          6           0       -4.330000   -2.760000    0.100000
      5         16           0       -2.800000   -3.560000   -0.110000
      6          1           0       -5.230000   -3.270000    0.410000
      7          6           0       -0.560000   -2.130000   -0.970000
      8         16           0       -0.015000   -2.624000   -2.602000
      9          6           0        1.656000   -2.455000   -2.187000
     10          6           0        1.842000   -2.000000   -0.832000
     11          6           0        0.602000   -1.798000   -0.143000
     12          1           0        0.536000   -1.308000    0.816000
     13         16           0        3.340000   -1.160000   -0.609000
     14          6           0        3.773000   -1.401000   -2.303000
     15          6           0        2.746000   -2.105000   -3.037000
     16          1           0        4.619000   -0.907000   -2.760000
     17          1           0        2.697000   -2.107000   -4.122000
     18          1           0       -2.890000    0.240000   -0.970000
     19          8           0       -5.600000   -0.360000   -0.400000
     20          1           0       -5.760000    0.850000   -0.750000
 ---------------------------------------------------------------------
                    Distance matrix (angstroms):
                    1          2          3          4          5
     1  C    0.000000
     2  C    1.438923   0.000000
     3  C    2.417147   1.460034   0.000000
     4  C    1.436141   2.395871   2.567509   0.000000
     5  S    2.636759   2.660639   1.796970   1.739253   0.000000
     6  H    2.234480   3.422397   3.630000   1.079907   2.501879
     7  C    3.845335   2.671872   1.454991   3.969219   2.793224
     8  S    5.025394   3.907373   2.842503   5.092988   3.852582
     9  C    6.323637   5.077731   3.970817   6.415262   5.038937
    10  C    6.157024   4.891193   3.818218   6.288069   4.950055
    11  C    4.872190   3.662269   2.627968   5.030817   3.831362
    12  H    4.895015   3.764943   2.982062   5.128247   4.130118
    13  S    7.603111   6.273516   5.384080   7.867120   6.611248
    14  C    8.291614   6.928193   6.019613   8.560368   7.257745
    15  C    7.582280   6.280233   5.299582   7.767855   6.437583
    16  H    9.239419   7.849315   7.021465   9.575897   8.312790
    17  H    8.007656   6.733196   5.835079   8.223772   6.958762
    18  H    2.233204   1.243905   2.492589   3.495497   3.897140
    19  O    1.690739   2.742462   4.010162   2.760960   4.261936
    20  H    2.730531   3.356859   4.773992   3.974858   5.349701
                    6          7          8          9         10
     6  H    0.000000
     7  C    5.001290   0.000000
     8  S    6.056871   1.790108   0.000000
     9  C    7.404433   2.548994   1.730037   0.000000
    10  C    7.291683   2.409470   2.640213   1.441404   0.000000
    11  C    6.040266   1.464376   2.666392   2.391757   1.432873
    12  H    6.104182   2.250932   3.703806   3.404118   2.213686
    13  S    8.884557   4.035000   4.167898   2.646312   1.731858
    14  C    9.586842   4.591647   3.991751   2.367712   2.500281
    15  C    8.766733   3.899070   2.842834   1.425868   2.385428
    16  H   10.612986   5.614434   4.944392   3.391755   3.552965
    17  H    9.204831   4.532514   3.151608   2.224637   3.400967
    18  H    4.438479   3.323522   4.373962   5.423120   5.237219
    19  O    3.043206   5.372095   6.416130   7.760923   7.632797
    20  H    4.312876   5.997399   6.964453   8.245305   8.119090
                   11         12         13         14         15
    11  C    0.000000
    12  H    1.078952   0.000000
    13  S    2.849709   3.148801   0.000000
    14  C    3.857259   4.496107   1.764995   0.000000
    15  C    3.614723   4.512751   2.672273   1.445372   0.000000
    16  H    4.876357   5.442377   2.515283   1.081019   2.240549
    17  H    4.507432   5.449052   3.694784   2.228222   1.086108
    18  H    4.126916   4.162160   6.395563   6.990375   6.444844
    19  O    6.371711   6.326757   8.978156   9.620718   8.924938
    20  H    6.917760   6.837319   9.320407   9.917505   9.290556
                   16         17         18         19         20
    16  H    0.000000
    17  H    2.643696   0.000000
    18  H    7.804152   6.830672   0.000000
    19  O   10.502227   9.259887   2.833549   0.000000
    20  H   10.716846   9.572621   2.942346   1.269724   0.000000
 Stoichiometry    C10H6OS3
 Framework group  C1[X(C10H6OS3)]
 Deg. of freedom    54
 Full point group                 C1      NOp   1
 Largest Abelian subgroup         C1      NOp   1
 Largest concise Abelian subgroup C1      NOp   1
                         Standard orientation:                         
 ---------------------------------------------------------------------
 Center     Atomic      Atomic             Coordinates (Angstroms)
 Number     Number       Type             X           Y           Z
 ---------------------------------------------------------------------
      1          6           0        3.811836    0.649973    0.283694
      2          6           0        2.429122    0.914387    0.581501
      3          6           0        1.512854    0.032058   -0.135193
      4          6           0        3.985409   -0.418324   -0.660294
      5         16           0        2.463688   -1.093235   -1.164140
      6          1           0        4.941082   -0.780167   -1.009520
      7          6           0        0.063585   -0.096758   -0.140109
      8         16           0       -0.786073   -1.283570    0.896251
      9          6           0       -2.343290   -0.799723    0.318327
     10          6           0       -2.264225    0.275507   -0.638372
     11          6           0       -0.916286    0.690266   -0.891670
     12          1           0       -0.670725    1.581170   -1.448560
     13         16           0       -3.706365    1.233172   -0.687818
     14          6           0       -4.464742    0.226385    0.547678
     15          6           0       -3.589651   -0.826807    1.010390
     16          1           0       -5.396656    0.497815    1.023561
     17          1           0       -3.759378   -1.365553    1.938062
     18          1           0        2.289640    1.772791    1.470876
     19          8           0        5.072274    1.316176    1.192577
     20          1           0        5.130200    2.180877    2.120552
 ---------------------------------------------------------------------
 Rotational constants (GHZ):           1.3145112           0.2175397           0.2122872
 Standard basis: 6-311+G(d,p) (5D, 7F)
 There are   382 symmetry adapted cartesian basis functions of A   symmetry.
 There are   368 symmetry adapted basis functions of A   symmetry.
   368 basis functions,   594 primitive gaussians,   382 cartesian basis functions
    61 alpha electrons       61 beta electrons
       nuclear repulsion energy      1075.5504045580 Hartrees.
 NAtoms=   20 NActive=   20 NUniq=   20 SFac= 1.00D+00 NAtFMM=   60 NAOKFM=F Big=F
 Integral buffers will be    131072 words long.
 Raffenetti 2 integral format.
 Two-electron integral symmetry is turned on.
 Nuclear repulsion after empirical dispersion term =     1075.5406640156 Hartrees.
 One-electron integrals computed using PRISM.
 NBasis=   368 RedAO= T EigKep=  4.11D-06  NBF=   368
 NBsUse=   367 1.00D-06 EigRej=  5.88D-07 NBFU=   367
 ExpMin= 4.05D-02 ExpMax= 9.34D+04 ExpMxC= 3.17D+03 IAcc=3 IRadAn=         5 AccDes= 0.00D+00
 Harris functional with IExCor= 4639 and IRadAn=       5 diagonalized for initial guess.
 HarFok:  IExCor= 4639 AccDes= 0.00D+00 IRadAn=         5 IDoV= 1 UseB2=F ITyADJ=14
 ICtDFT=  3500011 ScaDFX=  1.000000  1.000000  1.000000  1.000000
 FoFCou: FMM=F IPFlag=           0 FMFlag=      100000 FMFlg1=           0
         NFxFlg=           0 DoJE=T BraDBF=F KetDBF=T FulRan=T
         wScrn=  0.000000 ICntrl=       500 IOpCl=  0 I1Cent=   200000004 NGrid=           0
         NMat0=    1 NMatS0=      1 NMatT0=    0 NMatD0=    1 NMtDS0=    0 NMtDT0=    0
 Petite list used in FoFCou.
 Requested convergence on RMS density matrix=1.00D-08 within 128 cycles.
 Requested convergence on MAX density matrix=1.00D-06.
 Requested convergence on             energy=1.00D-06.
 No special actions if energy rises.
 SCF Done:  E(RwB97XD) =  -1654.22271348     A.U. after   17 cycles
            NFock= 17  Conv=0.10D-07     -V/T= 2.0032

 **********************************************************************

            Population analysis using the SCF Density.

 **********************************************************************

 Orbital symmetries:
       Occupied  (A) (A) (A) (A) (A) (A) (A) (A) (A) (A) (A) (A)
                 (A) (A) (A) (A) (A) (A) (A) (A) (A) (A) (A) (A)
                 (A) (A) (A) (A) (A) (A) (A) (A) (A) (A) (A) (A)
                 (A) (A) (A) (A) (A) (A) (A) (A) (A) (A) (A) (A)
                 (A) (A) (A) (A) (A) (A) (A) (A) (A) (A) (A) (A)
                 (A)
       Virtual   (A) (A) (A) (A) (A) (A) (A) (A) (A) (A) (A) (A)
                 (A) (A) (A) (A) (A) (A) (A) (A) (A) (A) (A) (A)
                 (A) (A) (A) (A) (A) (A) (A) (A) (A) (A) (A) (A)
                 (A) (A) (A) (A) (A) (A) (A) (A) (A) (A) (A) (A)
                 (A) (A) (A) (A) (A) (A) (A) (A) (A) (A) (A) (A)
                 (A) (A) (A) (A) (A) (A) (A) (A) (A) (A) (A) (A)
                 (A) (A) (A) (A) (A) (A) (A) (A) (A) (A) (A) (A)
                 (A) (A) (A) (A) (A) (A) (A) (A) (A) (A) (A) (A)
                 (A) (A) (A) (A) (A) (A) (A) (A) (A) (A) (A) (A)
                 (A) (A) (A) (A) (A) (A) (A) (A) (A) (A) (A) (A)
                 (A) (A) (A) (A) (A) (A) (A) (A) (A) (A) (A) (A)
                 (A) (A) (A) (A) (A) (A) (A) (A) (A) (A) (A) (A)
                 (A) (A) (A) (A) (A) (A) (A) (A) (A) (A) (A) (A)
                 (A) (A) (A) (A) (A) (A) (A) (A) (A) (A) (A) (A)
                 (A) (A) (A) (A) (A) (A) (A) (A) (A) (A) (A) (A)
                 (A) (A) (A) (A) (A) (A) (A) (A) (A) (A) (A) (A)
                 (A) (A) (A) (A) (A) (A) (A) (A) (A) (A) (A) (A)
                 (A) (A) (A) (A) (A) (A) (A) (A) (A) (A) (A) (A)
                 (A) (A) (A) (A) (A) (A) (A) (A) (A) (A) (A) (A)
                 (A) (A) (A) (A) (A) (A) (A) (A) (A) (A) (A) (A)
                 (A) (A) (A) (A) (A) (A) (A) (A) (A) (A) (A) (A)
                 (A) (A) (A) (A) (A) (A) (A) (A) (A) (A) (A) (A)
                 (A) (A) (A) (A) (A) (A) (A) (A) (A) (A) (A) (A)
                 (A) (A) (A) (A) (A) (A) (A) (A) (A) (A) (A) (A)
                 (A) (A) (A) (A) (A) (A) (A) (A) (A) (A) (A) (A)
                 (A) (A) (A) (A) (A) (A)
 The electronic state is 1-A.
 Alpha  occ. eigenvalues --  -89.07196 -89.06412 -89.06147 -19.27733 -10.38830
 Alpha  occ. eigenvalues --  -10.36326 -10.35725 -10.34299 -10.34263 -10.34234
 Alpha  occ. eigenvalues --  -10.34094 -10.33968 -10.32707 -10.32227  -8.11030
 Alpha  occ. eigenvalues --   -8.10355  -8.10082  -6.05874  -6.05505  -6.05207
 Alpha  occ. eigenvalues --   -6.05136  -6.04940  -6.04842  -6.04568  -6.04422
 Alpha  occ. eigenvalues --   -6.04142  -1.03321  -1.01283  -0.98251  -0.94089
 Alpha  occ. eigenvalues --   -0.87799  -0.85312  -0.84151  -0.81123  -0.78679
 Alpha  occ. eigenvalues --   -0.71628  -0.67306  -0.64535  -0.63222  -0.62706
 Alpha  occ. eigenvalues --   -0.58875  -0.58302  -0.53942  -0.52028  -0.51193
 Alpha  occ. eigenvalues --   -0.50176  -0.48686  -0.48184  -0.47821  -0.47251
 Alpha  occ. eigenvalues --   -0.45825  -0.44973  -0.43005  -0.42051  -0.40446
 Alpha  occ. eigenvalues --   -0.39883  -0.37429  -0.33846  -0.31557  -0.31350
 Alpha  occ. eigenvalues --   -0.28902
 Alpha virt. eigenvalues --   -0.00804  -0.00170   0.00850   0.04488   0.05388
 Alpha virt. eigenvalues --    0.05785   0.06174   0.06737   0.06935   0.07267
 Alpha virt. eigenvalues --    0.07934   0.08652   0.08936   0.09182   0.09519
 Alpha virt. eigenvalues --    0.09933   0.10295   0.10535   0.11416   0.12142
 Alpha virt. eigenvalues --    0.12373   0.13129   0.13674   0.13945   0.14170
 Alpha virt. eigenvalues --    0.14810   0.15282   0.15388   0.16700   0.16976
 Alpha virt. eigenvalues --    0.17127   0.17355   0.17549   0.18059   0.18591
 Alpha virt. eigenvalues --    0.18971   0.20086   0.20201   0.20350   0.20581
 Alpha virt. eigenvalues --    0.21450   0.21714   0.22450   0.22650   0.23189
 Alpha virt. eigenvalues --    0.23501   0.23624   0.24255   0.24577   0.25010
 Alpha virt. eigenvalues --    0.25227   0.25998   0.26109   0.26380   0.26699
 Alpha virt. eigenvalues --    0.27255   0.27537   0.27764   0.27922   0.28202
 Alpha virt. eigenvalues --    0.28577   0.29649   0.29750   0.30903   0.31067
 Alpha virt. eigenvalues --    0.31544   0.32403   0.32805   0.33222   0.33975
 Alpha virt. eigenvalues --    0.34256   0.35302   0.35583   0.37660   0.38093
 Alpha virt. eigenvalues --    0.38981   0.39558   0.39678   0.40191   0.41522
 Alpha virt. eigenvalues --    0.42025   0.43029   0.43787   0.44406   0.45022
 Alpha virt. eigenvalues --    0.47748   0.47961   0.48716   0.49803   0.50296
 Alpha virt. eigenvalues --    0.52160   0.52439   0.56569   0.58592   0.60443
 Alpha virt. eigenvalues --    0.61029   0.62127   0.62942   0.63598   0.64094
 Alpha virt. eigenvalues --    0.64436   0.65981   0.66158   0.66976   0.67679
 Alpha virt. eigenvalues --    0.68794   0.69011   0.71070   0.71898   0.71979
 Alpha virt. eigenvalues --    0.74035   0.74485   0.75745   0.76126   0.77581
 Alpha virt. eigenvalues --    0.78242   0.78439   0.79281   0.79587   0.80654
 Alpha virt. eigenvalues --    0.80771   0.81246   0.82047   0.83192   0.85081
 Alpha virt. eigenvalues --    0.85472   0.86244   0.87521   0.88694   0.89411
 Alpha virt. eigenvalues --    0.90269   0.91129   0.91880   0.92858   0.93907
 Alpha virt. eigenvalues --    0.94964   0.95561   0.96372   0.97434   0.99114
 Alpha virt. eigenvalues --    0.99762   1.00216   1.01741   1.01985   1.03092
 Alpha virt. eigenvalues --    1.04648   1.05652   1.06460   1.08356   1.09498
 Alpha virt. eigenvalues --    1.10111   1.11503   1.13685   1.14476   1.15498
 Alpha virt. eigenvalues --    1.18152   1.19201   1.22202   1.23019   1.26077
 Alpha virt. eigenvalues --    1.28826   1.29988   1.31675   1.34577   1.36836
 Alpha virt. eigenvalues --    1.42050   1.43167   1.44940   1.47491   1.49151
 Alpha virt. eigenvalues --    1.50772   1.52233   1.55526   1.58208   1.59276
 Alpha virt. eigenvalues --    1.60113   1.60731   1.62255   1.65655   1.66039
 Alpha virt. eigenvalues --    1.67346   1.69274   1.71130   1.71578   1.72915
 Alpha virt. eigenvalues --    1.74492   1.75730   1.76550   1.77758   1.78694
 Alpha virt. eigenvalues --    1.80812   1.81859   1.83338   1.84703   1.85450
 Alpha virt. eigenvalues --    1.87264   1.88260   1.90630   1.91684   1.92700
 Alpha virt. eigenvalues --    1.93056   1.94899   1.96838   1.98704   2.01866
 Alpha virt. eigenvalues --    2.02661   2.03978   2.05115   2.05881   2.06341
 Alpha virt. eigenvalues --    2.07594   2.08610   2.09598   2.11688   2.12676
 Alpha virt. eigenvalues --    2.13205   2.16543   2.17210   2.20896   2.21598
 Alpha virt. eigenvalues --    2.22420   2.26274   2.31088   2.34476   2.37232
 Alpha virt. eigenvalues --    2.41302   2.42875   2.44569   2.50481   2.55393
 Alpha virt. eigenvalues --    2.57811   2.58887   2.63912   2.65535   2.70912
 Alpha virt. eigenvalues --    2.73584   2.76548   2.78371   2.79332   2.80945
 Alpha virt. eigenvalues --    2.82347   2.84364   2.85692   2.87435   2.90104
 Alpha virt. eigenvalues --    2.93428   2.96438   2.97165   2.98114   3.01930
 Alpha virt. eigenvalues --    3.02450   3.04424   3.04897   3.07112   3.10805
 Alpha virt. eigenvalues --    3.11579   3.12625   3.13512   3.17240   3.29666
 Alpha virt. eigenvalues --    3.30541   3.32739   3.35651   3.40270   3.45335
 Alpha virt. eigenvalues --    3.49215   3.56202   3.58298   3.67015   3.70468
 Alpha virt. eigenvalues --    3.88561   3.93982   4.02622   4.12820   4.21897
 Alpha virt. eigenvalues --    4.39527   4.50861   5.13186   5.23581   5.36561
 Alpha virt. eigenvalues --    8.02935   8.04643   8.06465  17.41667  17.42096
 Alpha virt. eigenvalues --   17.44187  17.55392  17.57109  17.59830  17.60590
 Alpha virt. eigenvalues --   17.61804  17.64413  23.54941  23.68944  23.80466
 Alpha virt. eigenvalues --   23.88542  23.92859  23.98013  23.98828  24.00833
 Alpha virt. eigenvalues --   24.06219  24.08575  49.98310 189.27066 189.28923
 Alpha virt. eigenvalues --  189.31175
          Condensed to atoms (all electrons):
               1          2          3          4          5          6
     1  C    6.766548  -0.748382  -0.045265  -1.048666   0.956165   0.031434
     2  C   -0.748382  10.490836  -2.089737   0.184531  -1.874013  -0.032786
     3  C   -0.045265  -2.089737   7.902086  -0.105090   0.518508   0.023456
     4  C   -1.048666   0.184531  -0.105090   7.431586  -0.739160   0.359543
     5  S    0.956165  -1.874013   0.518508  -0.739160  16.992646  -0.013525
     6  H    0.031434  -0.032786   0.023456   0.359543  -0.013525   0.425160
     7  C    0.118942  -0.837102   0.465947  -0.156181   0.214994  -0.000291
     8  S    0.015395  -0.215819   0.299427   0.070672   0.127196  -0.000355
     9  C    0.002102   0.201404  -0.421319  -0.016034  -0.066703  -0.000080
    10  C   -0.014948  -0.310946   0.456926   0.032199   0.119897  -0.000044
    11  C    0.058978   0.537525  -1.027761  -0.061504   0.021657  -0.000146
    12  H    0.000375   0.000794   0.021663   0.000611  -0.004151   0.000001
    13  S   -0.006177   0.006986   0.006589  -0.000587   0.002476  -0.000001
    14  C   -0.000683  -0.005030  -0.004634   0.000696  -0.000532  -0.000000
    15  C   -0.002743   0.115651  -0.024344   0.000297  -0.043691  -0.000010
    16  H   -0.000000  -0.000043  -0.000008  -0.000001   0.000015  -0.000000
    17  H   -0.000016  -0.000403  -0.000462  -0.000001   0.000105   0.000000
    18  H   -0.078463   0.330807   0.090303  -0.028652   0.003483  -0.000034
    19  O    0.359475  -0.079754   0.004842  -0.132631   0.011546  -0.000161
    20  H   -0.044098  -0.037554   0.022696   0.058928  -0.005110  -0.000155
               7          8          9         10         11         12
     1  C    0.118942   0.015395   0.002102  -0.014948   0.058978   0.000375
     2  C   -0.837102  -0.215819   0.201404  -0.310946   0.537525   0.000794
     3  C    0.465947   0.299427  -0.421319   0.456926  -1.027761   0.021663
     4  C   -0.156181   0.070672  -0.016034   0.032199  -0.061504   0.000611
     5  S    0.214994   0.127196  -0.066703   0.119897   0.021657  -0.004151
     6  H   -0.000291  -0.000355  -0.000080  -0.000044  -0.000146   0.000001
     7  C    7.896292   0.419963  -0.747438   1.005692  -1.983863   0.070804
     8  S    0.419963  17.571266  -1.355858   1.573203  -2.120573   0.009395
     9  C   -0.747438  -1.355858  12.172281  -4.420914   1.710379  -0.033933
    10  C    1.005692   1.573203  -4.420914  12.602539  -3.674818   0.038134
    11  C   -1.983863  -2.120573   1.710379  -3.674818  11.619452   0.259257
    12  H    0.070804   0.009395  -0.033933   0.038134   0.259257   0.468484
    13  S   -0.285150   0.138188   0.458570  -0.901189   0.140856   0.002438
    14  C    0.083382  -0.019114   0.550508  -0.368644  -0.190040   0.001723
    15  C   -0.288341  -0.170465  -2.412811  -0.157530   0.681412  -0.010559
    16  H   -0.002352   0.000561  -0.012466   0.011274   0.010985  -0.000003
    17  H    0.005281   0.010658   0.021117  -0.023444  -0.003920   0.000006
    18  H    0.018730  -0.002490  -0.001264   0.001194   0.000795  -0.000022
    19  O    0.006999   0.000013   0.000045   0.000202   0.000379  -0.000006
    20  H    0.000056   0.000266  -0.000020   0.000012  -0.000016  -0.000001
              13         14         15         16         17         18
     1  C   -0.006177  -0.000683  -0.002743  -0.000000  -0.000016  -0.078463
     2  C    0.006986  -0.005030   0.115651  -0.000043  -0.000403   0.330807
     3  C    0.006589  -0.004634  -0.024344  -0.000008  -0.000462   0.090303
     4  C   -0.000587   0.000696   0.000297  -0.000001  -0.000001  -0.028652
     5  S    0.002476  -0.000532  -0.043691   0.000015   0.000105   0.003483
     6  H   -0.000001  -0.000000  -0.000010  -0.000000   0.000000  -0.000034
     7  C   -0.285150   0.083382  -0.288341  -0.002352   0.005281   0.018730
     8  S    0.138188  -0.019114  -0.170465   0.000561   0.010658  -0.002490
     9  C    0.458570   0.550508  -2.412811  -0.012466   0.021117  -0.001264
    10  C   -0.901189  -0.368644  -0.157530   0.011274  -0.023444   0.001194
    11  C    0.140856  -0.190040   0.681412   0.010985  -0.003920   0.000795
    12  H    0.002438   0.001723  -0.010559  -0.000003   0.000006  -0.000022
    13  S   16.547685   0.394675  -0.295599  -0.024279  -0.001210   0.000070
    14  C    0.394675   5.519349  -0.024782   0.378346   0.015161  -0.000010
    15  C   -0.295599  -0.024782   8.495483   0.000623   0.335712  -0.000123
    16  H   -0.024279   0.378346   0.000623   0.436346  -0.002641   0.000000
    17  H   -0.001210   0.015161   0.335712  -0.002641   0.472612  -0.000000
    18  H    0.000070  -0.000010  -0.000123   0.000000  -0.000000   0.492100
    19  O   -0.000014   0.000008  -0.000025   0.000000   0.000000  -0.000568
    20  H   -0.000002   0.000001  -0.000004  -0.000000   0.000000   0.000417
              19         20
     1  C    0.359475  -0.044098
     2  C   -0.079754  -0.037554
     3  C    0.004842   0.022696
     4  C   -0.132631   0.058928
     5  S    0.011546  -0.005110
     6  H   -0.000161  -0.000155
     7  C    0.006999   0.000056
     8  S    0.000013   0.000266
     9  C    0.000045  -0.000020
    10  C    0.000202   0.000012
    11  C    0.000379  -0.000016
    12  H   -0.000006  -0.000001
    13  S   -0.000014  -0.000002
    14  C    0.000008   0.000001
    15  C   -0.000025  -0.000004
    16  H    0.000000  -0.000000
    17  H    0.000000   0.000000
    18  H   -0.000568   0.000417
    19  O    8.089303   0.206921
    20  H    0.206921   0.493623
 Mulliken charges:
               1
     1  C   -0.319972
     2  C    0.363036
     3  C   -0.093823
     4  C    0.149444
     5  S   -0.221804
     6  H    0.207994
     7  C   -0.006364
     8  S   -0.351527
     9  C    0.372433
    10  C    0.031205
    11  C    0.020967
    12  H    0.174989
    13  S   -0.184324
    14  C   -0.330378
    15  C   -0.198152
    16  H    0.203642
    17  H    0.171443
    18  H    0.173726
    19  O   -0.466573
    20  H    0.304040
 Sum of Mulliken charges =  -0.00000
 Mulliken charges with hydrogens summed into heavy atoms:
               1
     1  C   -0.319972
     2  C    0.536762
     3  C   -0.093823
     4  C    0.357438
     5  S   -0.221804
     7  C   -0.006364
     8  S   -0.351527
     9  C    0.372433
    10  C    0.031205
    11  C    0.195956
    13  S   -0.184324
    14  C   -0.126736
    15  C   -0.026710
    19  O   -0.162532
 Electronic spatial extent (au):  <R**2>=           4991.1259
 Charge=             -0.0000 electrons
 Dipole moment (field-independent basis, Debye):
    X=             -1.5351    Y=              1.3098    Z=              1.4967  Tot=              2.5124
 Quadrupole moment (field-independent basis, Debye-Ang):
   XX=           -101.3890   YY=            -98.2062   ZZ=            -97.5559
   XY=             -0.0902   XZ=             -3.5724   YZ=              3.8148
 Traceless Quadrupole moment (field-independent basis, Debye-Ang):
   XX=             -2.3387   YY=              0.8442   ZZ=              1.4945
   XY=             -0.0902   XZ=             -3.5724   YZ=              3.8148
 Octapole moment (field-independent basis, Debye-Ang**2):
  XXX=            -70.7945  YYY=             17.7576  ZZZ=             20.3198  XYY=             24.2612
  XXY=             12.9265  XXZ=             35.9274  XZZ=             21.0658  YZZ=             13.1262
  YYZ=             15.2867  XYZ=             39.7680
 Hexadecapole moment (field-independent basis, Debye-Ang**3):
 XXXX=          -5644.8717 YYYY=           -660.1256 ZZZZ=           -520.8097 XXXY=            -81.2309
 XXXZ=           -120.4574 YYYX=             57.3956 YYYZ=             35.8271 ZZZX=             60.8984
 ZZZY=             31.9964 XXYY=           -961.2432 XXZZ=           -900.5668 YYZZ=           -152.8714
 XXYZ=            142.6759 YYXZ=             69.8558 ZZXY=             80.0456
 N-N= 1.075540664016D+03 E-N=-6.060390653328D+03  KE= 1.648905271937D+03
 Calling FoFJK, ICntrl=      2127 FMM=F ISym2X=0 I1Cent= 0 IOpClX= 0 NMat=1 NMatS=1 NMatT=0.
 ***** Axes restored to original set *****
 -------------------------------------------------------------------
 Center     Atomic                   Forces (Hartrees/Bohr)
 Number     Number              X              Y              Z
 -------------------------------------------------------------------
      1        6          -0.018824015    0.007416795   -0.019265762
      2        6           0.007724769    0.018855800   -0.017025059
      3        6          -0.054595233    0.028617584    0.007743575
      4        6          -0.006931946    0.058906354   -0.011683821
      5       16          -0.007168447    0.037673079   -0.002003531
      6        1           0.002138698   -0.003507938   -0.001035682
      7        6           0.066889081    0.018804556    0.024838586
      8       16          -0.004695140   -0.003435903    0.020753033
      9        6           0.010567069    0.028019504    0.025933891
     10        6          -0.031056498    0.000242208   -0.029881953
     11        6          -0.041248295   -0.017549755   -0.045320957
     12        1          -0.005026090   -0.004274061    0.003854976
     13       16           0.007260936   -0.011207456   -0.019919194
     14        6          -0.054163450   -0.028002675   -0.024385858
     15        6           0.038145776    0.035887002    0.035412459
     16        1           0.003635749   -0.003635519    0.005104163
     17        1           0.005652085   -0.006641629    0.003298303
     18        1           0.014671104   -0.070969256    0.019183556
     19        8           0.023092017    0.026989247   -0.007217637
     20        1           0.043931829   -0.112187939    0.031616913
 -------------------------------------------------------------------
 Cartesian Forces:  Max     0.112187939 RMS     0.030392876

 GradGradGradGradGradGradGradGradGradGradGradGradGradGradGradGradGradGrad
 Berny optimization.
 FormGI is forming the generalized inverse of G from B-inverse, IUseBI=4.
 Internal  Forces:  Max     0.121162426 RMS     0.024688745
 Search for a local minimum.
 Step number   1 out of a maximum of  116
 All quantities printed in internal units (Hartrees-Bohrs-Radians)
 Mixed Optimization -- RFO/linear search
 Second derivative matrix not updated -- first step.
 ITU=  0
     Eigenvalues ---    0.00230   0.00983   0.01057   0.01222   0.01273
     Eigenvalues ---    0.01297   0.01386   0.01417   0.01421   0.01464
     Eigenvalues ---    0.01492   0.01554   0.01593   0.01769   0.02198
     Eigenvalues ---    0.02651   0.15077   0.15683   0.15735   0.15872
     Eigenvalues ---    0.15997   0.16000   0.17992   0.18458   0.20203
     Eigenvalues ---    0.21719   0.22444   0.23320   0.23380   0.23776
     Eigenvalues ---    0.23978   0.24292   0.24978   0.24995   0.26219
     Eigenvalues ---    0.26565   0.28400   0.30834   0.31357   0.31574
     Eigenvalues ---    0.34809   0.35266   0.35849   0.35872   0.36006
     Eigenvalues ---    0.36121   0.36301   0.37598   0.38236   0.38494
     Eigenvalues ---    0.39449   0.39664   0.406461000.000001000.00000
     Eigenvalues --- 1000.000001000.000001000.000001000.000001000.00000
     Eigenvalues --- 1000.000001000.000001000.000001000.000001000.00000
     Eigenvalues --- 1000.000001000.000001000.000001000.000001000.00000
     Eigenvalues --- 1000.000001000.000001000.000001000.000001000.00000
     Eigenvalues --- 1000.000001000.000001000.000001000.000001000.00000
     Eigenvalues --- 1000.000001000.000001000.000001000.000001000.00000
     Eigenvalues --- 1000.000001000.000001000.000001000.000001000.00000
     Eigenvalues --- 1000.000001000.000001000.000001000.000001000.00000
     Eigenvalues --- 1000.000001000.000001000.000001000.000001000.00000
     Eigenvalues --- 1000.000001000.000001000.000001000.000001000.00000
     Eigenvalues --- 1000.00000
 RFO step:  Lambda=-1.60512594D-01 EMin= 2.30000000D-03
 Linear search not attempted -- first point.
 Maximum step size (   0.300) exceeded in Quadratic search.
    -- Step size scaled by   0.474
 Iteration  1 RMS(Cart)=  0.05903723 RMS(Int)=  0.00135234
 Iteration  2 RMS(Cart)=  0.00157927 RMS(Int)=  0.00005931
 Iteration  3 RMS(Cart)=  0.00000783 RMS(Int)=  0.00005909
 Iteration  4 RMS(Cart)=  0.00000000 RMS(Int)=  0.00005909
 Iteration  1 RMS(Cart)=  0.00000121 RMS(Int)=  0.00000051
 Iteration  2 RMS(Cart)=  0.00000066 RMS(Int)=  0.00000057
 Variable       Old X    -DE/DX   Delta X   Delta X   Delta X     New X
                                 (Linear)    (Quad)   (Total)
    R1        2.71917  -0.02316   0.00000  -0.02064  -0.02058   2.69859
    R2        2.71391  -0.06969   0.00000  -0.05920  -0.05918   2.65474
    R3        3.19503  -0.10665   0.00000  -0.14634  -0.14634   3.04869
    R4        2.75906  -0.07657   0.00000  -0.06872  -0.06869   2.69037
    R5        2.35064  -0.07297   0.00000  -0.09149  -0.09149   2.25915
    R6        3.39578  -0.02499   0.00000  -0.02687  -0.02692   3.36886
    R7        2.74954  -0.00429   0.00000  -0.00379  -0.00379   2.74575
    R8        3.28671  -0.02259   0.00000  -0.02172  -0.02177   3.26494
    R9        2.04073  -0.00042   0.00000  -0.00038  -0.00038   2.04034
   R10        3.38281  -0.01835   0.00000  -0.01933  -0.01937   3.36345
   R11        2.76727  -0.07336   0.00000  -0.06645  -0.06646   2.70081
   R12        3.26930  -0.00701   0.00000  -0.00622  -0.00622   3.26307
   R13        2.72386  -0.03937   0.00000  -0.03417  -0.03410   2.68976
   R14        2.69450  -0.00271   0.00000  -0.00296  -0.00292   2.69158
   R15        2.70774  -0.01314   0.00000  -0.01182  -0.01180   2.69594
   R16        3.27274  -0.00427   0.00000  -0.00343  -0.00344   3.26930
   R17        2.03892   0.00179   0.00000   0.00163   0.00163   2.04055
   R18        3.33536  -0.01809   0.00000  -0.01845  -0.01850   3.31686
   R19        2.73136  -0.06596   0.00000  -0.05732  -0.05733   2.67403
   R20        2.04283  -0.00097   0.00000  -0.00089  -0.00089   2.04194
   R21        2.05245  -0.00354   0.00000  -0.00326  -0.00326   2.04918
   R22        2.39943  -0.12116   0.00000  -0.15825  -0.15825   2.24118
    A1        1.97020   0.01965   0.00000   0.02121   0.02130   1.99151
    A2        2.13260   0.00486   0.00000   0.00701   0.00697   2.13957
    A3        2.16079  -0.02397   0.00000  -0.02680  -0.02688   2.13390
    A4        1.97187  -0.00310   0.00000  -0.00554  -0.00545   1.96643
    A5        1.96334   0.02140   0.00000   0.03226   0.03222   1.99555
    A6        2.34288  -0.01814   0.00000  -0.02618  -0.02624   2.31665
    A7        1.90440   0.00048   0.00000   0.00123   0.00122   1.90562
    A8        2.31891  -0.01009   0.00000  -0.01199  -0.01198   2.30693
    A9        2.05972   0.00963   0.00000   0.01077   0.01077   2.07049
   A10        1.95339  -0.01521   0.00000  -0.01860  -0.01861   1.93478
   A11        2.17580   0.01172   0.00000   0.01540   0.01541   2.19121
   A12        2.15384   0.00352   0.00000   0.00327   0.00327   2.15711
   A13        1.62490  -0.00182   0.00000   0.00171   0.00155   1.62645
   A14        2.12883  -0.00444   0.00000  -0.00494  -0.00495   2.12387
   A15        2.24038  -0.00444   0.00000  -0.00496  -0.00497   2.23541
   A16        1.91330   0.00894   0.00000   0.01002   0.01004   1.92334
   A17        1.61923  -0.00716   0.00000  -0.00638  -0.00636   1.61287
   A18        1.96164  -0.01037   0.00000  -0.01050  -0.01061   1.95104
   A19        2.23870   0.00841   0.00000   0.01324   0.01312   2.25182
   A20        1.96521   0.00581   0.00000   0.00648   0.00652   1.97172
   A21        1.96585   0.00741   0.00000   0.00774   0.00775   1.97360
   A22        1.96684  -0.01294   0.00000  -0.01337  -0.01344   1.95340
   A23        2.23730   0.00907   0.00000   0.01395   0.01384   2.25114
   A24        1.96403   0.00121   0.00000  -0.00083  -0.00077   1.96326
   A25        2.16082  -0.00515   0.00000  -0.00591  -0.00597   2.15485
   A26        2.14641   0.00455   0.00000   0.00838   0.00832   2.15474
   A27        1.59319   0.00028   0.00000   0.00160   0.00159   1.59478
   A28        1.96015   0.00226   0.00000   0.00195   0.00193   1.96209
   A29        2.13571  -0.00476   0.00000  -0.00580  -0.00586   2.12985
   A30        2.16998   0.00360   0.00000   0.00670   0.00665   2.17663
   A31        1.93907   0.00459   0.00000   0.00334   0.00340   1.94246
   A32        2.16588   0.00050   0.00000   0.00356   0.00346   2.16934
   A33        2.14155  -0.00323   0.00000  -0.00211  -0.00222   2.13933
   A34        2.33954  -0.06927   0.00000  -0.10233  -0.10233   2.23720
    D1        0.00683  -0.00127   0.00000  -0.00341  -0.00343   0.00340
    D2        3.05589  -0.00089   0.00000  -0.00019  -0.00007   3.05582
    D3       -2.93068  -0.00128   0.00000  -0.00750  -0.00767  -2.93835
    D4        0.11838  -0.00090   0.00000  -0.00428  -0.00431   0.11407
    D5       -0.00671   0.00148   0.00000   0.00377   0.00378  -0.00293
    D6       -3.13020  -0.00045   0.00000  -0.00064  -0.00061  -3.13081
    D7        2.92697   0.00552   0.00000   0.01266   0.01258   2.93955
    D8       -0.19651   0.00359   0.00000   0.00825   0.00818  -0.18833
    D9       -0.13323   0.00155   0.00000   0.00170   0.00166  -0.13157
   D10       -3.04818  -0.00408   0.00000  -0.00906  -0.00902  -3.05720
   D11       -0.00388   0.00065   0.00000   0.00168   0.00163  -0.00225
   D12        3.11762   0.00162   0.00000   0.00255   0.00251   3.12013
   D13       -3.02603  -0.00301   0.00000  -0.00714  -0.00712  -3.03315
   D14        0.09547  -0.00205   0.00000  -0.00627  -0.00624   0.08923
   D15        0.00006   0.00021   0.00000   0.00044   0.00046   0.00052
   D16       -3.12486  -0.00035   0.00000   0.00000   0.00001  -3.12485
   D17       -1.65796  -0.00158   0.00000   0.00000  -0.00000  -1.65797
   D18        1.43968   0.00071   0.00000   0.00413   0.00412   1.44380
   D19        1.46213  -0.00066   0.00000   0.00082   0.00082   1.46295
   D20       -1.72342   0.00163   0.00000   0.00494   0.00495  -1.71847
   D21        0.00376  -0.00097   0.00000  -0.00242  -0.00241   0.00134
   D22        3.12751   0.00103   0.00000   0.00208   0.00203   3.12954
   D23        3.13768   0.00092   0.00000   0.00172   0.00172   3.13941
   D24        0.03267  -0.00073   0.00000  -0.00143  -0.00146   0.03121
   D25       -3.13850  -0.00163   0.00000  -0.00304  -0.00302  -3.14153
   D26       -0.15815   0.00291   0.00000   0.00878   0.00876  -0.14939
   D27       -0.03649   0.00019   0.00000   0.00041   0.00045  -0.03604
   D28        2.94386   0.00473   0.00000   0.01223   0.01224   2.95610
   D29       -0.02116   0.00155   0.00000   0.00259   0.00258  -0.01858
   D30       -2.61634  -0.00749   0.00000  -0.01789  -0.01790  -2.63424
   D31        0.00348  -0.00129   0.00000  -0.00243  -0.00241   0.00107
   D32       -2.68797  -0.01045   0.00000  -0.02175  -0.02157  -2.70954
   D33        2.68736   0.00811   0.00000   0.01798   0.01786   2.70522
   D34       -0.00410  -0.00105   0.00000  -0.00135  -0.00130  -0.00540
   D35        2.61360   0.00581   0.00000   0.01716   0.01729   2.63089
   D36       -0.24605  -0.00070   0.00000  -0.00040  -0.00034  -0.24639
   D37        0.01931   0.00082   0.00000   0.00092   0.00089   0.02020
   D38       -2.84033  -0.00568   0.00000  -0.01665  -0.01675  -2.85707
   D39        0.02191   0.00072   0.00000   0.00125   0.00123   0.02313
   D40       -2.95998  -0.00275   0.00000  -0.00894  -0.00903  -2.96902
   D41        2.62748   0.00453   0.00000   0.01517   0.01531   2.64280
   D42       -0.35440   0.00106   0.00000   0.00497   0.00505  -0.34936
   D43       -0.00939   0.00103   0.00000   0.00131   0.00128  -0.00811
   D44       -2.61472  -0.00783   0.00000  -0.01786  -0.01783  -2.63255
   D45        0.02048  -0.00042   0.00000  -0.00065  -0.00066   0.01982
   D46        2.97084   0.00606   0.00000   0.01573   0.01566   2.98650
   D47       -0.02629  -0.00003   0.00000   0.00009   0.00011  -0.02618
   D48        2.83796   0.00705   0.00000   0.01842   0.01844   2.85640
   D49       -2.97224  -0.00558   0.00000  -0.01505  -0.01508  -2.98732
   D50       -0.10799   0.00150   0.00000   0.00328   0.00325  -0.10474
         Item               Value     Threshold  Converged?
 Maximum Force            0.121162     0.000450     NO 
 RMS     Force            0.024805     0.000300     NO 
 Maximum Displacement     0.389729     0.001800     NO 
 RMS     Displacement     0.058609     0.001200     NO 
 Predicted change in Energy=-6.555105D-02
 GradGradGradGradGradGradGradGradGradGradGradGradGradGradGradGradGradGrad

                          Input orientation:                          
 ---------------------------------------------------------------------
 Center     Atomic      Atomic             Coordinates (Angstroms)
 Number     Number       Type             X           Y           Z
 ---------------------------------------------------------------------
      1          6           0       -4.224233   -1.362823   -0.219817
      2          6           0       -2.914832   -0.957882   -0.620784
      3          6           0       -1.984087   -2.035184   -0.623399
      4          6           0       -4.331871   -2.728082    0.093263
      5         16           0       -2.813598   -3.527248   -0.109823
      6          1           0       -5.234436   -3.230933    0.406755
      7          6           0       -0.575848   -2.106919   -0.973957
      8         16           0       -0.040644   -2.599314   -2.598459
      9          6           0        1.625878   -2.421260   -2.182948
     10          6           0        1.791014   -1.971711   -0.842580
     11          6           0        0.552680   -1.776484   -0.161633
     12          1           0        0.472433   -1.295310    0.801710
     13         16           0        3.297923   -1.152288   -0.617185
     14          6           0        3.736409   -1.407615   -2.297446
     15          6           0        2.728319   -2.087835   -3.020893
     16          1           0        4.601211   -0.936399   -2.742035
     17          1           0        2.699802   -2.107376   -4.104722
     18          1           0       -2.838667    0.180885   -0.976612
     19          8           0       -5.517689   -0.413879   -0.390738
     20          1           0       -5.553764    0.722656   -0.727696
 ---------------------------------------------------------------------
                    Distance matrix (angstroms):
                    1          2          3          4          5
     1  C    0.000000
     2  C    1.428034   0.000000
     3  C    2.373437   1.423683   0.000000
     4  C    1.404827   2.377282   2.550647   0.000000
     5  S    2.585871   2.621636   1.782724   1.727733   0.000000
     6  H    2.214258   3.406341   3.613281   1.079704   2.493012
     7  C    3.799094   2.629803   1.452988   3.953796   2.787756
     8  S    4.968830   3.855705   2.827733   5.067206   3.839745
     9  C    6.260828   5.019948   3.951341   6.385142   5.022948
    10  C    6.077975   4.818925   3.781991   6.240001   4.915189
    11  C    4.795143   3.592293   2.591398   4.982906   3.794692
    12  H    4.806948   3.689297   2.934764   5.063207   4.075591
    13  S    7.535586   6.215797   5.355294   7.823146   6.576363
    14  C    8.227416   6.874043   5.993359   8.517996   7.223651
    15  C    7.530581   6.235582   5.287487   7.743007   6.423324
    16  H    9.188682   7.809678   7.004434   9.541959   8.283745
    17  H    7.974278   6.706958   5.836406   8.212964   6.955058
    18  H    2.208068   1.195493   2.401255   3.440404   3.808176
    19  O    1.613300   2.669030   3.894753   2.644987   4.133290
    20  H    2.524840   3.130431   4.512112   3.751612   5.094307
                    6          7          8          9         10
     6  H    0.000000
     7  C    4.987205   0.000000
     8  S    6.033716   1.779860   0.000000
     9  C    7.377400   2.531416   1.726745   0.000000
    10  C    7.245925   2.374359   2.613803   1.423358   0.000000
    11  C    5.994097   1.429208   2.639546   2.377647   1.426630
    12  H    6.039120   2.215987   3.677610   3.392105   2.213564
    13  S    8.841401   4.005586   4.143110   2.618710   1.730038
    14  C    9.545326   4.564670   3.972012   2.344126   2.493873
    15  C    8.744193   3.886880   2.847318   1.424325   2.374252
    16  H   10.579211   5.594476   4.932820   3.371942   3.546407
    17  H    9.196083   4.531178   3.165577   2.223747   3.389081
    18  H    4.392484   3.217826   4.264836   5.306464   5.107404
    19  O    2.941432   5.256264   6.296680   7.633619   7.486530
    20  H    4.125508   5.731212   6.702965   7.971777   7.824230
                   11         12         13         14         15
    11  C    0.000000
    12  H    1.079813   0.000000
    13  S    2.851930   3.164982   0.000000
    14  C    3.851479   4.502324   1.755204   0.000000
    15  C    3.606344   4.508815   2.641498   1.415033   0.000000
    16  H    4.873891   5.452866   2.502030   1.080549   2.216143
    17  H    4.501952   5.449192   3.665087   2.197832   1.084380
    18  H    3.999590   4.037940   6.290014   6.891992   6.349607
    19  O    6.225637   6.170932   8.849381   9.500598   8.815696
    20  H    6.622295   6.536537   9.048757   9.659684   9.041599
                   16         17         18         19         20
    16  H    0.000000
    17  H    2.616001   0.000000
    18  H    7.727666   6.759871   0.000000
    19  O   10.401623   9.175444   2.806091   0.000000
    20  H   10.484920   9.356001   2.779789   1.185982   0.000000
 Stoichiometry    C10H6OS3
 Framework group  C1[X(C10H6OS3)]
 Deg. of freedom    54
 Full point group                 C1      NOp   1
 Largest Abelian subgroup         C1      NOp   1
 Largest concise Abelian subgroup C1      NOp   1
                         Standard orientation:                         
 ---------------------------------------------------------------------
 Center     Atomic      Atomic             Coordinates (Angstroms)
 Number     Number       Type             X           Y           Z
 ---------------------------------------------------------------------
      1          6           0        3.769978    0.625568    0.337634
      2          6           0        2.395486    0.860129    0.645912
      3          6           0        1.514491    0.046660   -0.121545
      4          6           0        3.977583   -0.347584   -0.654038
      5         16           0        2.472947   -0.986893   -1.212981
      6          1           0        4.938886   -0.674936   -1.020777
      7          6           0        0.066992   -0.078583   -0.136906
      8         16           0       -0.773234   -1.330561    0.808860
      9          6           0       -2.324795   -0.804869    0.263007
     10          6           0       -2.226558    0.318661   -0.605312
     11          6           0       -0.881651    0.743005   -0.820795
     12          1           0       -0.620820    1.664049   -1.320436
     13         16           0       -3.678697    1.259025   -0.611595
     14          6           0       -4.442306    0.164887    0.528802
     15          6           0       -3.583574   -0.887967    0.924272
     16          1           0       -5.392414    0.390662    0.991301
     17          1           0       -3.775509   -1.501032    1.797882
     18          1           0        2.216392    1.618697    1.552390
     19          8           0        4.974297    1.204556    1.241583
     20          1           0        4.908954    1.961524    2.152233
 ---------------------------------------------------------------------
 Rotational constants (GHZ):           1.3596140           0.2216780           0.2162666
 Standard basis: 6-311+G(d,p) (5D, 7F)
 There are   382 symmetry adapted cartesian basis functions of A   symmetry.
 There are   368 symmetry adapted basis functions of A   symmetry.
   368 basis functions,   594 primitive gaussians,   382 cartesian basis functions
    61 alpha electrons       61 beta electrons
       nuclear repulsion energy      1086.7956569354 Hartrees.
 NAtoms=   20 NActive=   20 NUniq=   20 SFac= 1.00D+00 NAtFMM=   60 NAOKFM=F Big=F
 Integral buffers will be    131072 words long.
 Raffenetti 2 integral format.
 Two-electron integral symmetry is turned on.
 Nuclear repulsion after empirical dispersion term =     1086.7857729741 Hartrees.
 One-electron integrals computed using PRISM.
 NBasis=   368 RedAO= T EigKep=  3.62D-06  NBF=   368
 NBsUse=   367 1.00D-06 EigRej=  5.40D-07 NBFU=   367
 Initial guess from the checkpoint file:  "/tmp/pbs.4766238[80].pbs/Gau-3830899.chk"
 B after Tr=     0.000000    0.000000    0.000000
         Rot=    0.999425   -0.033828    0.001884   -0.001243 Ang=  -3.89 deg.
 ExpMin= 4.05D-02 ExpMax= 9.34D+04 ExpMxC= 3.17D+03 IAcc=3 IRadAn=         5 AccDes= 0.00D+00
 Harris functional with IExCor= 4639 and IRadAn=       5 diagonalized for initial guess.
 HarFok:  IExCor= 4639 AccDes= 0.00D+00 IRadAn=         5 IDoV= 1 UseB2=F ITyADJ=14
 ICtDFT=  3500011 ScaDFX=  1.000000  1.000000  1.000000  1.000000
 FoFCou: FMM=F IPFlag=           0 FMFlag=      100000 FMFlg1=           0
         NFxFlg=           0 DoJE=T BraDBF=F KetDBF=T FulRan=T
         wScrn=  0.000000 ICntrl=       500 IOpCl=  0 I1Cent=   200000004 NGrid=           0
         NMat0=    1 NMatS0=      1 NMatT0=    0 NMatD0=    1 NMtDS0=    0 NMtDT0=    0
 Petite list used in FoFCou.
 Requested convergence on RMS density matrix=1.00D-08 within 128 cycles.
 Requested convergence on MAX density matrix=1.00D-06.
 Requested convergence on             energy=1.00D-06.
 No special actions if energy rises.
 SCF Done:  E(RwB97XD) =  -1654.29312023     A.U. after   15 cycles
            NFock= 15  Conv=0.55D-08     -V/T= 2.0029
 Calling FoFJK, ICntrl=      2127 FMM=F ISym2X=0 I1Cent= 0 IOpClX= 0 NMat=1 NMatS=1 NMatT=0.
 ***** Axes restored to original set *****
 -------------------------------------------------------------------
 Center     Atomic                   Forces (Hartrees/Bohr)
 Number     Number              X              Y              Z
 -------------------------------------------------------------------
      1        6          -0.038103511    0.024583065   -0.019639089
      2        6           0.006621737    0.021178216   -0.015209083
      3        6          -0.042478746    0.018002106    0.006648032
      4        6          -0.005101631    0.043473000   -0.007590281
      5       16          -0.000849240    0.024339551   -0.001028548
      6        1           0.001925975   -0.002934177   -0.001264283
      7        6           0.052093357    0.014175465    0.017190076
      8       16          -0.006005412   -0.005035655    0.014706883
      9        6           0.006200843    0.022688333    0.019406579
     10        6          -0.020293130    0.002315345   -0.024756137
     11        6          -0.032145259   -0.012262656   -0.031091625
     12        1          -0.003674562   -0.004471989    0.003320653
     13       16           0.008259785   -0.008445712   -0.012122029
     14        6          -0.039957798   -0.019326346   -0.018414559
     15        6           0.028056374    0.027052016    0.023906273
     16        1           0.003471151   -0.003258580    0.004759997
     17        1           0.004490359   -0.006877790    0.002241030
     18        1           0.011863789   -0.056636039    0.015836118
     19        8           0.035727891    0.031115702   -0.008519486
     20        1           0.029898026   -0.109673854    0.031619481
 -------------------------------------------------------------------
 Cartesian Forces:  Max     0.109673854 RMS     0.025885993

 GradGradGradGradGradGradGradGradGradGradGradGradGradGradGradGradGradGrad
 Berny optimization.
 Using GEDIIS/GDIIS optimizer.
 FormGI is forming the generalized inverse of G from B-inverse, IUseBI=4.
 Internal  Forces:  Max     0.114994337 RMS     0.020479825
 Search for a local minimum.
 Step number   2 out of a maximum of  116
 All quantities printed in internal units (Hartrees-Bohrs-Radians)
 Mixed Optimization -- RFO/linear search
 Update second derivatives using D2CorX and points    1    2
 DE= -7.04D-02 DEPred=-6.56D-02 R= 1.07D+00
 TightC=F SS=  1.41D+00  RLast= 3.07D-01 DXNew= 5.0454D-01 9.1954D-01
 Trust test= 1.07D+00 RLast= 3.07D-01 DXMaxT set to 5.05D-01
 ITU=  1  0
 Use linear search instead of GDIIS.
 Linear search step of   0.600 exceeds DXMaxT=   0.505 but not scaled.
 Quartic linear search produced a step of  2.00000.
 Iteration  1 RMS(Cart)=  0.10179276 RMS(Int)=  0.01797148
 Iteration  2 RMS(Cart)=  0.02001285 RMS(Int)=  0.00036427
 Iteration  3 RMS(Cart)=  0.00011747 RMS(Int)=  0.00035503
 Iteration  4 RMS(Cart)=  0.00000004 RMS(Int)=  0.00035503
 Iteration  1 RMS(Cart)=  0.00000679 RMS(Int)=  0.00000296
 Iteration  2 RMS(Cart)=  0.00000371 RMS(Int)=  0.00000331
 Iteration  3 RMS(Cart)=  0.00000202 RMS(Int)=  0.00000374
 Iteration  4 RMS(Cart)=  0.00000110 RMS(Int)=  0.00000402
 Iteration  5 RMS(Cart)=  0.00000060 RMS(Int)=  0.00000419
 Variable       Old X    -DE/DX   Delta X   Delta X   Delta X     New X
                                 (Linear)    (Quad)   (Total)
    R1        2.69859  -0.01254  -0.04115   0.00000  -0.04074   2.65786
    R2        2.65474  -0.04739  -0.11835   0.00000  -0.11817   2.53657
    R3        3.04869  -0.10127  -0.29268   0.00000  -0.29268   2.75601
    R4        2.69037  -0.05269  -0.13739   0.00000  -0.13722   2.55315
    R5        2.25915  -0.05791  -0.18297   0.00000  -0.18297   2.07618
    R6        3.36886  -0.01903  -0.05384   0.00000  -0.05415   3.31471
    R7        2.74575   0.00036  -0.00757   0.00000  -0.00757   2.73818
    R8        3.26494  -0.01252  -0.04354   0.00000  -0.04384   3.22110
    R9        2.04034  -0.00061  -0.00077   0.00000  -0.00077   2.03957
   R10        3.36345  -0.01341  -0.03873   0.00000  -0.03894   3.32451
   R11        2.70081  -0.05269  -0.13292   0.00000  -0.13296   2.56786
   R12        3.26307  -0.00275  -0.01244   0.00000  -0.01248   3.25059
   R13        2.68976  -0.02753  -0.06820   0.00000  -0.06778   2.62198
   R14        2.69158  -0.00016  -0.00583   0.00000  -0.00556   2.68602
   R15        2.69594  -0.00638  -0.02359   0.00000  -0.02342   2.67252
   R16        3.26930  -0.00118  -0.00688   0.00000  -0.00697   3.26233
   R17        2.04055   0.00124   0.00325   0.00000   0.00325   2.04381
   R18        3.31686  -0.01259  -0.03700   0.00000  -0.03730   3.27955
   R19        2.67403  -0.04630  -0.11467   0.00000  -0.11471   2.55932
   R20        2.04194  -0.00060  -0.00178   0.00000  -0.00178   2.04017
   R21        2.04918  -0.00223  -0.00653   0.00000  -0.00653   2.04265
   R22        2.24118  -0.11499  -0.31650   0.00000  -0.31650   1.92468
    A1        1.99151   0.01115   0.04261   0.00000   0.04317   2.03467
    A2        2.13957   0.00619   0.01395   0.00000   0.01373   2.15330
    A3        2.13390  -0.01675  -0.05377   0.00000  -0.05423   2.07968
    A4        1.96643  -0.00195  -0.01089   0.00000  -0.01031   1.95611
    A5        1.99555   0.01837   0.06443   0.00000   0.06414   2.05970
    A6        2.31665  -0.01625  -0.05247   0.00000  -0.05282   2.26383
    A7        1.90562   0.00239   0.00244   0.00000   0.00238   1.90800
    A8        2.30693  -0.00926  -0.02397   0.00000  -0.02394   2.28299
    A9        2.07049   0.00688   0.02155   0.00000   0.02158   2.09207
   A10        1.93478  -0.00855  -0.03722   0.00000  -0.03731   1.89747
   A11        2.19121   0.00776   0.03081   0.00000   0.03083   2.22203
   A12        2.15711   0.00081   0.00654   0.00000   0.00655   2.16367
   A13        1.62645  -0.00304   0.00310   0.00000   0.00207   1.62851
   A14        2.12387  -0.00404  -0.00991   0.00000  -0.00999   2.11388
   A15        2.23541  -0.00327  -0.00994   0.00000  -0.01002   2.22539
   A16        1.92334   0.00736   0.02008   0.00000   0.02021   1.94355
   A17        1.61287  -0.00547  -0.01272   0.00000  -0.01264   1.60022
   A18        1.95104  -0.00714  -0.02122   0.00000  -0.02186   1.92918
   A19        2.25182   0.00696   0.02624   0.00000   0.02548   2.27730
   A20        1.97172   0.00364   0.01304   0.00000   0.01326   1.98499
   A21        1.97360   0.00438   0.01549   0.00000   0.01554   1.98914
   A22        1.95340  -0.00858  -0.02687   0.00000  -0.02726   1.92614
   A23        2.25114   0.00743   0.02767   0.00000   0.02701   2.27815
   A24        1.96326   0.00091  -0.00154   0.00000  -0.00117   1.96210
   A25        2.15485  -0.00371  -0.01194   0.00000  -0.01230   2.14255
   A26        2.15474   0.00334   0.01664   0.00000   0.01630   2.17104
   A27        1.59478  -0.00060   0.00318   0.00000   0.00311   1.59788
   A28        1.96209   0.00256   0.00387   0.00000   0.00376   1.96584
   A29        2.12985  -0.00477  -0.01171   0.00000  -0.01206   2.11779
   A30        2.17663   0.00318   0.01331   0.00000   0.01305   2.18968
   A31        1.94246   0.00299   0.00679   0.00000   0.00714   1.94960
   A32        2.16934   0.00021   0.00691   0.00000   0.00630   2.17564
   A33        2.13933  -0.00158  -0.00443   0.00000  -0.00509   2.13424
   A34        2.23720  -0.05915  -0.20467   0.00000  -0.20467   2.03254
    D1        0.00340  -0.00098  -0.00686   0.00000  -0.00701  -0.00361
    D2        3.05582  -0.00028  -0.00014   0.00000   0.00054   3.05637
    D3       -2.93835  -0.00221  -0.01535   0.00000  -0.01637  -2.95472
    D4        0.11407  -0.00151  -0.00863   0.00000  -0.00881   0.10526
    D5       -0.00293   0.00118   0.00756   0.00000   0.00759   0.00466
    D6       -3.13081  -0.00049  -0.00123   0.00000  -0.00110  -3.13191
    D7        2.93955   0.00533   0.02515   0.00000   0.02465   2.96420
    D8       -0.18833   0.00367   0.01636   0.00000   0.01595  -0.17238
    D9       -0.13157   0.00118   0.00332   0.00000   0.00305  -0.12851
   D10       -3.05720  -0.00356  -0.01804   0.00000  -0.01778  -3.07498
   D11       -0.00225   0.00038   0.00326   0.00000   0.00296   0.00071
   D12        3.12013   0.00141   0.00502   0.00000   0.00473   3.12486
   D13       -3.03315  -0.00309  -0.01423   0.00000  -0.01404  -3.04719
   D14        0.08923  -0.00205  -0.01248   0.00000  -0.01226   0.07697
   D15        0.00052   0.00026   0.00093   0.00000   0.00106   0.00158
   D16       -3.12485  -0.00042   0.00002   0.00000   0.00006  -3.12479
   D17       -1.65797  -0.00166  -0.00000   0.00000   0.00000  -1.65797
   D18        1.44380   0.00057   0.00825   0.00000   0.00824   1.45205
   D19        1.46295  -0.00060   0.00165   0.00000   0.00170   1.46465
   D20       -1.71847   0.00162   0.00990   0.00000   0.00994  -1.70853
   D21        0.00134  -0.00081  -0.00483   0.00000  -0.00481  -0.00347
   D22        3.12954   0.00089   0.00406   0.00000   0.00377   3.13331
   D23        3.13941   0.00081   0.00345   0.00000   0.00344  -3.14034
   D24        0.03121  -0.00088  -0.00292   0.00000  -0.00306   0.02815
   D25       -3.14153  -0.00129  -0.00605   0.00000  -0.00592   3.13574
   D26       -0.14939   0.00290   0.01753   0.00000   0.01743  -0.13196
   D27       -0.03604   0.00053   0.00090   0.00000   0.00115  -0.03489
   D28        2.95610   0.00472   0.02448   0.00000   0.02451   2.98061
   D29       -0.01858   0.00133   0.00516   0.00000   0.00506  -0.01352
   D30       -2.63424  -0.00674  -0.03580   0.00000  -0.03585  -2.67010
   D31        0.00107  -0.00095  -0.00481   0.00000  -0.00467  -0.00360
   D32       -2.70954  -0.00915  -0.04313   0.00000  -0.04201  -2.75155
   D33        2.70522   0.00746   0.03572   0.00000   0.03499   2.74020
   D34       -0.00540  -0.00074  -0.00261   0.00000  -0.00235  -0.00775
   D35        2.63089   0.00601   0.03458   0.00000   0.03535   2.66623
   D36       -0.24639  -0.00032  -0.00068   0.00000  -0.00033  -0.24672
   D37        0.02020   0.00043   0.00177   0.00000   0.00160   0.02180
   D38       -2.85707  -0.00589  -0.03349   0.00000  -0.03407  -2.89115
   D39        0.02313   0.00028   0.00246   0.00000   0.00231   0.02545
   D40       -2.96902  -0.00321  -0.01807   0.00000  -0.01861  -2.98763
   D41        2.64280   0.00509   0.03063   0.00000   0.03145   2.67425
   D42       -0.34936   0.00160   0.01010   0.00000   0.01053  -0.33883
   D43       -0.00811   0.00085   0.00256   0.00000   0.00242  -0.00569
   D44       -2.63255  -0.00693  -0.03567   0.00000  -0.03550  -2.66805
   D45        0.01982  -0.00051  -0.00132   0.00000  -0.00133   0.01849
   D46        2.98650   0.00561   0.03131   0.00000   0.03088   3.01738
   D47       -0.02618   0.00022   0.00022   0.00000   0.00037  -0.02581
   D48        2.85640   0.00672   0.03689   0.00000   0.03702   2.89342
   D49       -2.98732  -0.00515  -0.03017   0.00000  -0.03039  -3.01771
   D50       -0.10474   0.00134   0.00649   0.00000   0.00626  -0.09848
         Item               Value     Threshold  Converged?
 Maximum Force            0.114994     0.000450     NO 
 RMS     Force            0.020576     0.000300     NO 
 Maximum Displacement     0.703327     0.001800     NO 
 RMS     Displacement     0.114145     0.001200     NO 
 Predicted change in Energy=-1.038275D-01
 GradGradGradGradGradGradGradGradGradGradGradGradGradGradGradGradGradGrad

                          Input orientation:                          
 ---------------------------------------------------------------------
 Center     Atomic      Atomic             Coordinates (Angstroms)
 Number     Number       Type             X           Y           Z
 ---------------------------------------------------------------------
      1          6           0       -4.170523   -1.363736   -0.239912
      2          6           0       -2.881288   -0.970888   -0.642059
      3          6           0       -2.009367   -2.002885   -0.630922
      4          6           0       -4.332331   -2.657863    0.077581
      5         16           0       -2.839206   -3.458149   -0.110987
      6          1           0       -5.241158   -3.144385    0.397285
      7          6           0       -0.604854   -2.059691   -0.982575
      8         16           0       -0.089640   -2.549513   -2.591800
      9          6           0        1.568034   -2.355417   -2.175485
     10          6           0        1.692609   -1.917553   -0.864802
     11          6           0        0.457665   -1.734796   -0.200287
     12          1           0        0.349328   -1.272061    0.771236
     13         16           0        3.216792   -1.140634   -0.633401
     14          6           0        3.664572   -1.422358   -2.286266
     15          6           0        2.694533   -2.054890   -2.988512
     16          1           0        4.564689   -0.997511   -2.704415
     17          1           0        2.705514   -2.109379   -4.068007
     18          1           0       -2.740583    0.063215   -0.985435
     19          8           0       -5.347206   -0.512749   -0.374921
     20          1           0       -5.181580    0.446244   -0.675317
 ---------------------------------------------------------------------
                    Distance matrix (angstroms):
                    1          2          3          4          5
     1  C    0.000000
     2  C    1.406478   0.000000
     3  C    2.287356   1.351069   0.000000
     4  C    1.342293   2.338652   2.515379   0.000000
     5  S    2.485075   2.543674   1.754069   1.704534   0.000000
     6  H    2.173244   3.372435   3.578366   1.079297   2.475109
     7  C    3.708086   2.546291   1.448980   3.921202   2.776271
     8  S    4.857062   3.753245   2.798071   5.013757   3.813158
     9  C    6.136849   4.905587   3.912513   6.323139   4.990184
    10  C    5.922290   4.676144   3.710338   6.142967   4.845515
    11  C    4.643208   3.453596   2.518643   4.886033   3.721193
    12  H    4.632482   3.539066   2.839647   4.931484   3.965356
    13  S    7.401151   6.100448   5.296813   7.732835   6.505299
    14  C    8.098130   6.764282   5.938919   8.429988   7.153699
    15  C    7.427079   6.145786   5.261902   7.690339   6.393087
    16  H    9.083602   7.726357   6.966230   9.468539   8.221817
    17  H    7.905073   6.651740   5.835667   8.186452   6.944143
    18  H    2.153305   1.098669   2.220164   3.326850   3.629655
    19  O    1.458420   2.522302   3.664316   2.415832   3.877513
    20  H    2.118452   2.701983   4.007884   3.305081   4.587970
                    6          7          8          9         10
     6  H    0.000000
     7  C    4.957408   0.000000
     8  S    5.985536   1.759255   0.000000
     9  C    7.321661   2.496384   1.720138   0.000000
    10  C    7.153678   2.304866   2.560919   1.387492   0.000000
    11  C    5.900900   1.358851   2.585080   2.349361   1.414237
    12  H    5.907536   2.146317   3.624168   3.367799   2.213071
    13  S    8.752957   3.946082   4.093014   2.563616   1.726350
    14  C    9.459326   4.509301   3.931658   2.297464   2.480809
    15  C    8.696311   3.861316   2.855460   1.421382   2.352203
    16  H   10.506391   5.551318   4.907562   3.332208   3.532634
    17  H    9.173858   4.525583   3.191519   2.221719   3.365011
    18  H    4.295753   3.011325   4.053918   5.082340   4.857076
    19  O    2.744641   5.025155   6.058462   7.379567   7.195308
    20  H    3.747885   5.226905   6.210903   7.460369   7.271720
                   11         12         13         14         15
    11  C    0.000000
    12  H    1.081535   0.000000
    13  S    2.855416   3.195720   0.000000
    14  C    3.838382   4.512399   1.735464   0.000000
    15  C    3.588905   4.499835   2.579761   1.354334   0.000000
    16  H    4.866404   5.470356   2.475158   1.079609   2.167082
    17  H    4.489142   5.447108   3.605050   2.136911   1.080925
    18  H    3.752078   3.796894   6.087980   6.702618   6.167590
    19  O    5.934680   5.860097   8.590874   9.257039   8.595268
    20  H    6.064954   5.969592   8.547081   9.183748   8.581357
                   16         17         18         19         20
    16  H    0.000000
    17  H    2.559719   0.000000
    18  H    7.579381   6.624378   0.000000
    19  O   10.193488   9.001912   2.738421   0.000000
    20  H   10.059394   8.958114   2.490251   1.018498   0.000000
 Stoichiometry    C10H6OS3
 Framework group  C1[X(C10H6OS3)]
 Deg. of freedom    54
 Full point group                 C1      NOp   1
 Largest Abelian subgroup         C1      NOp   1
 Largest concise Abelian subgroup C1      NOp   1
                         Standard orientation:                         
 ---------------------------------------------------------------------
 Center     Atomic      Atomic             Coordinates (Angstroms)
 Number     Number       Type             X           Y           Z
 ---------------------------------------------------------------------
      1          6           0        3.687326    0.565633    0.433142
      2          6           0        2.329210    0.742284    0.753293
      3          6           0        1.516772    0.070122   -0.091415
      4          6           0        3.958575   -0.218885   -0.621706
      5         16           0        2.488967   -0.777892   -1.279888
      6          1           0        4.931108   -0.477449   -1.011841
      7          6           0        0.072819   -0.045718   -0.124973
      8         16           0       -0.748291   -1.402946    0.635741
[...]
 Deg. of freedom    54
 Full point group                 C1      NOp   1
 Largest Abelian subgroup         C1      NOp   1
 Largest concise Abelian subgroup C1      NOp   1
                         Standard orientation:                         
 ---------------------------------------------------------------------
 Center     Atomic      Atomic             Coordinates (Angstroms)
 Number     Number       Type             X           Y           Z
 ---------------------------------------------------------------------
      1          6           0        3.776748    0.421991    0.506521
      2          6           0        2.405592    0.535166    0.879080
      3          6           0        1.559491    0.038877   -0.070473
      4          6           0        3.950728   -0.161760   -0.711861
      5         16           0        2.440923   -0.578134   -1.425752
      6          1           0        4.883414   -0.359915   -1.215847
      7          6           0        0.094942   -0.009577   -0.020727
      8         16           0       -0.722207   -1.455300    0.541158
      9          6           0       -2.265836   -0.705556    0.325991
     10          6           0       -2.126326    0.584577   -0.148377
     11          6           0       -0.776402    0.985371   -0.349447
     12          1           0       -0.452849    1.948708   -0.718533
     13         16           0       -3.671974    1.334684   -0.362265
     14          6           0       -4.474167   -0.102478    0.191786
     15          6           0       -3.619362   -1.105742    0.523297
     16          1           0       -5.552810   -0.118483    0.238992
     17          1           0       -3.938743   -2.072366    0.886175
     18          1           0        2.055050    0.962684    1.810622
     19          8           0        4.825318    0.842673    1.262522
     20          1           0        4.503069    1.192779    2.093424
 ---------------------------------------------------------------------
 Rotational constants (GHZ):           1.4885057           0.2272484           0.2212821

 **********************************************************************

            Population analysis using the SCF Density.

 **********************************************************************

 Orbital symmetries:
       Occupied  (A) (A) (A) (A) (A) (A) (A) (A) (A) (A) (A) (A)
                 (A) (A) (A) (A) (A) (A) (A) (A) (A) (A) (A) (A)
                 (A) (A) (A) (A) (A) (A) (A) (A) (A) (A) (A) (A)
                 (A) (A) (A) (A) (A) (A) (A) (A) (A) (A) (A) (A)
                 (A) (A) (A) (A) (A) (A) (A) (A) (A) (A) (A) (A)
                 (A)
       Virtual   (A) (A) (A) (A) (A) (A) (A) (A) (A) (A) (A) (A)
                 (A) (A) (A) (A) (A) (A) (A) (A) (A) (A) (A) (A)
                 (A) (A) (A) (A) (A) (A) (A) (A) (A) (A) (A) (A)
                 (A) (A) (A) (A) (A) (A) (A) (A) (A) (A) (A) (A)
                 (A) (A) (A) (A) (A) (A) (A) (A) (A) (A) (A) (A)
                 (A) (A) (A) (A) (A) (A) (A) (A) (A) (A) (A) (A)
                 (A) (A) (A) (A) (A) (A) (A) (A) (A) (A) (A) (A)
                 (A) (A) (A) (A) (A) (A) (A) (A) (A) (A) (A) (A)
                 (A) (A) (A) (A) (A) (A) (A) (A) (A) (A) (A) (A)
                 (A) (A) (A) (A) (A) (A) (A) (A) (A) (A) (A) (A)
                 (A) (A) (A) (A) (A) (A) (A) (A) (A) (A) (A) (A)
                 (A) (A) (A) (A) (A) (A) (A) (A) (A) (A) (A) (A)
                 (A) (A) (A) (A) (A) (A) (A) (A) (A) (A) (A) (A)
                 (A) (A) (A) (A) (A) (A) (A) (A) (A) (A) (A) (A)
                 (A) (A) (A) (A) (A) (A) (A) (A) (A) (A) (A) (A)
                 (A) (A) (A) (A) (A) (A) (A) (A) (A) (A) (A) (A)
                 (A) (A) (A) (A) (A) (A) (A) (A) (A) (A) (A) (A)
                 (A) (A) (A) (A) (A) (A) (A) (A) (A) (A) (A) (A)
                 (A) (A) (A) (A) (A) (A) (A) (A) (A) (A) (A) (A)
                 (A) (A) (A) (A) (A) (A) (A) (A) (A) (A) (A) (A)
                 (A) (A) (A) (A) (A) (A) (A) (A) (A) (A) (A) (A)
                 (A) (A) (A) (A) (A) (A) (A) (A) (A) (A) (A) (A)
                 (A) (A) (A) (A) (A) (A) (A) (A) (A) (A) (A) (A)
                 (A) (A) (A) (A) (A) (A) (A) (A) (A) (A) (A) (A)
                 (A) (A) (A) (A) (A) (A) (A) (A) (A) (A) (A) (A)
                 (A) (A) (A) (A) (A) (A)
 The electronic state is 1-A.
 Alpha  occ. eigenvalues --  -89.05375 -89.05340 -89.05129 -19.28775 -10.35743
 Alpha  occ. eigenvalues --  -10.33975 -10.33811 -10.32748 -10.32661 -10.32653
 Alpha  occ. eigenvalues --  -10.30975 -10.30825 -10.30799 -10.30328  -8.09420
 Alpha  occ. eigenvalues --   -8.09378  -8.09184  -6.04269  -6.04230  -6.04018
 Alpha  occ. eigenvalues --   -6.03896  -6.03857  -6.03636  -6.03483  -6.03428
 Alpha  occ. eigenvalues --   -6.03282  -1.17835  -1.02536  -0.99810  -0.95580
 Alpha  occ. eigenvalues --   -0.87451  -0.86078  -0.84109  -0.81397  -0.80344
 Alpha  occ. eigenvalues --   -0.72279  -0.67807  -0.66896  -0.64273  -0.63383
 Alpha  occ. eigenvalues --   -0.63094  -0.58872  -0.57055  -0.52387  -0.52291
 Alpha  occ. eigenvalues --   -0.51963  -0.50659  -0.50492  -0.48227  -0.47787
 Alpha  occ. eigenvalues --   -0.46019  -0.45412  -0.44279  -0.43792  -0.42471
 Alpha  occ. eigenvalues --   -0.42399  -0.37215  -0.33446  -0.31242  -0.30442
 Alpha  occ. eigenvalues --   -0.29796
 Alpha virt. eigenvalues --    0.02016   0.03405   0.05010   0.05523   0.06070
 Alpha virt. eigenvalues --    0.06884   0.07017   0.07391   0.07522   0.08492
 Alpha virt. eigenvalues --    0.08962   0.09286   0.09799   0.10081   0.10281
 Alpha virt. eigenvalues --    0.10900   0.11341   0.11588   0.12050   0.13235
 Alpha virt. eigenvalues --    0.13489   0.13983   0.14202   0.14348   0.15029
 Alpha virt. eigenvalues --    0.15512   0.15922   0.16271   0.17118   0.17401
 Alpha virt. eigenvalues --    0.17882   0.18144   0.18545   0.18997   0.19476
 Alpha virt. eigenvalues --    0.19970   0.20374   0.21160   0.21283   0.21434
 Alpha virt. eigenvalues --    0.21886   0.22202   0.22828   0.23004   0.23437
 Alpha virt. eigenvalues --    0.23784   0.24187   0.24939   0.25206   0.25339
 Alpha virt. eigenvalues --    0.26043   0.26631   0.26872   0.27561   0.27658
 Alpha virt. eigenvalues --    0.27849   0.28066   0.28680   0.29677   0.29813
 Alpha virt. eigenvalues --    0.30208   0.30998   0.31194   0.31918   0.32384
 Alpha virt. eigenvalues --    0.33583   0.33892   0.34654   0.35148   0.35367
 Alpha virt. eigenvalues --    0.36492   0.37750   0.38511   0.39328   0.40034
 Alpha virt. eigenvalues --    0.40521   0.40772   0.41558   0.41979   0.43207
 Alpha virt. eigenvalues --    0.43966   0.44532   0.46613   0.47061   0.48537
 Alpha virt. eigenvalues --    0.50231   0.51355   0.51987   0.53614   0.54649
 Alpha virt. eigenvalues --    0.55820   0.57328   0.59397   0.61134   0.61968
 Alpha virt. eigenvalues --    0.62849   0.63758   0.63997   0.64938   0.65601
 Alpha virt. eigenvalues --    0.66369   0.67038   0.68613   0.68834   0.69933
 Alpha virt. eigenvalues --    0.70195   0.70558   0.72248   0.72676   0.73477
 Alpha virt. eigenvalues --    0.75631   0.77543   0.78208   0.79035   0.79835
 Alpha virt. eigenvalues --    0.80029   0.80882   0.81308   0.82694   0.83881
 Alpha virt. eigenvalues --    0.84671   0.85830   0.86203   0.87238   0.87697
 Alpha virt. eigenvalues --    0.88893   0.89565   0.90759   0.90846   0.91644
 Alpha virt. eigenvalues --    0.91805   0.92893   0.93396   0.94233   0.95479
 Alpha virt. eigenvalues --    0.96775   0.97838   0.97955   0.99892   1.02159
 Alpha virt. eigenvalues --    1.02368   1.04003   1.04801   1.05600   1.06892
 Alpha virt. eigenvalues --    1.07645   1.09458   1.11761   1.12529   1.13594
 Alpha virt. eigenvalues --    1.14079   1.15200   1.15447   1.16077   1.16846
 Alpha virt. eigenvalues --    1.19052   1.20583   1.22130   1.24270   1.26022
 Alpha virt. eigenvalues --    1.27258   1.28777   1.30465   1.31454   1.36798
 Alpha virt. eigenvalues --    1.42805   1.43883   1.44986   1.46568   1.49751
 Alpha virt. eigenvalues --    1.51123   1.57467   1.58567   1.62495   1.62971
 Alpha virt. eigenvalues --    1.64321   1.66269   1.67453   1.68052   1.68483
 Alpha virt. eigenvalues --    1.69597   1.70004   1.73006   1.73941   1.76978
 Alpha virt. eigenvalues --    1.79133   1.79387   1.81989   1.82344   1.83335
 Alpha virt. eigenvalues --    1.85213   1.86880   1.87425   1.89670   1.91608
 Alpha virt. eigenvalues --    1.94798   1.95755   1.96735   1.97560   1.98745
 Alpha virt. eigenvalues --    2.02116   2.03156   2.05569   2.06205   2.06955
 Alpha virt. eigenvalues --    2.07902   2.10352   2.11375   2.12328   2.13170
 Alpha virt. eigenvalues --    2.14603   2.15515   2.17067   2.17834   2.18639
 Alpha virt. eigenvalues --    2.19745   2.21379   2.23764   2.26574   2.27043
 Alpha virt. eigenvalues --    2.27950   2.30415   2.36643   2.42060   2.42863
 Alpha virt. eigenvalues --    2.48911   2.50845   2.53466   2.62092   2.62514
 Alpha virt. eigenvalues --    2.66192   2.68527   2.71881   2.78269   2.78555
 Alpha virt. eigenvalues --    2.79399   2.80817   2.81562   2.82210   2.83626
 Alpha virt. eigenvalues --    2.83796   2.88909   2.92213   2.93680   2.97128
 Alpha virt. eigenvalues --    2.99108   3.01950   3.04896   3.06221   3.08318
 Alpha virt. eigenvalues --    3.12500   3.16747   3.17779   3.22579   3.23891
 Alpha virt. eigenvalues --    3.27074   3.27359   3.31827   3.36284   3.40304
 Alpha virt. eigenvalues --    3.42234   3.43049   3.45466   3.53745   3.56017
 Alpha virt. eigenvalues --    3.58089   3.66774   3.72776   3.75540   3.97220
 Alpha virt. eigenvalues --    3.97838   4.07365   4.19051   4.22052   4.30623
 Alpha virt. eigenvalues --    4.45737   4.58574   5.11272   5.53836   5.86359
 Alpha virt. eigenvalues --    8.09140   8.10135   8.11221  17.41920  17.43809
 Alpha virt. eigenvalues --   17.44641  17.59467  17.61462  17.64638  17.65059
 Alpha virt. eigenvalues --   17.67760  17.70602  23.60675  23.76386  23.89418
 Alpha virt. eigenvalues --   23.93769  23.98083  24.17048  24.23406  24.25666
 Alpha virt. eigenvalues --   24.29175  24.30260  50.07750 189.33684 189.35264
 Alpha virt. eigenvalues --  189.36554
          Condensed to atoms (all electrons):
               1          2          3          4          5          6
     1  C    7.694581  -1.795008   0.011246  -0.796721   0.897159   0.036921
     2  C   -1.795008  11.242578  -1.099915   0.643364  -1.849442  -0.044800
     3  C    0.011246  -1.099915   7.817928  -0.523967   0.380972   0.030363
     4  C   -0.796721   0.643364  -0.523967   7.019468  -0.521326   0.369501
     5  S    0.897159  -1.849442   0.380972  -0.521326  16.737550  -0.017737
     6  H    0.036921  -0.044800   0.030363   0.369501  -0.017737   0.442352
     7  C    0.223610  -0.913410   0.735197  -0.260835   0.146387   0.002768
     8  S   -0.089264   0.368191   0.505065   0.093895  -0.031050  -0.000277
     9  C    0.097794  -0.367768  -1.022716  -0.049919   0.116639  -0.000006
    10  C   -0.039521   0.269205   1.097299   0.040710   0.060891  -0.000345
    11  C    0.223231  -0.753703  -2.089704  -0.116449   0.250017  -0.000804
    12  H   -0.000024  -0.002085   0.047919   0.001867  -0.004903  -0.000001
    13  S   -0.000678  -0.022636   0.020322   0.000410   0.000572  -0.000000
    14  C    0.000702   0.004769  -0.004277   0.000214   0.002968  -0.000001
    15  C    0.016366  -0.143135  -0.091089  -0.006927   0.007011   0.000003
    16  H   -0.000001  -0.000007  -0.000110  -0.000000   0.000001   0.000000
    17  H   -0.000001  -0.000112  -0.000369   0.000001   0.000031   0.000000
    18  H   -0.067506   0.311075   0.119775  -0.056236   0.014766   0.000008
    19  O    0.196788   0.071706  -0.011832  -0.224363   0.002400  -0.005164
    20  H    0.023028  -0.109631  -0.000753   0.101189  -0.007219   0.000161
               7          8          9         10         11         12
     1  C    0.223610  -0.089264   0.097794  -0.039521   0.223231  -0.000024
     2  C   -0.913410   0.368191  -0.367768   0.269205  -0.753703  -0.002085
     3  C    0.735197   0.505065  -1.022716   1.097299  -2.089704   0.047919
     4  C   -0.260835   0.093895  -0.049919   0.040710  -0.116449   0.001867
     5  S    0.146387  -0.031050   0.116639   0.060891   0.250017  -0.004903
     6  H    0.002768  -0.000277  -0.000006  -0.000345  -0.000804  -0.000001
     7  C    9.780703   1.422197  -0.901798   2.664734  -4.079864   0.071948
     8  S    1.422197  18.354602  -0.338146   2.450020  -4.533685   0.019655
     9  C   -0.901798  -0.338146  19.590581  -4.792223   0.611440  -0.065552
    10  C    2.664734   2.450020  -4.792223  18.468105 -10.499030   0.078192
    11  C   -4.079864  -4.533685   0.611440 -10.499030  22.247159   0.207783
    12  H    0.071948   0.019655  -0.065552   0.078192   0.207783   0.475068
    13  S   -0.647682   0.191331   0.266312  -0.629898  -0.498624   0.007562
    14  C    0.079796   0.269031   1.625927  -0.233828  -0.858078   0.002097
    15  C   -2.145595  -2.168121  -9.042455  -2.430782   5.176573  -0.006499
    16  H    0.002178  -0.001908  -0.019746   0.029947   0.010425  -0.000004
    17  H   -0.005010   0.015131   0.022652  -0.047047  -0.004446   0.000003
    18  H    0.044688  -0.000028  -0.004594   0.001731  -0.002250  -0.000080
    19  O   -0.006619   0.000702  -0.000842   0.000953  -0.001495   0.000005
    20  H    0.000830   0.000368  -0.000178  -0.000184   0.000528  -0.000003
              13         14         15         16         17         18
     1  C   -0.000678   0.000702   0.016366  -0.000001  -0.000001  -0.067506
     2  C   -0.022636   0.004769  -0.143135  -0.000007  -0.000112   0.311075
     3  C    0.020322  -0.004277  -0.091089  -0.000110  -0.000369   0.119775
     4  C    0.000410   0.000214  -0.006927  -0.000000   0.000001  -0.056236
     5  S    0.000572   0.002968   0.007011   0.000001   0.000031   0.014766
     6  H   -0.000000  -0.000001   0.000003   0.000000   0.000000   0.000008
     7  C   -0.647682   0.079796  -2.145595   0.002178  -0.005010   0.044688
     8  S    0.191331   0.269031  -2.168121  -0.001908   0.015131  -0.000028
     9  C    0.266312   1.625927  -9.042455  -0.019746   0.022652  -0.004594
    10  C   -0.629898  -0.233828  -2.430782   0.029947  -0.047047   0.001731
    11  C   -0.498624  -0.858078   5.176573   0.010425  -0.004446  -0.002250
    12  H    0.007562   0.002097  -0.006499  -0.000004   0.000003  -0.000080
    13  S   17.413337   0.448042  -0.092294  -0.043560   0.008045   0.000022
    14  C    0.448042   5.795049  -1.333118   0.374553   0.028904   0.000015
    15  C   -0.092294  -1.333118  17.621526   0.016227   0.343049  -0.001332
    16  H   -0.043560   0.374553   0.016227   0.441230  -0.003666  -0.000000
    17  H    0.008045   0.028904   0.343049  -0.003666   0.479235   0.000000
    18  H    0.000022   0.000015  -0.001332  -0.000000   0.000000   0.493113
    19  O   -0.000027   0.000004  -0.000130   0.000000   0.000000  -0.003128
    20  H   -0.000004   0.000000  -0.000012  -0.000000  -0.000000   0.001351
              19         20
     1  C    0.196788   0.023028
     2  C    0.071706  -0.109631
     3  C   -0.011832  -0.000753
     4  C   -0.224363   0.101189
     5  S    0.002400  -0.007219
     6  H   -0.005164   0.000161
     7  C   -0.006619   0.000830
     8  S    0.000702   0.000368
     9  C   -0.000842  -0.000178
    10  C    0.000953  -0.000184
    11  C   -0.001495   0.000528
    12  H    0.000005  -0.000003
    13  S   -0.000027  -0.000004
    14  C    0.000004   0.000000
    15  C   -0.000130  -0.000012
    16  H    0.000000  -0.000000
    17  H    0.000000  -0.000000
    18  H   -0.003128   0.001351
    19  O    7.989617   0.269065
    20  H    0.269065   0.453857
 Mulliken charges:
               1
     1  C   -0.632703
     2  C    0.190764
     3  C    0.078647
     4  C    0.286127
     5  S   -0.185687
     6  H    0.187058
     7  C   -0.214223
     8  S   -0.527711
     9  C    0.274598
    10  C   -0.488930
    11  C    0.710977
    12  H    0.167052
    13  S   -0.420554
    14  C   -0.202768
    15  C    0.280732
    16  H    0.194440
    17  H    0.163602
    18  H    0.148611
    19  O   -0.277639
    20  H    0.267608
 Sum of Mulliken charges =  -0.00000
 Mulliken charges with hydrogens summed into heavy atoms:
               1
     1  C   -0.632703
     2  C    0.339374
     3  C    0.078647
     4  C    0.473186
     5  S   -0.185687
     7  C   -0.214223
     8  S   -0.527711
     9  C    0.274598
    10  C   -0.488930
    11  C    0.878029
    13  S   -0.420554
    14  C   -0.008328
    15  C    0.444334
    19  O   -0.010031
 Electronic spatial extent (au):  <R**2>=           4753.8290
 Charge=             -0.0000 electrons
 Dipole moment (field-independent basis, Debye):
    X=             -1.1841    Y=              0.5952    Z=              1.4310  Tot=              1.9504
 Quadrupole moment (field-independent basis, Debye-Ang):
   XX=            -96.7398   YY=            -99.5802   ZZ=            -98.4998
   XY=              4.1061   XZ=              1.3823   YZ=              1.6173
 Traceless Quadrupole moment (field-independent basis, Debye-Ang):
   XX=              1.5335   YY=             -1.3069   ZZ=             -0.2266
   XY=              4.1061   XZ=              1.3823   YZ=              1.6173
 Octapole moment (field-independent basis, Debye-Ang**2):
  XXX=            -80.6645  YYY=              3.8620  ZZZ=             18.4532  XYY=             -1.3466
  XXY=            -16.0772  XXZ=              8.1301  XZZ=             38.7057  YZZ=              8.6809
  YYZ=              6.6986  XYZ=             21.6861
 Hexadecapole moment (field-independent basis, Debye-Ang**3):
 XXXX=          -5211.8465 YYYY=           -609.3096 ZZZZ=           -439.4425 XXXY=             10.0169
 XXXZ=            -73.9778 YYYX=             38.0604 YYYZ=             -6.6916 ZZZX=             85.4692
 ZZZY=             34.6928 XXYY=           -994.3332 XXZZ=           -905.9389 YYZZ=           -170.8822
 XXYZ=             38.2609 YYXZ=             17.0689 ZZXY=             37.3626
 N-N= 1.108264638323D+03 E-N=-6.127915376374D+03  KE= 1.651136657066D+03
 Unable to Open any file for archive entry.
 1\1\GINC-CX3-5-23\FOpt\RwB97XD\6-311+G(d,p)\C10H6O1S3\NS5018\26-Oct-20
 21\0\\# opt=modredundant wb97xd/6-311+g(d,p)\\pg2T_TT_-95.pdb\\0,1\C,-
 4.2771697131,-1.3978664876,-0.2600266133\C,-2.9863007422,-0.9762619585
 ,-0.6931386678\C,-2.0688978139,-1.9871451934,-0.6750124095\C,-4.321976
 9388,-2.7179967405,0.0727449261\S,-2.7855976768,-3.4660775219,-0.13324
 93796\H,-5.1745018575,-3.2753701932,0.4272943354\C,-0.6547355347,-1.91
 3445642,-1.0550637497\S,-0.1519992118,-2.3521924701,-2.6762719378\C,1.
 4944081576,-1.9773584686,-2.3020472113\C,1.6166990278,-1.5384218922,-0
 .9977036345\C,0.3886550749,-1.5022772075,-0.2807927561\H,0.2683844001,
 -1.1958952901,0.7490599548\S,3.2649104568,-1.162277544,-0.6244105956\C
 ,3.7555575155,-1.6023731207,-2.2311158562\C,2.7266871837,-2.0158771811
 ,-3.0169720185\H,4.798027916,-1.5274997597,-2.5024188277\H,2.843478618
 2,-2.32932943,-4.0446656034\H,-2.742362412,0.0309793882,-1.0083836794\
 O,-5.3699409983,-0.5937456373,-0.1748675035\H,-5.1473254513,0.28543235
 01,-0.4819587726\\Version=ES64L-G16RevC.01\State=1-A\HF=-1654.4098607\
 RMSD=5.890e-09\RMSF=1.429e-04\Dipole=0.3919646,0.604877,-0.2632503\Qua
 drupole=0.5212137,0.446051,-0.9672648,-2.6776198,-2.2266442,0.3561456\
 PG=C01 [X(C10H6O1S3)]\\@
 The archive entry for this job was punched.


 EDUCATION IS NOT TRAINING BUT RATHER THE PROCESS THAT EQUIPS YOU TO
 ENTERTAIN YOURSELF, A FRIEND, OR AN IDEA.  -- WALLACE STERLING
 Job cpu time:       0 days  3 hours 37 minutes  6.5 seconds.
 Elapsed time:       0 days  0 hours 27 minutes 23.7 seconds.
 File lengths (MBytes):  RWF=     86 Int=      0 D2E=      0 Chk=     11 Scr=      1
 Normal termination of Gaussian 16 at Tue Oct 26 22:49:27 2021.
