 Entering Gaussian System, Link 0=g16
 Input=pg2T_TT_105.gjf
 Output=pg2T_TT_105.log
 Initial command:
 /apps/gaussian/g16-c01-avx/g16/l1.exe "/tmp/pbs.4766238[280].pbs/Gau-1779988.inp" -scrdir="/tmp/pbs.4766238[280].pbs/"
 Entering Link 1 = /apps/gaussian/g16-c01-avx/g16/l1.exe PID=   1779989.
  
 Copyright (c) 1988-2019, Gaussian, Inc.  All Rights Reserved.
  
 This is part of the Gaussian(R) 16 program.  It is based on
 the Gaussian(R) 09 system (copyright 2009, Gaussian, Inc.),
 the Gaussian(R) 03 system (copyright 2003, Gaussian, Inc.),
 the Gaussian(R) 98 system (copyright 1998, Gaussian, Inc.),
 the Gaussian(R) 94 system (copyright 1995, Gaussian, Inc.),
 the Gaussian 92(TM) system (copyright 1992, Gaussian, Inc.),
 the Gaussian 90(TM) system (copyright 1990, Gaussian, Inc.),
 the Gaussian 88(TM) system (copyright 1988, Gaussian, Inc.),
 the Gaussian 86(TM) system (copyright 1986, Carnegie Mellon
 University), and the Gaussian 82(TM) system (copyright 1983,
 Carnegie Mellon University). Gaussian is a federally registered
 trademark of Gaussian, Inc.
  
 This software contains proprietary and confidential information,
 including trade secrets, belonging to Gaussian, Inc.
  
 This software is provided under written license and may be
 used, copied, transmitted, or stored only in accord with that
 written license.
  
 The following legend is applicable only to US Government
 contracts under FAR:
  
                    RESTRICTED RIGHTS LEGEND
  
 Use, reproduction and disclosure by the US Government is
 subject to restrictions as set forth in subparagraphs (a)
 and (c) of the Commercial Computer Software - Restricted
 Rights clause in FAR 52.227-19.
  
 Gaussian, Inc.
 340 Quinnipiac St., Bldg. 40, Wallingford CT 06492
  
  
 ---------------------------------------------------------------
 Warning -- This program may not be used in any manner that
 competes with the business of Gaussian, Inc. or will provide
 assistance to any competitor of Gaussian, Inc.  The licensee
 of this program is prohibited from giving any competitor of
 Gaussian, Inc. access to this program.  By using this program,
 the user acknowledges that Gaussian, Inc. is engaged in the
 business of creating and licensing software in the field of
 computational chemistry and represents and warrants to the
 licensee that it is not a competitor of Gaussian, Inc. and that
 it will not use this program in any manner prohibited above.
 ---------------------------------------------------------------
  

 Cite this work as:
 Gaussian 16, Revision C.01,
 M. J. Frisch, G. W. Trucks, H. B. Schlegel, G. E. Scuseria, 
 M. A. Robb, J. R. Cheeseman, G. Scalmani, V. Barone, 
 G. A. Petersson, H. Nakatsuji, X. Li, M. Caricato, A. V. Marenich, 
 J. Bloino, B. G. Janesko, R. Gomperts, B. Mennucci, H. P. Hratchian, 
 J. V. Ortiz, A. F. Izmaylov, J. L. Sonnenberg, D. Williams-Young, 
 F. Ding, F. Lipparini, F. Egidi, J. Goings, B. Peng, A. Petrone, 
 T. Henderson, D. Ranasinghe, V. G. Zakrzewski, J. Gao, N. Rega, 
 G. Zheng, W. Liang, M. Hada, M. Ehara, K. Toyota, R. Fukuda, 
 J. Hasegawa, M. Ishida, T. Nakajima, Y. Honda, O. Kitao, H. Nakai, 
 T. Vreven, K. Throssell, J. A. Montgomery, Jr., J. E. Peralta, 
 F. Ogliaro, M. J. Bearpark, J. J. Heyd, E. N. Brothers, K. N. Kudin, 
 V. N. Staroverov, T. A. Keith, R. Kobayashi, J. Normand, 
 K. Raghavachari, A. P. Rendell, J. C. Burant, S. S. Iyengar, 
 J. Tomasi, M. Cossi, J. M. Millam, M. Klene, C. Adamo, R. Cammi, 
 J. W. Ochterski, R. L. Martin, K. Morokuma, O. Farkas, 
 J. B. Foresman, and D. J. Fox, Gaussian, Inc., Wallingford CT, 2019.
 
 ******************************************
 Gaussian 16:  ES64L-G16RevC.01  3-Jul-2019
                27-Oct-2021 
 ******************************************
 %mem=10GB
 %nprocshared=8
 Will use up to    8 processors via shared memory.
 --------------------------------------
 # opt=modredundant wb97xd/6-311+g(d,p)
 --------------------------------------
 1/18=120,19=15,26=3,38=1/1,3;
 2/9=110,12=2,17=6,18=5,40=1/2;
 3/5=4,6=6,7=111,11=2,25=1,30=1,71=1,74=-58/1,2,3;
 4//1;
 5/5=2,38=5/2;
 6/7=2,8=2,9=2,10=2,28=1/1;
 7//1,2,3,16;
 1/18=20,19=15,26=3/3(2);
 2/9=110/2;
 99//99;
 2/9=110/2;
 3/5=4,6=6,7=111,11=2,25=1,30=1,71=1,74=-58/1,2,3;
 4/5=5,16=3,69=1/1;
 5/5=2,38=5/2;
 7//1,2,3,16;
 1/18=20,19=15,26=3/3(-5);
 2/9=110/2;
 6/7=2,8=2,9=2,10=2,19=2,28=1/1;
 99/9=1/99;
 ---------------
 pg2T_TT_105.pdb
 ---------------
 Symbolic Z-matrix:
 Charge =  0 Multiplicity = 1
 C                    -4.25     -1.36     -0.21 
 C                    -2.93     -0.95     -0.61 
 C                    -1.97     -2.05     -0.62 
 C                    -4.33     -2.76      0.1 
 S                    -2.8      -3.56     -0.11 
 H                    -5.23     -3.27      0.41 
 C                    -0.56     -2.13     -0.97 
 S                     0.72     -2.263     0.275 
 C                     1.982    -2.308    -0.908 
 C                     1.474    -2.253    -2.255 
 C                     0.045    -2.17     -2.303 
 H                    -0.52     -2.283    -3.215 
 S                     2.543    -2.989    -3.402 
 C                     3.704    -3.379    -2.131 
 C                     3.247    -2.961    -0.825 
 H                     4.556    -4.021    -2.302 
 H                     3.674    -3.346     0.097 
 H                    -2.89      0.24     -0.97 
 O                    -5.6      -0.36     -0.4 
 H                    -5.76      0.85     -0.75 
 
 Add virtual bond connecting atoms H20        and O19        Dist= 2.40D+00.
 Add virtual bond connecting atoms O19        and C1         Dist= 3.20D+00.
 The following ModRedundant input section has been read:
 D       2       3       7       8 F                                           
 

 GradGradGradGradGradGradGradGradGradGradGradGradGradGradGradGradGradGrad
 Berny optimization.
 Initialization pass.
                           ----------------------------
                           !    Initial Parameters    !
                           ! (Angstroms and Degrees)  !
 --------------------------                            --------------------------
 ! Name  Definition              Value          Derivative Info.                !
 --------------------------------------------------------------------------------
 ! R1    R(1,2)                  1.4389         estimate D2E/DX2                !
 ! R2    R(1,4)                  1.4361         estimate D2E/DX2                !
 ! R3    R(1,19)                 1.6907         estimate D2E/DX2                !
 ! R4    R(2,3)                  1.46           estimate D2E/DX2                !
 ! R5    R(2,18)                 1.2439         estimate D2E/DX2                !
 ! R6    R(3,5)                  1.797          estimate D2E/DX2                !
 ! R7    R(3,7)                  1.455          estimate D2E/DX2                !
 ! R8    R(4,5)                  1.7393         estimate D2E/DX2                !
 ! R9    R(4,6)                  1.0799         estimate D2E/DX2                !
 ! R10   R(7,8)                  1.7906         estimate D2E/DX2                !
 ! R11   R(7,11)                 1.4644         estimate D2E/DX2                !
 ! R12   R(8,9)                  1.7304         estimate D2E/DX2                !
 ! R13   R(9,10)                 1.4407         estimate D2E/DX2                !
 ! R14   R(9,15)                 1.426          estimate D2E/DX2                !
 ! R15   R(10,11)                1.4322         estimate D2E/DX2                !
 ! R16   R(10,13)                1.7321         estimate D2E/DX2                !
 ! R17   R(11,12)                1.0788         estimate D2E/DX2                !
 ! R18   R(13,14)                1.7651         estimate D2E/DX2                !
 ! R19   R(14,15)                1.4454         estimate D2E/DX2                !
 ! R20   R(14,16)                1.0804         estimate D2E/DX2                !
 ! R21   R(15,17)                1.0866         estimate D2E/DX2                !
 ! R22   R(19,20)                1.2697         estimate D2E/DX2                !
 ! A1    A(2,1,4)              112.8843         estimate D2E/DX2                !
 ! A2    A(2,1,19)             122.1887         estimate D2E/DX2                !
 ! A3    A(4,1,19)             123.8039         estimate D2E/DX2                !
 ! A4    A(1,2,3)              112.9799         estimate D2E/DX2                !
 ! A5    A(1,2,18)             112.491          estimate D2E/DX2                !
 ! A6    A(3,2,18)             134.2373         estimate D2E/DX2                !
 ! A7    A(2,3,5)              109.1138         estimate D2E/DX2                !
 ! A8    A(2,3,7)              132.8639         estimate D2E/DX2                !
 ! A9    A(5,3,7)              118.0132         estimate D2E/DX2                !
 ! A10   A(1,4,5)              111.9209         estimate D2E/DX2                !
 ! A11   A(1,4,6)              124.6643         estimate D2E/DX2                !
 ! A12   A(5,4,6)              123.4062         estimate D2E/DX2                !
 ! A13   A(3,5,4)               93.0997         estimate D2E/DX2                !
 ! A14   A(3,7,8)              121.9771         estimate D2E/DX2                !
 ! A15   A(3,7,11)             128.3764         estimate D2E/DX2                !
 ! A16   A(8,7,11)             109.6062         estimate D2E/DX2                !
 ! A17   A(7,8,9)               92.7474         estimate D2E/DX2                !
 ! A18   A(8,9,10)             112.3993         estimate D2E/DX2                !
 ! A19   A(8,9,15)             128.2499         estimate D2E/DX2                !
 ! A20   A(10,9,15)            112.6253         estimate D2E/DX2                !
 ! A21   A(9,10,11)            112.6669         estimate D2E/DX2                !
 ! A22   A(9,10,13)            112.6631         estimate D2E/DX2                !
 ! A23   A(11,10,13)           128.1868         estimate D2E/DX2                !
 ! A24   A(7,11,10)            112.5372         estimate D2E/DX2                !
 ! A25   A(7,11,12)            123.7815         estimate D2E/DX2                !
 ! A26   A(10,11,12)           123.0133         estimate D2E/DX2                !
 ! A27   A(10,13,14)            91.3178         estimate D2E/DX2                !
 ! A28   A(13,14,15)           112.2574         estimate D2E/DX2                !
 ! A29   A(13,14,16)           122.4136         estimate D2E/DX2                !
 ! A30   A(15,14,16)           124.3451         estimate D2E/DX2                !
 ! A31   A(9,15,14)            111.1192         estimate D2E/DX2                !
 ! A32   A(9,15,17)            124.0729         estimate D2E/DX2                !
 ! A33   A(14,15,17)           122.6824         estimate D2E/DX2                !
 ! A34   A(1,19,20)            134.0455         estimate D2E/DX2                !
 ! D1    D(4,1,2,3)              0.3915         estimate D2E/DX2                !
 ! D2    D(4,1,2,18)           175.0898         estimate D2E/DX2                !
 ! D3    D(19,1,2,3)          -167.9154         estimate D2E/DX2                !
 ! D4    D(19,1,2,18)            6.7829         estimate D2E/DX2                !
 ! D5    D(2,1,4,5)             -0.3845         estimate D2E/DX2                !
 ! D6    D(2,1,4,6)           -179.3471         estimate D2E/DX2                !
 ! D7    D(19,1,4,5)           167.7032         estimate D2E/DX2                !
 ! D8    D(19,1,4,6)           -11.2593         estimate D2E/DX2                !
 ! D9    D(2,1,19,20)           -7.6334         estimate D2E/DX2                !
 ! D10   D(4,1,19,20)         -174.6479         estimate D2E/DX2                !
 ! D11   D(1,2,3,5)             -0.2224         estimate D2E/DX2                !
 ! D12   D(1,2,3,7)            178.6265         estimate D2E/DX2                !
 ! D13   D(18,2,3,5)          -173.3787         estimate D2E/DX2                !
 ! D14   D(18,2,3,7)             5.4701         estimate D2E/DX2                !
 ! D15   D(2,3,5,4)              0.0033         estimate D2E/DX2                !
 ! D16   D(7,3,5,4)           -179.041          estimate D2E/DX2                !
 ! D17   D(2,3,7,8)            105.0058         Frozen                          !
 ! D18   D(2,3,7,11)           -77.5514         estimate D2E/DX2                !
 ! D19   D(5,3,7,8)            -76.2263         estimate D2E/DX2                !
 ! D20   D(5,3,7,11)           101.2165         estimate D2E/DX2                !
 ! D21   D(1,4,5,3)              0.2153         estimate D2E/DX2                !
 ! D22   D(6,4,5,3)            179.1932         estimate D2E/DX2                !
 ! D23   D(3,7,8,9)            179.7687         estimate D2E/DX2                !
 ! D24   D(11,7,8,9)             1.8965         estimate D2E/DX2                !
 ! D25   D(3,7,11,10)         -179.8333         estimate D2E/DX2                !
 ! D26   D(3,7,11,12)           -8.9695         estimate D2E/DX2                !
 ! D27   D(8,7,11,10)           -2.1359         estimate D2E/DX2                !
 ! D28   D(8,7,11,12)          168.728          estimate D2E/DX2                !
 ! D29   D(7,8,9,10)            -1.212          estimate D2E/DX2                !
 ! D30   D(7,8,9,15)          -149.9455         estimate D2E/DX2                !
 ! D31   D(8,9,10,11)            0.172          estimate D2E/DX2                !
 ! D32   D(8,9,10,13)         -154.0412         estimate D2E/DX2                !
 ! D33   D(15,9,10,11)         153.9673         estimate D2E/DX2                !
 ! D34   D(15,9,10,13)          -0.2459         estimate D2E/DX2                !
 ! D35   D(8,9,15,14)          149.7438         estimate D2E/DX2                !
 ! D36   D(8,9,15,17)          -14.0124         estimate D2E/DX2                !
 ! D37   D(10,9,15,14)           1.0673         estimate D2E/DX2                !
 ! D38   D(10,9,15,17)        -162.6889         estimate D2E/DX2                !
 ! D39   D(9,10,11,7)            1.3025         estimate D2E/DX2                !
 ! D40   D(9,10,11,12)        -169.6424         estimate D2E/DX2                !
 ! D41   D(13,10,11,7)         150.59           estimate D2E/DX2                !
 ! D42   D(13,10,11,12)        -20.355          estimate D2E/DX2                !
 ! D43   D(9,10,13,14)          -0.4927         estimate D2E/DX2                !
 ! D44   D(11,10,13,14)       -149.7812         estimate D2E/DX2                !
 ! D45   D(10,13,14,15)          1.105          estimate D2E/DX2                !
 ! D46   D(10,13,14,16)        170.2051         estimate D2E/DX2                !
 ! D47   D(13,14,15,9)          -1.4325         estimate D2E/DX2                !
 ! D48   D(13,14,15,17)        162.5883         estimate D2E/DX2                !
 ! D49   D(16,14,15,9)        -170.2846         estimate D2E/DX2                !
 ! D50   D(16,14,15,17)         -6.2638         estimate D2E/DX2                !
 --------------------------------------------------------------------------------
 Trust Radius=3.00D-01 FncErr=1.00D-07 GrdErr=1.00D-06 EigMax=2.50D+02 EigMin=1.00D-04
 Number of steps in this run=    116 maximum allowed number of steps=    120.
 GradGradGradGradGradGradGradGradGradGradGradGradGradGradGradGradGradGrad

                          Input orientation:                          
 ---------------------------------------------------------------------
 Center     Atomic      Atomic             Coordinates (Angstroms)
 Number     Number       Type             X           Y           Z
 ---------------------------------------------------------------------
      1          6           0       -4.250000   -1.360000   -0.210000
      2          6           0       -2.930000   -0.950000   -0.610000
      3          6           0       -1.970000   -2.050000   -0.620000
      4          6           0       -4.330000   -2.760000    0.100000
      5         16           0       -2.800000   -3.560000   -0.110000
      6          1           0       -5.230000   -3.270000    0.410000
      7          6           0       -0.560000   -2.130000   -0.970000
      8         16           0        0.720000   -2.263000    0.275000
      9          6           0        1.982000   -2.308000   -0.908000
     10          6           0        1.474000   -2.253000   -2.255000
     11          6           0        0.045000   -2.170000   -2.303000
     12          1           0       -0.520000   -2.283000   -3.215000
     13         16           0        2.543000   -2.989000   -3.402000
     14          6           0        3.704000   -3.379000   -2.131000
     15          6           0        3.247000   -2.961000   -0.825000
     16          1           0        4.556000   -4.021000   -2.302000
     17          1           0        3.674000   -3.346000    0.097000
     18          1           0       -2.890000    0.240000   -0.970000
     19          8           0       -5.600000   -0.360000   -0.400000
     20          1           0       -5.760000    0.850000   -0.750000
 ---------------------------------------------------------------------
                    Distance matrix (angstroms):
                    1          2          3          4          5
     1  C    0.000000
     2  C    1.438923   0.000000
     3  C    2.417147   1.460034   0.000000
     4  C    1.436141   2.395871   2.567509   0.000000
     5  S    2.636759   2.660639   1.796970   1.739253   0.000000
     6  H    2.234480   3.422397   3.630000   1.079907   2.501879
     7  C    3.845335   2.671872   1.454991   3.969219   2.793224
     8  S    5.074597   3.978655   2.842973   5.077414   3.771052
     9  C    6.342218   5.104969   3.970870   6.407941   5.007178
    10  C    6.143586   4.878427   3.817796   6.284066   4.957454
    11  C    4.846006   3.633906   2.628139   5.026245   3.851672
    12  H    4.877997   3.790912   2.981747   5.072756   4.058344
    13  S    7.680323   6.473524   5.384089   7.717161   6.301663
    14  C    8.428091   7.226579   6.020269   8.360962   6.813165
    15  C    7.690672   6.499667   5.299909   7.635899   6.118516
    16  H    9.434141   8.266444   7.021584   9.290895   7.689481
    17  H    8.174853   7.060700   5.835104   8.025423   6.480843
    18  H    2.233204   1.243905   2.492589   3.495497   3.897140
    19  O    1.690739   2.742462   4.010162   2.760960   4.261936
    20  H    2.730531   3.356859   4.773992   3.974858   5.349701
                    6          7          8          9         10
     6  H    0.000000
     7  C    5.001290   0.000000
     8  S    6.036122   1.790562   0.000000
     9  C    7.394289   2.548979   1.730364   0.000000
    10  C    7.285611   2.409048   2.639984   1.440659   0.000000
    11  C    6.032909   1.464416   2.666525   2.391033   1.432213
    12  H    6.024856   2.250563   3.703795   3.403363   2.213264
    13  S    8.661976   4.034986   4.167821   2.645471   1.732070
    14  C    9.288968   4.592343   3.992311   2.368133   2.501230
    15  C    8.572061   3.899338   2.843050   1.426016   2.385308
    16  H   10.182570   5.614585   4.944329   3.391619   3.553415
    17  H    8.909824   4.532538   3.151300   2.224934   3.400964
    18  H    4.438479   3.323522   4.565866   5.498412   5.187559
    19  O    3.043206   5.372095   6.634714   7.844711   7.554201
    20  H    4.312876   5.997399   7.261666   8.362804   8.014012
                   11         12         13         14         15
    11  C    0.000000
    12  H    1.078767   0.000000
    13  S    2.849310   3.148869   0.000000
    14  C    3.857401   4.496493   1.765067   0.000000
    15  C    3.614273   4.512435   2.671578   1.445410   0.000000
    16  H    4.875995   5.442425   2.515391   1.080421   2.240225
    17  H    4.506952   5.448757   3.694538   2.228446   1.086572
    18  H    4.024825   4.125828   6.771894   7.610908   6.923164
    19  O    6.226037   6.117888   9.068191   9.933536   9.231210
    20  H    6.725343   6.584035   9.524224  10.457480   9.780358
                   16         17         18         19         20
    16  H    0.000000
    17  H    2.643624   0.000000
    18  H    8.681778   7.555394   0.000000
    19  O   10.961973   9.755526   2.833549   0.000000
    20  H   11.513262  10.359738   2.942346   1.269724   0.000000
 Stoichiometry    C10H6OS3
 Framework group  C1[X(C10H6OS3)]
 Deg. of freedom    54
 Full point group                 C1      NOp   1
 Largest Abelian subgroup         C1      NOp   1
 Largest concise Abelian subgroup C1      NOp   1
                         Standard orientation:                         
 ---------------------------------------------------------------------
 Center     Atomic      Atomic             Coordinates (Angstroms)
 Number     Number       Type             X           Y           Z
 ---------------------------------------------------------------------
      1          6           0        3.917956    0.312931   -0.265699
      2          6           0        2.626502    0.600981   -0.831095
      3          6           0        1.527761    0.008246   -0.074040
      4          6           0        3.841806   -0.502091    0.914319
      5         16           0        2.198752   -0.897574    1.325375
      6          1           0        4.693715   -0.822567    1.495478
      7          6           0        0.082227    0.042932   -0.235994
      8         16           0       -0.835305   -1.359726   -0.865913
      9          6           0       -2.349956   -0.533254   -0.735779
     10          6           0       -2.206345    0.794077   -0.194423
     11          6           0       -0.845319    1.123152    0.106493
     12          1           0       -0.562713    2.002042    0.664547
     13         16           0       -3.642821    1.351081    0.596999
     14          6           0       -4.483084   -0.154814    0.220570
     15          6           0       -3.640560   -1.088548   -0.491822
     16          1           0       -5.444684   -0.403369    0.645840
     17          1           0       -3.871995   -2.147444   -0.568080
     18          1           0        2.692877    1.385806   -1.793874
     19          8           0        5.319364    1.116031   -0.765385
     20          1           0        5.581949    1.935115   -1.699383
 ---------------------------------------------------------------------
 Rotational constants (GHZ):           1.3722377           0.2191113           0.2111509
 Standard basis: 6-311+G(d,p) (5D, 7F)
 There are   382 symmetry adapted cartesian basis functions of A   symmetry.
 There are   368 symmetry adapted basis functions of A   symmetry.
   368 basis functions,   594 primitive gaussians,   382 cartesian basis functions
    61 alpha electrons       61 beta electrons
       nuclear repulsion energy      1076.9281888215 Hartrees.
 NAtoms=   20 NActive=   20 NUniq=   20 SFac= 1.00D+00 NAtFMM=   60 NAOKFM=F Big=F
 Integral buffers will be    131072 words long.
 Raffenetti 2 integral format.
 Two-electron integral symmetry is turned on.
 Nuclear repulsion after empirical dispersion term =     1076.9184524293 Hartrees.
 One-electron integrals computed using PRISM.
 NBasis=   368 RedAO= T EigKep=  3.82D-06  NBF=   368
 NBsUse=   367 1.00D-06 EigRej=  5.56D-07 NBFU=   367
 ExpMin= 4.05D-02 ExpMax= 9.34D+04 ExpMxC= 3.17D+03 IAcc=3 IRadAn=         5 AccDes= 0.00D+00
 Harris functional with IExCor= 4639 and IRadAn=       5 diagonalized for initial guess.
 HarFok:  IExCor= 4639 AccDes= 0.00D+00 IRadAn=         5 IDoV= 1 UseB2=F ITyADJ=14
 ICtDFT=  3500011 ScaDFX=  1.000000  1.000000  1.000000  1.000000
 FoFCou: FMM=F IPFlag=           0 FMFlag=      100000 FMFlg1=           0
         NFxFlg=           0 DoJE=T BraDBF=F KetDBF=T FulRan=T
         wScrn=  0.000000 ICntrl=       500 IOpCl=  0 I1Cent=   200000004 NGrid=           0
         NMat0=    1 NMatS0=      1 NMatT0=    0 NMatD0=    1 NMtDS0=    0 NMtDT0=    0
 Petite list used in FoFCou.
 Requested convergence on RMS density matrix=1.00D-08 within 128 cycles.
 Requested convergence on MAX density matrix=1.00D-06.
 Requested convergence on             energy=1.00D-06.
 No special actions if energy rises.
 SCF Done:  E(RwB97XD) =  -1654.22334969     A.U. after   18 cycles
            NFock= 18  Conv=0.77D-08     -V/T= 2.0032

 **********************************************************************

            Population analysis using the SCF Density.

 **********************************************************************

 Orbital symmetries:
       Occupied  (A) (A) (A) (A) (A) (A) (A) (A) (A) (A) (A) (A)
                 (A) (A) (A) (A) (A) (A) (A) (A) (A) (A) (A) (A)
                 (A) (A) (A) (A) (A) (A) (A) (A) (A) (A) (A) (A)
                 (A) (A) (A) (A) (A) (A) (A) (A) (A) (A) (A) (A)
                 (A) (A) (A) (A) (A) (A) (A) (A) (A) (A) (A) (A)
                 (A)
       Virtual   (A) (A) (A) (A) (A) (A) (A) (A) (A) (A) (A) (A)
                 (A) (A) (A) (A) (A) (A) (A) (A) (A) (A) (A) (A)
                 (A) (A) (A) (A) (A) (A) (A) (A) (A) (A) (A) (A)
                 (A) (A) (A) (A) (A) (A) (A) (A) (A) (A) (A) (A)
                 (A) (A) (A) (A) (A) (A) (A) (A) (A) (A) (A) (A)
                 (A) (A) (A) (A) (A) (A) (A) (A) (A) (A) (A) (A)
                 (A) (A) (A) (A) (A) (A) (A) (A) (A) (A) (A) (A)
                 (A) (A) (A) (A) (A) (A) (A) (A) (A) (A) (A) (A)
                 (A) (A) (A) (A) (A) (A) (A) (A) (A) (A) (A) (A)
                 (A) (A) (A) (A) (A) (A) (A) (A) (A) (A) (A) (A)
                 (A) (A) (A) (A) (A) (A) (A) (A) (A) (A) (A) (A)
                 (A) (A) (A) (A) (A) (A) (A) (A) (A) (A) (A) (A)
                 (A) (A) (A) (A) (A) (A) (A) (A) (A) (A) (A) (A)
                 (A) (A) (A) (A) (A) (A) (A) (A) (A) (A) (A) (A)
                 (A) (A) (A) (A) (A) (A) (A) (A) (A) (A) (A) (A)
                 (A) (A) (A) (A) (A) (A) (A) (A) (A) (A) (A) (A)
                 (A) (A) (A) (A) (A) (A) (A) (A) (A) (A) (A) (A)
                 (A) (A) (A) (A) (A) (A) (A) (A) (A) (A) (A) (A)
                 (A) (A) (A) (A) (A) (A) (A) (A) (A) (A) (A) (A)
                 (A) (A) (A) (A) (A) (A) (A) (A) (A) (A) (A) (A)
                 (A) (A) (A) (A) (A) (A) (A) (A) (A) (A) (A) (A)
                 (A) (A) (A) (A) (A) (A) (A) (A) (A) (A) (A) (A)
                 (A) (A) (A) (A) (A) (A) (A) (A) (A) (A) (A) (A)
                 (A) (A) (A) (A) (A) (A) (A) (A) (A) (A) (A) (A)
                 (A) (A) (A) (A) (A) (A) (A) (A) (A) (A) (A) (A)
                 (A) (A) (A) (A) (A) (A)
 The electronic state is 1-A.
 Alpha  occ. eigenvalues --  -89.07323 -89.06383 -89.06087 -19.27741 -10.38873
 Alpha  occ. eigenvalues --  -10.36352 -10.35732 -10.34383 -10.34235 -10.34209
 Alpha  occ. eigenvalues --  -10.34046 -10.33949 -10.32695 -10.32189  -8.11156
 Alpha  occ. eigenvalues --   -8.10326  -8.10025  -6.06000  -6.05632  -6.05261
 Alpha  occ. eigenvalues --   -6.05178  -6.04883  -6.04813  -6.04509  -6.04393
 Alpha  occ. eigenvalues --   -6.04084  -1.03336  -1.01267  -0.98304  -0.94071
 Alpha  occ. eigenvalues --   -0.87771  -0.85329  -0.84207  -0.81089  -0.78689
 Alpha  occ. eigenvalues --   -0.71647  -0.67292  -0.64579  -0.63276  -0.62632
 Alpha  occ. eigenvalues --   -0.58902  -0.58241  -0.53942  -0.52194  -0.51054
 Alpha  occ. eigenvalues --   -0.50004  -0.48848  -0.48144  -0.47897  -0.47322
 Alpha  occ. eigenvalues --   -0.45891  -0.44981  -0.42978  -0.41856  -0.40514
 Alpha  occ. eigenvalues --   -0.39950  -0.37403  -0.33905  -0.31732  -0.31192
 Alpha  occ. eigenvalues --   -0.28896
 Alpha virt. eigenvalues --   -0.00785  -0.00614   0.01356   0.04629   0.05390
 Alpha virt. eigenvalues --    0.05536   0.06478   0.06628   0.06757   0.07399
 Alpha virt. eigenvalues --    0.08038   0.08534   0.08757   0.09150   0.09488
 Alpha virt. eigenvalues --    0.09613   0.10829   0.11074   0.11651   0.11933
 Alpha virt. eigenvalues --    0.12294   0.12700   0.13209   0.13978   0.14390
 Alpha virt. eigenvalues --    0.14862   0.15590   0.16019   0.16292   0.16676
 Alpha virt. eigenvalues --    0.16915   0.17140   0.17424   0.18245   0.18591
 Alpha virt. eigenvalues --    0.19406   0.19653   0.20222   0.20498   0.20861
 Alpha virt. eigenvalues --    0.21383   0.21728   0.22041   0.22821   0.23209
 Alpha virt. eigenvalues --    0.23397   0.23766   0.24199   0.24689   0.25127
 Alpha virt. eigenvalues --    0.25255   0.25780   0.26177   0.26499   0.26857
 Alpha virt. eigenvalues --    0.27350   0.27540   0.27790   0.28036   0.28270
 Alpha virt. eigenvalues --    0.28965   0.29208   0.29506   0.30518   0.31244
 Alpha virt. eigenvalues --    0.31926   0.32549   0.32650   0.33051   0.33541
 Alpha virt. eigenvalues --    0.34618   0.35266   0.36125   0.36710   0.37799
 Alpha virt. eigenvalues --    0.39197   0.39328   0.40094   0.40722   0.41394
 Alpha virt. eigenvalues --    0.41973   0.43334   0.44008   0.44078   0.45320
 Alpha virt. eigenvalues --    0.47659   0.48111   0.49404   0.50072   0.50695
 Alpha virt. eigenvalues --    0.51830   0.52313   0.56288   0.57777   0.60469
 Alpha virt. eigenvalues --    0.61805   0.61968   0.62853   0.63087   0.64053
 Alpha virt. eigenvalues --    0.65504   0.65655   0.66111   0.67617   0.67877
 Alpha virt. eigenvalues --    0.68696   0.69065   0.70311   0.71392   0.71931
 Alpha virt. eigenvalues --    0.73757   0.74428   0.75751   0.76529   0.76925
 Alpha virt. eigenvalues --    0.78291   0.78525   0.79144   0.79971   0.80211
 Alpha virt. eigenvalues --    0.80896   0.81643   0.82553   0.83113   0.84177
 Alpha virt. eigenvalues --    0.86113   0.86508   0.87666   0.88644   0.89610
 Alpha virt. eigenvalues --    0.90463   0.90652   0.91552   0.93186   0.94077
 Alpha virt. eigenvalues --    0.94704   0.96140   0.97116   0.97476   0.98139
 Alpha virt. eigenvalues --    1.00032   1.00830   1.01434   1.02655   1.02878
 Alpha virt. eigenvalues --    1.05090   1.05834   1.06436   1.07836   1.09311
 Alpha virt. eigenvalues --    1.10261   1.11936   1.12758   1.15064   1.16062
 Alpha virt. eigenvalues --    1.18037   1.19575   1.22593   1.23190   1.26338
 Alpha virt. eigenvalues --    1.27571   1.30731   1.31634   1.35079   1.36641
 Alpha virt. eigenvalues --    1.42428   1.43296   1.44812   1.46450   1.49592
 Alpha virt. eigenvalues --    1.50687   1.52532   1.56208   1.57791   1.58485
 Alpha virt. eigenvalues --    1.59073   1.60117   1.62455   1.65770   1.66793
 Alpha virt. eigenvalues --    1.67083   1.69175   1.70126   1.71776   1.73830
 Alpha virt. eigenvalues --    1.74458   1.75558   1.76529   1.77537   1.78547
 Alpha virt. eigenvalues --    1.81104   1.82936   1.83193   1.84523   1.85365
 Alpha virt. eigenvalues --    1.86866   1.87829   1.90063   1.92069   1.92381
 Alpha virt. eigenvalues --    1.93979   1.96707   1.97740   1.98714   1.99929
 Alpha virt. eigenvalues --    2.02338   2.03537   2.03879   2.05736   2.06716
 Alpha virt. eigenvalues --    2.08107   2.09407   2.10667   2.11863   2.12043
 Alpha virt. eigenvalues --    2.13387   2.16977   2.17530   2.20330   2.22242
 Alpha virt. eigenvalues --    2.22661   2.26490   2.30676   2.31934   2.38457
 Alpha virt. eigenvalues --    2.41629   2.43062   2.44970   2.50153   2.55417
 Alpha virt. eigenvalues --    2.57900   2.59091   2.63928   2.65615   2.70529
 Alpha virt. eigenvalues --    2.73691   2.76609   2.78239   2.79059   2.81099
 Alpha virt. eigenvalues --    2.82883   2.84424   2.85790   2.87267   2.90196
 Alpha virt. eigenvalues --    2.92822   2.96039   2.96649   2.99269   3.02091
 Alpha virt. eigenvalues --    3.02763   3.03965   3.04491   3.07475   3.10637
 Alpha virt. eigenvalues --    3.11242   3.12425   3.14015   3.17532   3.29522
 Alpha virt. eigenvalues --    3.30276   3.32833   3.35963   3.40276   3.45628
 Alpha virt. eigenvalues --    3.48916   3.56112   3.58551   3.67063   3.70313
 Alpha virt. eigenvalues --    3.88581   3.93927   4.02629   4.12935   4.21965
 Alpha virt. eigenvalues --    4.39536   4.51199   5.13175   5.23593   5.36546
 Alpha virt. eigenvalues --    8.02812   8.04613   8.07151  17.41657  17.42117
 Alpha virt. eigenvalues --   17.44369  17.55283  17.56654  17.59706  17.60404
 Alpha virt. eigenvalues --   17.62382  17.64309  23.54823  23.69100  23.80702
 Alpha virt. eigenvalues --   23.88407  23.92869  23.98046  23.98925  24.00817
 Alpha virt. eigenvalues --   24.06386  24.08580  49.98317 189.26894 189.29044
 Alpha virt. eigenvalues --  189.31892
          Condensed to atoms (all electrons):
               1          2          3          4          5          6
     1  C    6.749781  -1.009352   0.009909  -0.982387   0.986738   0.033712
     2  C   -1.009352  10.527078  -1.114581   0.049880  -1.781076  -0.034684
     3  C    0.009909  -1.114581   7.151466  -0.074316   0.236685   0.019372
     4  C   -0.982387   0.049880  -0.074316   7.388364  -0.676166   0.360308
     5  S    0.986738  -1.781076   0.236685  -0.676166  16.909968  -0.011878
     6  H    0.033712  -0.034684   0.019372   0.360308  -0.011878   0.424206
     7  C    0.079348  -0.412520   0.442684  -0.135042   0.068570   0.001066
     8  S   -0.077914   0.486169   0.375265   0.046172  -0.097561  -0.000328
     9  C    0.040660  -0.417752  -0.631520  -0.017985   0.234411   0.000115
    10  C    0.000345   0.581084   0.802769   0.000037  -0.236365  -0.000109
    11  C    0.234132  -1.343386  -1.101037   0.023182   0.525659  -0.000370
    12  H   -0.001133   0.006571   0.018947   0.000965  -0.006712  -0.000000
    13  S    0.004938  -0.005877  -0.022042   0.000446  -0.003501   0.000002
    14  C   -0.000094  -0.002411  -0.017094  -0.000772   0.003815  -0.000001
    15  C    0.012637  -0.087073  -0.133523  -0.000318   0.039347   0.000018
    16  H    0.000000   0.000012   0.000034   0.000000  -0.000032   0.000000
    17  H    0.000007   0.000128   0.000407  -0.000013  -0.000165   0.000000
    18  H   -0.084469   0.340886   0.089118  -0.026602   0.001396  -0.000038
    19  O    0.352524  -0.056178  -0.009260  -0.132982   0.010066  -0.000038
    20  H   -0.041874  -0.030968   0.013964   0.059756  -0.005723  -0.000161
               7          8          9         10         11         12
     1  C    0.079348  -0.077914   0.040660   0.000345   0.234132  -0.001133
     2  C   -0.412520   0.486169  -0.417752   0.581084  -1.343386   0.006571
     3  C    0.442684   0.375265  -0.631520   0.802769  -1.101037   0.018947
     4  C   -0.135042   0.046172  -0.017985   0.000037   0.023182   0.000965
     5  S    0.068570  -0.097561   0.234411  -0.236365   0.525659  -0.006712
     6  H    0.001066  -0.000328   0.000115  -0.000109  -0.000370  -0.000000
     7  C    8.206453   0.401845  -1.056883   1.841203  -3.080889   0.083449
     8  S    0.401845  18.141879  -1.660952   2.736516  -3.558423   0.009754
     9  C   -1.056883  -1.660952  13.689226  -6.322114   3.376346  -0.047651
    10  C    1.841203   2.736516  -6.322114  16.859845  -8.351283   0.045933
    11  C   -3.080889  -3.558423   3.376346  -8.351283  17.345351   0.248066
    12  H    0.083449   0.009754  -0.047651   0.045933   0.248066   0.469358
    13  S   -0.217005   0.182252   0.409042  -0.921920   0.215540   0.004083
    14  C    0.105350   0.012584   0.615102  -0.251125  -0.330176   0.000584
    15  C   -0.393883  -0.675324  -2.590908  -0.862055   1.880315  -0.007874
    16  H   -0.002571   0.001657  -0.014123   0.010323   0.008734  -0.000003
    17  H    0.003613   0.014699   0.010210  -0.020287  -0.008708   0.000008
    18  H    0.016989  -0.001706   0.000631  -0.001676   0.000829  -0.000058
    19  O    0.008277   0.000930  -0.000476   0.001040  -0.002464  -0.000003
    20  H    0.000254   0.000089  -0.000069   0.000098   0.000381  -0.000000
              13         14         15         16         17         18
     1  C    0.004938  -0.000094   0.012637   0.000000   0.000007  -0.084469
     2  C   -0.005877  -0.002411  -0.087073   0.000012   0.000128   0.340886
     3  C   -0.022042  -0.017094  -0.133523   0.000034   0.000407   0.089118
     4  C    0.000446  -0.000772  -0.000318   0.000000  -0.000013  -0.026602
     5  S   -0.003501   0.003815   0.039347  -0.000032  -0.000165   0.001396
     6  H    0.000002  -0.000001   0.000018   0.000000   0.000000  -0.000038
     7  C   -0.217005   0.105350  -0.393883  -0.002571   0.003613   0.016989
     8  S    0.182252   0.012584  -0.675324   0.001657   0.014699  -0.001706
     9  C    0.409042   0.615102  -2.590908  -0.014123   0.010210   0.000631
    10  C   -0.921920  -0.251125  -0.862055   0.010323  -0.020287  -0.001676
    11  C    0.215540  -0.330176   1.880315   0.008734  -0.008708   0.000829
    12  H    0.004083   0.000584  -0.007874  -0.000003   0.000008  -0.000058
    13  S   16.556792   0.322978  -0.323285  -0.023885   0.001107  -0.000142
    14  C    0.322978   5.551072  -0.107030   0.381899   0.013564   0.000012
    15  C   -0.323285  -0.107030   9.150902   0.000790   0.344197   0.000022
    16  H   -0.023885   0.381899   0.000790   0.436176  -0.002609  -0.000000
    17  H    0.001107   0.013564   0.344197  -0.002609   0.472340   0.000000
    18  H   -0.000142   0.000012   0.000022  -0.000000   0.000000   0.490973
    19  O   -0.000007   0.000004  -0.000040  -0.000000  -0.000000  -0.000401
    20  H   -0.000000   0.000000  -0.000002  -0.000000   0.000000   0.000391
              19         20
     1  C    0.352524  -0.041874
     2  C   -0.056178  -0.030968
     3  C   -0.009260   0.013964
     4  C   -0.132982   0.059756
     5  S    0.010066  -0.005723
     6  H   -0.000038  -0.000161
     7  C    0.008277   0.000254
     8  S    0.000930   0.000089
     9  C   -0.000476  -0.000069
    10  C    0.001040   0.000098
    11  C   -0.002464   0.000381
    12  H   -0.000003  -0.000000
    13  S   -0.000007  -0.000000
    14  C    0.000004   0.000000
    15  C   -0.000040  -0.000002
    16  H   -0.000000  -0.000000
    17  H   -0.000000   0.000000
    18  H   -0.000401   0.000391
    19  O    8.088232   0.206108
    20  H    0.206108   0.493215
 Mulliken charges:
               1
     1  C   -0.307508
     2  C    0.304050
     3  C   -0.057248
     4  C    0.117469
     5  S   -0.197478
     6  H    0.208808
     7  C    0.039694
     8  S   -0.337602
     9  C    0.384689
    10  C    0.087743
    11  C   -0.081799
    12  H    0.175716
    13  S   -0.179518
    14  C   -0.298261
    15  C   -0.246912
    16  H    0.203600
    17  H    0.171502
    18  H    0.173846
    19  O   -0.465333
    20  H    0.304543
 Sum of Mulliken charges =  -0.00000
 Mulliken charges with hydrogens summed into heavy atoms:
               1
     1  C   -0.307508
     2  C    0.477896
     3  C   -0.057248
     4  C    0.326277
     5  S   -0.197478
     7  C    0.039694
     8  S   -0.337602
     9  C    0.384689
    10  C    0.087743
    11  C    0.093917
    13  S   -0.179518
    14  C   -0.094661
    15  C   -0.075410
    19  O   -0.160790
 Electronic spatial extent (au):  <R**2>=           4977.2362
 Charge=              0.0000 electrons
 Dipole moment (field-independent basis, Debye):
    X=             -1.3753    Y=              0.3130    Z=              0.2801  Tot=              1.4380
 Quadrupole moment (field-independent basis, Debye-Ang):
   XX=            -99.3034   YY=            -96.8890   ZZ=           -100.2907
   XY=              7.3651   XZ=             -7.2353   YZ=             -4.8060
 Traceless Quadrupole moment (field-independent basis, Debye-Ang):
   XX=             -0.4757   YY=              1.9387   ZZ=             -1.4630
   XY=              7.3651   XZ=             -7.2353   YZ=             -4.8060
 Octapole moment (field-independent basis, Debye-Ang**2):
  XXX=            -67.9021  YYY=              8.1526  ZZZ=             -0.7873  XYY=             14.0912
  XXY=             -1.6366  XXZ=             -0.4465  XZZ=             38.3374  YZZ=              9.7290
  YYZ=             -8.1524  XYZ=            -38.1556
 Hexadecapole moment (field-independent basis, Debye-Ang**3):
 XXXX=          -5573.9724 YYYY=           -668.0178 ZZZZ=           -478.2512 XXXY=            210.6413
 XXXZ=           -259.2992 YYYX=             88.1216 YYYZ=            -12.2555 ZZZX=            -53.0329
 ZZZY=            -33.9025 XXYY=           -938.7206 XXZZ=           -903.3009 YYZZ=           -173.2899
 XXYZ=           -162.6921 YYXZ=            -58.3041 ZZXY=             47.3992
 N-N= 1.076918452429D+03 E-N=-6.063140498698D+03  KE= 1.648906424307D+03
 Calling FoFJK, ICntrl=      2127 FMM=F ISym2X=0 I1Cent= 0 IOpClX= 0 NMat=1 NMatS=1 NMatT=0.
 ***** Axes restored to original set *****
 -------------------------------------------------------------------
 Center     Atomic                   Forces (Hartrees/Bohr)
 Number     Number              X              Y              Z
 -------------------------------------------------------------------
      1        6          -0.018882182    0.007640317   -0.020470411
      2        6           0.006857310    0.018759694   -0.017069780
      3        6          -0.053735946    0.031924683    0.006770476
      4        6          -0.006697993    0.058983419   -0.011023346
      5       16          -0.006645699    0.037460215   -0.001849084
      6        1           0.002203887   -0.003552162   -0.000915057
      7        6           0.044577117    0.001539345   -0.056703971
      8       16          -0.011987618    0.011205803   -0.013966303
      9        6          -0.007031690   -0.017604364   -0.034112839
     10        6          -0.014195404   -0.009726960    0.038838524
     11        6          -0.013894812    0.002457380    0.062069934
     12        1          -0.005340900    0.005101622    0.000423295
     13       16           0.017070474    0.003112835    0.016250232
     14        6          -0.032504800    0.019139778    0.054529240
     15        6           0.011739250   -0.022430736   -0.058127228
     16        1           0.002003022    0.004912306   -0.004950694
     17        1           0.004664741    0.007389665   -0.003611680
     18        1           0.014806929   -0.070919020    0.019564821
     19        8           0.023017533    0.026772542   -0.007302312
     20        1           0.043976781   -0.112166365    0.031656182
 -------------------------------------------------------------------
 Cartesian Forces:  Max     0.112166365 RMS     0.030349845

 GradGradGradGradGradGradGradGradGradGradGradGradGradGradGradGradGradGrad
 Berny optimization.
 FormGI is forming the generalized inverse of G from B-inverse, IUseBI=4.
 Internal  Forces:  Max     0.121159167 RMS     0.024660578
 Search for a local minimum.
 Step number   1 out of a maximum of  116
 All quantities printed in internal units (Hartrees-Bohrs-Radians)
 Mixed Optimization -- RFO/linear search
 Second derivative matrix not updated -- first step.
 ITU=  0
     Eigenvalues ---    0.00230   0.00983   0.01055   0.01222   0.01273
     Eigenvalues ---    0.01297   0.01386   0.01417   0.01421   0.01464
     Eigenvalues ---    0.01495   0.01554   0.01596   0.01769   0.02201
     Eigenvalues ---    0.02653   0.15069   0.15689   0.15737   0.15872
     Eigenvalues ---    0.15997   0.16000   0.18000   0.18458   0.20203
     Eigenvalues ---    0.21719   0.22444   0.23320   0.23380   0.23776
     Eigenvalues ---    0.23979   0.24292   0.24978   0.24995   0.26219
     Eigenvalues ---    0.26533   0.28395   0.30834   0.31340   0.31546
     Eigenvalues ---    0.34828   0.35212   0.35849   0.35944   0.36006
     Eigenvalues ---    0.36144   0.36325   0.37598   0.38253   0.38494
     Eigenvalues ---    0.39449   0.39749   0.406331000.000001000.00000
     Eigenvalues --- 1000.000001000.000001000.000001000.000001000.00000
     Eigenvalues --- 1000.000001000.000001000.000001000.000001000.00000
     Eigenvalues --- 1000.000001000.000001000.000001000.000001000.00000
     Eigenvalues --- 1000.000001000.000001000.000001000.000001000.00000
     Eigenvalues --- 1000.000001000.000001000.000001000.000001000.00000
     Eigenvalues --- 1000.000001000.000001000.000001000.000001000.00000
     Eigenvalues --- 1000.000001000.000001000.000001000.000001000.00000
     Eigenvalues --- 1000.000001000.000001000.000001000.000001000.00000
     Eigenvalues --- 1000.000001000.000001000.000001000.000001000.00000
     Eigenvalues --- 1000.000001000.000001000.000001000.000001000.00000
     Eigenvalues --- 1000.00000
 RFO step:  Lambda=-1.60317708D-01 EMin= 2.30000000D-03
 Linear search not attempted -- first point.
 Maximum step size (   0.300) exceeded in Quadratic search.
    -- Step size scaled by   0.474
 Iteration  1 RMS(Cart)=  0.06201082 RMS(Int)=  0.00152645
 Iteration  2 RMS(Cart)=  0.00185920 RMS(Int)=  0.00005939
 Iteration  3 RMS(Cart)=  0.00000938 RMS(Int)=  0.00005909
 Iteration  4 RMS(Cart)=  0.00000000 RMS(Int)=  0.00005909
 Iteration  1 RMS(Cart)=  0.00000104 RMS(Int)=  0.00000040
 Iteration  2 RMS(Cart)=  0.00000056 RMS(Int)=  0.00000045
 Variable       Old X    -DE/DX   Delta X   Delta X   Delta X     New X
                                 (Linear)    (Quad)   (Total)
    R1        2.71917  -0.02336   0.00000  -0.02082  -0.02075   2.69842
    R2        2.71391  -0.06948   0.00000  -0.05905  -0.05902   2.65489
    R3        3.19503  -0.10674   0.00000  -0.14654  -0.14654   3.04849
    R4        2.75906  -0.07620   0.00000  -0.06841  -0.06838   2.69068
    R5        2.35064  -0.07303   0.00000  -0.09161  -0.09161   2.25903
    R6        3.39578  -0.02514   0.00000  -0.02705  -0.02710   3.36868
    R7        2.74954  -0.00518   0.00000  -0.00458  -0.00458   2.74496
    R8        3.28671  -0.02267   0.00000  -0.02181  -0.02186   3.26485
    R9        2.04073  -0.00042   0.00000  -0.00038  -0.00038   2.04035
   R10        3.38367  -0.01797   0.00000  -0.01895  -0.01899   3.36469
   R11        2.76735  -0.07326   0.00000  -0.06640  -0.06641   2.70094
   R12        3.26991  -0.00717   0.00000  -0.00639  -0.00639   3.26352
   R13        2.72245  -0.03881   0.00000  -0.03362  -0.03355   2.68890
   R14        2.69478  -0.00264   0.00000  -0.00290  -0.00286   2.69192
   R15        2.70649  -0.01292   0.00000  -0.01161  -0.01159   2.69490
   R16        3.27314  -0.00430   0.00000  -0.00345  -0.00346   3.26968
   R17        2.03857   0.00191   0.00000   0.00173   0.00173   2.04030
   R18        3.33549  -0.01804   0.00000  -0.01842  -0.01847   3.31703
   R19        2.73143  -0.06604   0.00000  -0.05743  -0.05743   2.67399
   R20        2.04170  -0.00056   0.00000  -0.00051  -0.00051   2.04119
   R21        2.05332  -0.00385   0.00000  -0.00356  -0.00356   2.04976
   R22        2.39943  -0.12116   0.00000  -0.15833  -0.15833   2.24110
    A1        1.97020   0.01962   0.00000   0.02119   0.02129   1.99149
    A2        2.13260   0.00508   0.00000   0.00730   0.00726   2.13986
    A3        2.16079  -0.02410   0.00000  -0.02693  -0.02701   2.13378
    A4        1.97187  -0.00325   0.00000  -0.00574  -0.00564   1.96623
    A5        1.96334   0.02152   0.00000   0.03244   0.03240   1.99573
    A6        2.34288  -0.01811   0.00000  -0.02618  -0.02623   2.31665
    A7        1.90440   0.00064   0.00000   0.00144   0.00143   1.90583
    A8        2.31891  -0.00851   0.00000  -0.01017  -0.01017   2.30875
    A9        2.05972   0.00788   0.00000   0.00875   0.00876   2.06847
   A10        1.95339  -0.01507   0.00000  -0.01845  -0.01846   1.93493
   A11        2.17580   0.01173   0.00000   0.01545   0.01545   2.19125
   A12        2.15384   0.00336   0.00000   0.00307   0.00307   2.15691
   A13        1.62490  -0.00194   0.00000   0.00157   0.00141   1.62630
   A14        2.12890  -0.00369   0.00000  -0.00408  -0.00410   2.12481
   A15        2.24059  -0.00523   0.00000  -0.00587  -0.00588   2.23471
   A16        1.91299   0.00900   0.00000   0.01011   0.01013   1.92312
   A17        1.61875  -0.00714   0.00000  -0.00636  -0.00634   1.61240
   A18        1.96174  -0.01035   0.00000  -0.01047  -0.01058   1.95116
   A19        2.23838   0.00861   0.00000   0.01353   0.01341   2.25179
   A20        1.96568   0.00562   0.00000   0.00626   0.00630   1.97198
   A21        1.96641   0.00738   0.00000   0.00771   0.00772   1.97413
   A22        1.96634  -0.01281   0.00000  -0.01321  -0.01327   1.95307
   A23        2.23728   0.00887   0.00000   0.01357   0.01346   2.25074
   A24        1.96414   0.00116   0.00000  -0.00088  -0.00082   1.96332
   A25        2.16039  -0.00511   0.00000  -0.00592  -0.00598   2.15442
   A26        2.14699   0.00451   0.00000   0.00829   0.00824   2.15523
   A27        1.59380   0.00011   0.00000   0.00140   0.00139   1.59519
   A28        1.95926   0.00252   0.00000   0.00225   0.00223   1.96149
   A29        2.13652  -0.00496   0.00000  -0.00604  -0.00610   2.13042
   A30        2.17023   0.00352   0.00000   0.00663   0.00659   2.17682
   A31        1.93940   0.00455   0.00000   0.00330   0.00336   1.94275
   A32        2.16548   0.00052   0.00000   0.00360   0.00349   2.16897
   A33        2.14121  -0.00318   0.00000  -0.00200  -0.00211   2.13910
   A34        2.33954  -0.06937   0.00000  -0.10254  -0.10254   2.23699
    D1        0.00683  -0.00084   0.00000  -0.00213  -0.00214   0.00469
    D2        3.05589  -0.00054   0.00000   0.00091   0.00104   3.05693
    D3       -2.93068  -0.00109   0.00000  -0.00698  -0.00716  -2.93784
    D4        0.11838  -0.00079   0.00000  -0.00394  -0.00398   0.11441
    D5       -0.00671   0.00105   0.00000   0.00267   0.00268  -0.00403
    D6       -3.13020  -0.00068   0.00000  -0.00130  -0.00127  -3.13147
    D7        2.92697   0.00539   0.00000   0.01239   0.01230   2.93927
    D8       -0.19651   0.00365   0.00000   0.00842   0.00835  -0.18816
    D9       -0.13323   0.00165   0.00000   0.00200   0.00196  -0.13127
   D10       -3.04818  -0.00427   0.00000  -0.00962  -0.00958  -3.05776
   D11       -0.00388   0.00041   0.00000   0.00081   0.00077  -0.00311
   D12        3.11762   0.00137   0.00000   0.00226   0.00222   3.11985
   D13       -3.02603  -0.00316   0.00000  -0.00780  -0.00776  -3.03379
   D14        0.09547  -0.00220   0.00000  -0.00635  -0.00631   0.08916
   D15        0.00006   0.00021   0.00000   0.00065   0.00067   0.00073
   D16       -3.12486  -0.00038   0.00000  -0.00032  -0.00031  -3.12517
   D17        1.83270  -0.00110   0.00000   0.00000  -0.00000   1.83269
   D18       -1.35353   0.00141   0.00000   0.00534   0.00533  -1.34819
   D19       -1.33040  -0.00016   0.00000   0.00146   0.00147  -1.32893
   D20        1.76656   0.00235   0.00000   0.00680   0.00680   1.77337
   D21        0.00376  -0.00074   0.00000  -0.00192  -0.00192   0.00184
   D22        3.12751   0.00108   0.00000   0.00215   0.00210   3.12961
   D23        3.13755   0.00062   0.00000   0.00124   0.00124   3.13879
   D24        0.03310  -0.00120   0.00000  -0.00290  -0.00293   0.03017
   D25       -3.13868  -0.00152   0.00000  -0.00299  -0.00297   3.14153
   D26       -0.15655   0.00271   0.00000   0.00792   0.00791  -0.14864
   D27       -0.03728   0.00052   0.00000   0.00156   0.00161  -0.03567
   D28        2.94486   0.00475   0.00000   0.01248   0.01249   2.95735
   D29       -0.02115   0.00204   0.00000   0.00403   0.00400  -0.01715
   D30       -2.61704  -0.00699   0.00000  -0.01662  -0.01664  -2.63369
   D31        0.00300  -0.00167   0.00000  -0.00344  -0.00341  -0.00041
   D32       -2.68853  -0.01058   0.00000  -0.02220  -0.02201  -2.71054
   D33        2.68724   0.00784   0.00000   0.01726   0.01714   2.70438
   D34       -0.00429  -0.00107   0.00000  -0.00150  -0.00146  -0.00575
   D35        2.61352   0.00592   0.00000   0.01764   0.01777   2.63130
   D36       -0.24456  -0.00068   0.00000  -0.00025  -0.00019  -0.24475
   D37        0.01863   0.00089   0.00000   0.00116   0.00113   0.01976
   D38       -2.83946  -0.00571   0.00000  -0.01673  -0.01683  -2.85628
   D39        0.02273   0.00075   0.00000   0.00113   0.00110   0.02384
   D40       -2.96082  -0.00243   0.00000  -0.00820  -0.00828  -2.96910
   D41        2.62829   0.00438   0.00000   0.01458   0.01471   2.64300
   D42       -0.35526   0.00120   0.00000   0.00525   0.00533  -0.34993
   D43       -0.00860   0.00100   0.00000   0.00131   0.00129  -0.00731
   D44       -2.61417  -0.00764   0.00000  -0.01733  -0.01729  -2.63147
   D45        0.01929  -0.00036   0.00000  -0.00053  -0.00053   0.01876
   D46        2.97064   0.00610   0.00000   0.01583   0.01576   2.98640
   D47       -0.02500  -0.00013   0.00000  -0.00015  -0.00013  -0.02513
   D48        2.83770   0.00705   0.00000   0.01849   0.01852   2.85622
   D49       -2.97203  -0.00564   0.00000  -0.01525  -0.01529  -2.98731
   D50       -0.10932   0.00154   0.00000   0.00340   0.00336  -0.10597
         Item               Value     Threshold  Converged?
 Maximum Force            0.121159     0.000450     NO 
 RMS     Force            0.024777     0.000300     NO 
 Maximum Displacement     0.419742     0.001800     NO 
 RMS     Displacement     0.061463     0.001200     NO 
 Predicted change in Energy=-6.546967D-02
 GradGradGradGradGradGradGradGradGradGradGradGradGradGradGradGradGradGrad

                          Input orientation:                          
 ---------------------------------------------------------------------
 Center     Atomic      Atomic             Coordinates (Angstroms)
 Number     Number       Type             X           Y           Z
 ---------------------------------------------------------------------
      1          6           0       -4.223832   -1.360679   -0.229483
      2          6           0       -2.910753   -0.965516   -0.627842
      3          6           0       -1.987766   -2.049692   -0.626993
      4          6           0       -4.341476   -2.724532    0.086472
      5         16           0       -2.828631   -3.534893   -0.112308
      6          1           0       -5.248081   -3.220511    0.399257
      7          6           0       -0.579758   -2.134713   -0.973755
      8         16           0        0.685574   -2.265109    0.272104
      9          6           0        1.944433   -2.315767   -0.909072
     10          6           0        1.428387   -2.258642   -2.233870
     11          6           0        0.005465   -2.174220   -2.277128
     12          1           0       -0.570041   -2.276907   -3.184852
     13         16           0        2.511216   -2.971673   -3.379642
     14          6           0        3.671093   -3.344599   -2.116046
     15          6           0        3.218603   -2.948414   -0.835202
     16          1           0        4.539676   -3.960238   -2.298481
     17          1           0        3.664721   -3.318231    0.081729
     18          1           0       -2.825524    0.172131   -0.984978
     19          8           0       -5.510424   -0.403447   -0.404914
     20          1           0       -5.537882    0.732652   -0.743996
 ---------------------------------------------------------------------
                    Distance matrix (angstroms):
                    1          2          3          4          5
     1  C    0.000000
     2  C    1.427942   0.000000
     3  C    2.373340   1.423849   0.000000
     4  C    1.404907   2.377257   2.550371   0.000000
     5  S    2.586025   2.621873   1.782631   1.727687   0.000000
     6  H    2.214357   3.406323   3.612984   1.079704   2.492844
     7  C    3.798992   2.630631   1.452570   3.952530   2.785682
     8  S    5.017156   3.928412   2.828698   5.051412   3.756296
     9  C    6.278656   5.047287   3.951273   6.377370   4.990314
    10  C    6.063949   4.804127   3.780981   6.236374   4.924635
    11  C    4.768820   3.561663   2.590642   4.978488   3.817063
    12  H    4.787888   3.706344   2.933294   5.012550   4.015505
    13  S    7.607869   6.402719   5.354247   7.683386   6.285431
    14  C    8.356129   7.155103   5.993059   8.332877   6.804233
    15  C    7.633979   6.445456   5.287470   7.619345   6.118462
    16  H    9.372168   8.201725   7.003682   9.278461   7.697546
    17  H    8.133764   7.019659   5.836273   8.028181   6.499862
    18  H    2.208063   1.195429   2.401352   3.440461   3.808358
    19  O    1.613192   2.669064   3.894683   2.644869   4.133230
    20  H    2.524576   3.130347   4.512034   3.751424   5.094214
                    6          7          8          9         10
     6  H    0.000000
     7  C    4.985715   0.000000
     8  S    6.011424   1.780515   0.000000
     9  C    7.366311   2.531502   1.726982   0.000000
    10  C    7.241116   2.374004   2.613755   1.422904   0.000000
    11  C    5.988113   1.429276   2.639961   2.377228   1.426080
    12  H    5.968273   2.215686   3.677942   3.391646   2.213236
    13  S    8.634157   4.005360   4.143362   2.618238   1.730238
    14  C    9.267891   4.564908   3.972642   2.344491   2.494577
    15  C    8.560529   3.887011   2.847678   1.424503   2.374223
    16  H   10.179645   5.594287   4.933099   3.371947   3.546791
    17  H    8.918991   4.531044   3.165536   2.223963   3.389088
    18  H    4.392597   3.219491   4.455133   5.380324   5.056100
    19  O    2.941321   5.256646   6.504962   7.712719   7.411742
    20  H    4.125350   5.732152   6.982152   8.081160   7.726349
                   11         12         13         14         15
    11  C    0.000000
    12  H    1.079682   0.000000
    13  S    2.851360   3.164614   0.000000
    14  C    3.851307   4.502169   1.755296   0.000000
    15  C    3.605938   4.508392   2.641044   1.415016   0.000000
    16  H    4.873334   5.452381   2.502163   1.080153   2.215898
    17  H    4.501458   5.448680   3.664938   2.197943   1.084688
    18  H    3.897373   3.990544   6.640686   7.473469   6.803802
    19  O    6.088173   5.970368   8.932608   9.791762   9.102633
    20  H    6.444307   6.300371   9.244275  10.164237   9.499190
                   16         17         18         19         20
    16  H    0.000000
    17  H    2.615936   0.000000
    18  H    8.546809   7.446058   0.000000
    19  O   10.827782   9.639298   2.806501   0.000000
    20  H   11.224830  10.088576   2.780133   1.185939   0.000000
 Stoichiometry    C10H6OS3
 Framework group  C1[X(C10H6OS3)]
 Deg. of freedom    54
 Full point group                 C1      NOp   1
 Largest Abelian subgroup         C1      NOp   1
 Largest concise Abelian subgroup C1      NOp   1
                         Standard orientation:                         
 ---------------------------------------------------------------------
 Center     Atomic      Atomic             Coordinates (Angstroms)
 Number     Number       Type             X           Y           Z
 ---------------------------------------------------------------------
      1          6           0        3.871853    0.324174   -0.283034
      2          6           0        2.582636    0.594039   -0.834496
      3          6           0        1.528058    0.016169   -0.072081
      4          6           0        3.844282   -0.454421    0.886065
      5         16           0        2.220842   -0.856045    1.319704
      6          1           0        4.707957   -0.758990    1.457961
      7          6           0        0.083855    0.041091   -0.225759
      8         16           0       -0.818784   -1.371334   -0.826201
      9          6           0       -2.331848   -0.548336   -0.700585
     10          6           0       -2.174919    0.770905   -0.191043
     11          6           0       -0.817781    1.102707    0.094946
     12          1           0       -0.522020    1.993923    0.627839
     13         16           0       -3.618803    1.344763    0.570278
     14          6           0       -4.455839   -0.155707    0.211084
     15          6           0       -3.628477   -1.086972   -0.460101
     16          1           0       -5.430062   -0.380845    0.619659
     17          1           0       -3.875417   -2.140637   -0.533307
     18          1           0        2.593644    1.330856   -1.775788
     19          8           0        5.206686    1.079462   -0.783184
     20          1           0        5.329405    1.819949   -1.701373
 ---------------------------------------------------------------------
 Rotational constants (GHZ):           1.4116978           0.2234375           0.2151948
 Standard basis: 6-311+G(d,p) (5D, 7F)
 There are   382 symmetry adapted cartesian basis functions of A   symmetry.
 There are   368 symmetry adapted basis functions of A   symmetry.
   368 basis functions,   594 primitive gaussians,   382 cartesian basis functions
    61 alpha electrons       61 beta electrons
       nuclear repulsion energy      1088.1109607807 Hartrees.
 NAtoms=   20 NActive=   20 NUniq=   20 SFac= 1.00D+00 NAtFMM=   60 NAOKFM=F Big=F
 Integral buffers will be    131072 words long.
 Raffenetti 2 integral format.
 Two-electron integral symmetry is turned on.
 Nuclear repulsion after empirical dispersion term =     1088.1010822468 Hartrees.
 One-electron integrals computed using PRISM.
 NBasis=   368 RedAO= T EigKep=  3.37D-06  NBF=   368
 NBsUse=   367 1.00D-06 EigRej=  5.09D-07 NBFU=   367
 Initial guess from the checkpoint file:  "/tmp/pbs.4766238[280].pbs/Gau-1779989.chk"
 B after Tr=    -0.000000   -0.000000   -0.000000
         Rot=    0.999947    0.010030   -0.001702   -0.001417 Ang=   1.18 deg.
 ExpMin= 4.05D-02 ExpMax= 9.34D+04 ExpMxC= 3.17D+03 IAcc=3 IRadAn=         5 AccDes= 0.00D+00
 Harris functional with IExCor= 4639 and IRadAn=       5 diagonalized for initial guess.
 HarFok:  IExCor= 4639 AccDes= 0.00D+00 IRadAn=         5 IDoV= 1 UseB2=F ITyADJ=14
 ICtDFT=  3500011 ScaDFX=  1.000000  1.000000  1.000000  1.000000
 FoFCou: FMM=F IPFlag=           0 FMFlag=      100000 FMFlg1=           0
         NFxFlg=           0 DoJE=T BraDBF=F KetDBF=T FulRan=T
         wScrn=  0.000000 ICntrl=       500 IOpCl=  0 I1Cent=   200000004 NGrid=           0
         NMat0=    1 NMatS0=      1 NMatT0=    0 NMatD0=    1 NMtDS0=    0 NMtDT0=    0
 Petite list used in FoFCou.
 Requested convergence on RMS density matrix=1.00D-08 within 128 cycles.
 Requested convergence on MAX density matrix=1.00D-06.
 Requested convergence on             energy=1.00D-06.
 No special actions if energy rises.
 SCF Done:  E(RwB97XD) =  -1654.29367635     A.U. after   16 cycles
            NFock= 16  Conv=0.27D-08     -V/T= 2.0029
 Calling FoFJK, ICntrl=      2127 FMM=F ISym2X=0 I1Cent= 0 IOpClX= 0 NMat=1 NMatS=1 NMatT=0.
 ***** Axes restored to original set *****
 -------------------------------------------------------------------
 Center     Atomic                   Forces (Hartrees/Bohr)
 Number     Number              X              Y              Z
 -------------------------------------------------------------------
      1        6          -0.038010437    0.024891513   -0.020839295
      2        6           0.006102206    0.020885288   -0.015583645
      3        6          -0.041462938    0.021254447    0.006628219
      4        6          -0.004639163    0.043513206   -0.007067427
      5       16          -0.000367401    0.024208804   -0.000793865
      6        1           0.001947526   -0.002965939   -0.001179578
      7        6           0.035988321    0.001483376   -0.042237948
      8       16          -0.010380732    0.010190895   -0.007903738
      9        6          -0.006957725   -0.014778667   -0.025378118
     10        6          -0.007265540   -0.010081891    0.028954853
     11        6          -0.013083875    0.002260073    0.044479284
     12        1          -0.003874643    0.004935420    0.000328234
     13       16           0.013984040    0.003344767    0.008591762
     14        6          -0.024064905    0.012635222    0.040130928
     15        6           0.009494437   -0.017756442   -0.041181173
     16        1           0.001813708    0.004515921   -0.004656631
     17        1           0.004167655    0.007206522   -0.002011889
     18        1           0.011561358   -0.056600192    0.016383259
     19        8           0.035943621    0.030639023   -0.008607711
     20        1           0.029104486   -0.109781343    0.031944479
 -------------------------------------------------------------------
 Cartesian Forces:  Max     0.109781343 RMS     0.025861362

 GradGradGradGradGradGradGradGradGradGradGradGradGradGradGradGradGradGrad
 Berny optimization.
 Using GEDIIS/GDIIS optimizer.
 FormGI is forming the generalized inverse of G from B-inverse, IUseBI=4.
 Internal  Forces:  Max     0.114974241 RMS     0.020462324
 Search for a local minimum.
 Step number   2 out of a maximum of  116
 All quantities printed in internal units (Hartrees-Bohrs-Radians)
 Mixed Optimization -- RFO/linear search
 Update second derivatives using D2CorX and points    1    2
 DE= -7.03D-02 DEPred=-6.55D-02 R= 1.07D+00
 TightC=F SS=  1.41D+00  RLast= 3.06D-01 DXNew= 5.0454D-01 9.1943D-01
 Trust test= 1.07D+00 RLast= 3.06D-01 DXMaxT set to 5.05D-01
 ITU=  1  0
 Use linear search instead of GDIIS.
 Linear search step of   0.600 exceeds DXMaxT=   0.505 but not scaled.
 Quartic linear search produced a step of  2.00000.
 Iteration  1 RMS(Cart)=  0.10831799 RMS(Int)=  0.01858251
 Iteration  2 RMS(Cart)=  0.02099538 RMS(Int)=  0.00036467
 Iteration  3 RMS(Cart)=  0.00012854 RMS(Int)=  0.00035477
 Iteration  4 RMS(Cart)=  0.00000004 RMS(Int)=  0.00035477
 Iteration  1 RMS(Cart)=  0.00000532 RMS(Int)=  0.00000217
 Iteration  2 RMS(Cart)=  0.00000290 RMS(Int)=  0.00000243
 Iteration  3 RMS(Cart)=  0.00000158 RMS(Int)=  0.00000274
 Iteration  4 RMS(Cart)=  0.00000086 RMS(Int)=  0.00000295
 Variable       Old X    -DE/DX   Delta X   Delta X   Delta X     New X
                                 (Linear)    (Quad)   (Total)
    R1        2.69842  -0.01263  -0.04150   0.00000  -0.04109   2.65733
    R2        2.65489  -0.04726  -0.11805   0.00000  -0.11787   2.53702
    R3        3.04849  -0.10138  -0.29309   0.00000  -0.29309   2.75540
    R4        2.69068  -0.05246  -0.13676   0.00000  -0.13660   2.55409
    R5        2.25903  -0.05793  -0.18321   0.00000  -0.18321   2.07582
    R6        3.36868  -0.01902  -0.05419   0.00000  -0.05450   3.31419
    R7        2.74496  -0.00020  -0.00915   0.00000  -0.00915   2.73581
    R8        3.26485  -0.01261  -0.04371   0.00000  -0.04401   3.22084
    R9        2.04035  -0.00061  -0.00077   0.00000  -0.00077   2.03958
   R10        3.36469  -0.01316  -0.03798   0.00000  -0.03817   3.32651
   R11        2.70094  -0.05264  -0.13281   0.00000  -0.13286   2.56808
   R12        3.26352  -0.00282  -0.01278   0.00000  -0.01281   3.25071
   R13        2.68890  -0.02717  -0.06710   0.00000  -0.06669   2.62221
   R14        2.69192  -0.00016  -0.00572   0.00000  -0.00545   2.68648
   R15        2.69490  -0.00613  -0.02318   0.00000  -0.02302   2.67188
   R16        3.26968  -0.00125  -0.00692   0.00000  -0.00702   3.26266
   R17        2.04030   0.00132   0.00346   0.00000   0.00346   2.04376
   R18        3.31703  -0.01253  -0.03693   0.00000  -0.03723   3.27980
   R19        2.67399  -0.04634  -0.11487   0.00000  -0.11490   2.55909
   R20        2.04119  -0.00033  -0.00101   0.00000  -0.00101   2.04018
   R21        2.04976  -0.00244  -0.00712   0.00000  -0.00712   2.04264
   R22        2.24110  -0.11497  -0.31666   0.00000  -0.31666   1.92444
    A1        1.99149   0.01118   0.04257   0.00000   0.04312   2.03461
    A2        2.13986   0.00633   0.01453   0.00000   0.01430   2.15416
    A3        2.13378  -0.01688  -0.05402   0.00000  -0.05449   2.07929
    A4        1.96623  -0.00204  -0.01129   0.00000  -0.01071   1.95552
    A5        1.99573   0.01844   0.06479   0.00000   0.06450   2.06024
    A6        2.31665  -0.01623  -0.05247   0.00000  -0.05281   2.26383
    A7        1.90583   0.00243   0.00286   0.00000   0.00280   1.90863
    A8        2.30875  -0.00804  -0.02033   0.00000  -0.02030   2.28844
    A9        2.06847   0.00563   0.01751   0.00000   0.01754   2.08601
   A10        1.93493  -0.00851  -0.03692   0.00000  -0.03700   1.89793
   A11        2.19125   0.00778   0.03090   0.00000   0.03092   2.22217
   A12        2.15691   0.00075   0.00614   0.00000   0.00615   2.16307
   A13        1.62630  -0.00305   0.00281   0.00000   0.00179   1.62809
   A14        2.12481  -0.00339  -0.00819   0.00000  -0.00827   2.11654
   A15        2.23471  -0.00388  -0.01176   0.00000  -0.01184   2.22287
   A16        1.92312   0.00734   0.02025   0.00000   0.02037   1.94348
   A17        1.61240  -0.00540  -0.01269   0.00000  -0.01260   1.59981
   A18        1.95116  -0.00715  -0.02116   0.00000  -0.02183   1.92933
   A19        2.25179   0.00710   0.02682   0.00000   0.02610   2.27790
   A20        1.97198   0.00351   0.01259   0.00000   0.01278   1.98476
   A21        1.97413   0.00431   0.01544   0.00000   0.01550   1.98963
   A22        1.95307  -0.00846  -0.02654   0.00000  -0.02690   1.92618
   A23        2.25074   0.00727   0.02692   0.00000   0.02625   2.27699
   A24        1.96332   0.00093  -0.00165   0.00000  -0.00129   1.96203
   A25        2.15442  -0.00371  -0.01195   0.00000  -0.01227   2.14215
   A26        2.15523   0.00328   0.01648   0.00000   0.01616   2.17139
   A27        1.59519  -0.00074   0.00278   0.00000   0.00270   1.59788
   A28        1.96149   0.00274   0.00445   0.00000   0.00436   1.96584
   A29        2.13042  -0.00491  -0.01220   0.00000  -0.01256   2.11786
   A30        2.17682   0.00313   0.01318   0.00000   0.01291   2.18973
   A31        1.94275   0.00295   0.00671   0.00000   0.00705   1.94981
   A32        2.16897   0.00022   0.00699   0.00000   0.00636   2.17533
   A33        2.13910  -0.00153  -0.00421   0.00000  -0.00488   2.13422
   A34        2.23699  -0.05922  -0.20509   0.00000  -0.20509   2.03190
    D1        0.00469  -0.00058  -0.00429   0.00000  -0.00437   0.00032
    D2        3.05693   0.00007   0.00208   0.00000   0.00282   3.05975
    D3       -2.93784  -0.00205  -0.01432   0.00000  -0.01536  -2.95320
    D4        0.11441  -0.00140  -0.00796   0.00000  -0.00817   0.10623
    D5       -0.00403   0.00081   0.00536   0.00000   0.00541   0.00138
    D6       -3.13147  -0.00068  -0.00254   0.00000  -0.00241  -3.13388
    D7        2.93927   0.00523   0.02460   0.00000   0.02408   2.96336
    D8       -0.18816   0.00373   0.01670   0.00000   0.01627  -0.17190
    D9       -0.13127   0.00125   0.00391   0.00000   0.00362  -0.12765
   D10       -3.05776  -0.00376  -0.01915   0.00000  -0.01886  -3.07662
   D11       -0.00311   0.00014   0.00155   0.00000   0.00129  -0.00181
   D12        3.11985   0.00112   0.00445   0.00000   0.00420   3.12405
   D13       -3.03379  -0.00326  -0.01553   0.00000  -0.01532  -3.04911
   D14        0.08916  -0.00229  -0.01262   0.00000  -0.01241   0.07675
   D15        0.00073   0.00029   0.00135   0.00000   0.00150   0.00224
   D16       -3.12517  -0.00037  -0.00062   0.00000  -0.00057  -3.12574
   D17        1.83269  -0.00107  -0.00000   0.00000  -0.00000   1.83269
   D18       -1.34819   0.00132   0.01067   0.00000   0.01066  -1.33754
   D19       -1.32893  -0.00007   0.00294   0.00000   0.00298  -1.32595
   D20        1.77337   0.00232   0.01361   0.00000   0.01364   1.78700
   D21        0.00184  -0.00062  -0.00384   0.00000  -0.00386  -0.00202
   D22        3.12961   0.00091   0.00420   0.00000   0.00389   3.13350
   D23        3.13879   0.00065   0.00248   0.00000   0.00250   3.14130
   D24        0.03017  -0.00117  -0.00585   0.00000  -0.00603   0.02414
   D25        3.14153  -0.00130  -0.00594   0.00000  -0.00582   3.13571
   D26       -0.14864   0.00264   0.01581   0.00000   0.01572  -0.13292
   D27       -0.03567   0.00070   0.00322   0.00000   0.00350  -0.03216
   D28        2.95735   0.00463   0.02498   0.00000   0.02505   2.98240
   D29       -0.01715   0.00166   0.00800   0.00000   0.00781  -0.00934
   D30       -2.63369  -0.00639  -0.03329   0.00000  -0.03342  -2.66711
   D31       -0.00041  -0.00127  -0.00683   0.00000  -0.00667  -0.00709
   D32       -2.71054  -0.00923  -0.04403   0.00000  -0.04290  -2.75344
   D33        2.70438   0.00722   0.03428   0.00000   0.03354   2.73792
   D34       -0.00575  -0.00075  -0.00292   0.00000  -0.00268  -0.00843
   D35        2.63130   0.00609   0.03555   0.00000   0.03634   2.66763
   D36       -0.24475  -0.00030  -0.00037   0.00000  -0.00001  -0.24476
   D37        0.01976   0.00049   0.00227   0.00000   0.00213   0.02189
   D38       -2.85628  -0.00590  -0.03365   0.00000  -0.03423  -2.89051
   D39        0.02384   0.00038   0.00221   0.00000   0.00208   0.02592
   D40       -2.96910  -0.00287  -0.01656   0.00000  -0.01703  -2.98613
   D41        2.64300   0.00500   0.02942   0.00000   0.03019   2.67319
   D42       -0.34993   0.00175   0.01066   0.00000   0.01107  -0.33886
   D43       -0.00731   0.00082   0.00258   0.00000   0.00246  -0.00485
   D44       -2.63147  -0.00673  -0.03459   0.00000  -0.03437  -2.66584
   D45        0.01876  -0.00044  -0.00106   0.00000  -0.00108   0.01767
   D46        2.98640   0.00562   0.03152   0.00000   0.03108   3.01748
   D47       -0.02513   0.00013  -0.00026   0.00000  -0.00012  -0.02525
   D48        2.85622   0.00669   0.03703   0.00000   0.03718   2.89340
   D49       -2.98731  -0.00517  -0.03057   0.00000  -0.03081  -3.01812
   D50       -0.10597   0.00138   0.00672   0.00000   0.00649  -0.09948
         Item               Value     Threshold  Converged?
 Maximum Force            0.114974     0.000450     NO 
 RMS     Force            0.020559     0.000300     NO 
 Maximum Displacement     0.754575     0.001800     NO 
 RMS     Displacement     0.119139     0.001200     NO 
 Predicted change in Energy=-1.037764D-01
 GradGradGradGradGradGradGradGradGradGradGradGradGradGradGradGradGradGrad

                          Input orientation:                          
 ---------------------------------------------------------------------
 Center     Atomic      Atomic             Coordinates (Angstroms)
 Number     Number       Type             X           Y           Z
 ---------------------------------------------------------------------
      1          6           0       -4.168417   -1.357076   -0.269206
      2          6           0       -2.868477   -0.993640   -0.663498
      3          6           0       -2.019349   -2.044949   -0.642079
      4          6           0       -4.359130   -2.645484    0.056412
      5         16           0       -2.882807   -3.478984   -0.118848
      6          1           0       -5.279781   -3.110845    0.373784
      7          6           0       -0.615454   -2.141921   -0.982065
      8         16           0        0.620127   -2.268306    0.265361
      9          6           0        1.872984   -2.332179   -0.911654
     10          6           0        1.341765   -2.270429   -2.192071
     11          6           0       -0.068917   -2.181214   -2.225671
     12          1           0       -0.665234   -2.262317   -3.124280
     13         16           0        2.449666   -2.939125   -3.334999
     14          6           0        3.604944   -3.281475   -2.085830
     15          6           0        3.163117   -2.926698   -0.855864
     16          1           0        4.502867   -3.844912   -2.290393
     17          1           0        3.644695   -3.265697    0.050532
     18          1           0       -2.702693    0.035424   -1.010189
     19          8           0       -5.326324   -0.483298   -0.416894
     20          1           0       -5.138578    0.470123   -0.721549
 ---------------------------------------------------------------------
                    Distance matrix (angstroms):
                    1          2          3          4          5
     1  C    0.000000
     2  C    1.406199   0.000000
     3  C    2.287072   1.351564   0.000000
     4  C    1.342533   2.338569   2.514579   0.000000
     5  S    2.485537   2.544363   1.753793   1.704396   0.000000
     6  H    2.173539   3.372372   3.577503   1.079298   2.474610
     7  C    3.707789   2.548754   1.447728   3.917540   2.770157
     8  S    4.903699   3.828565   2.800031   4.997892   3.726112
     9  C    6.153218   4.933023   3.912215   6.314630   4.955931
    10  C    5.907092   4.657560   3.708154   6.139752   4.858588
    11  C    4.616585   3.418809   2.516052   4.881534   3.747118
    12  H    4.609035   3.538258   2.835877   4.889630   3.928172
    13  S    7.463310   6.261348   5.293719   7.612332   6.250628
    14  C    8.211491   7.011591   5.936842   8.271648   6.782252
    15  C    7.520590   6.336706   5.261287   7.582580   6.115669
    16  H    9.244766   8.069278   6.963915   9.245599   7.706990
    17  H    8.049211   6.934947   5.835352   8.027821   6.533182
    18  H    2.153244   1.098478   2.220454   3.326964   3.630151
    19  O    1.458097   2.522354   3.664088   2.415477   3.877336
    20  H    2.117660   2.701728   4.007679   3.304508   4.587723
                    6          7          8          9         10
     6  H    0.000000
     7  C    4.953089   0.000000
     8  S    5.960751   1.760314   0.000000
     9  C    7.308948   2.496694   1.720202   0.000000
    10  C    7.150859   2.304634   2.561198   1.387614   0.000000
    11  C    5.896990   1.358971   2.586041   2.349555   1.413900
    12  H    5.852392   2.146173   3.625170   3.367958   2.212946
    13  S    8.574900   3.945477   4.093874   2.563892   1.726523
    14  C    9.220475   4.508730   3.932396   2.297725   2.481024
    15  C    8.533960   3.861269   2.856120   1.421622   2.352331
    16  H   10.165476   5.550595   4.908485   3.332502   3.532878
    17  H    8.931671   4.525262   3.192014   2.221760   3.365013
    18  H    4.296018   3.016321   4.239733   5.152870   4.803275
    19  O    2.744328   5.026205   6.245959   7.449374   7.128008
    20  H    3.747402   5.229656   6.452571   7.553214   7.188040
                   11         12         13         14         15
    11  C    0.000000
    12  H    1.081513   0.000000
    13  S    2.854522   3.194538   0.000000
    14  C    3.837628   4.511262   1.735597   0.000000
    15  C    3.588616   4.499265   2.579783   1.354214   0.000000
    16  H    4.865520   5.468934   2.475336   1.079616   2.167007
    17  H    4.488666   5.446255   3.605075   2.136790   1.080921
    18  H    3.650706   3.728302   6.387448   7.207296   6.573105
    19  O    5.813339   5.676319   8.660972   9.506981   8.844970
    20  H    5.915525   5.766295   8.719779   9.611709   8.970762
                   16         17         18         19         20
    16  H    0.000000
    17  H    2.559664   0.000000
    18  H    8.283479   7.232694   0.000000
    19  O   10.555730   9.404223   2.739436   0.000000
    20  H   10.678870   9.575926   2.491147   1.018369   0.000000
 Stoichiometry    C10H6OS3
 Framework group  C1[X(C10H6OS3)]
 Deg. of freedom    54
 Full point group                 C1      NOp   1
 Largest Abelian subgroup         C1      NOp   1
 Largest concise Abelian subgroup C1      NOp   1
                         Standard orientation:                         
 ---------------------------------------------------------------------
 Center     Atomic      Atomic             Coordinates (Angstroms)
 Number     Number       Type             X           Y           Z
 ---------------------------------------------------------------------
      1          6           0        3.780197    0.342189   -0.318439
      2          6           0        2.495784    0.575703   -0.841077
      3          6           0        1.527909    0.031886   -0.070229
      4          6           0        3.845211   -0.359822    0.824079
      5         16           0        2.262594   -0.770561    1.305310
      6          1           0        4.732275   -0.631236    1.375745
      7          6           0        0.086602    0.038092   -0.206283
      8         16           0       -0.786566   -1.392712   -0.743949
      9          6           0       -2.296192   -0.576091   -0.628832
[...]
 Stoichiometry    C10H6OS3
 Framework group  C1[X(C10H6OS3)]
 Deg. of freedom    54
 Full point group                 C1      NOp   1
 Largest Abelian subgroup         C1      NOp   1
 Largest concise Abelian subgroup C1      NOp   1
                         Standard orientation:                         
 ---------------------------------------------------------------------
 Center     Atomic      Atomic             Coordinates (Angstroms)
 Number     Number       Type             X           Y           Z
 ---------------------------------------------------------------------
      1          6           0        3.760810    0.583883   -0.388660
      2          6           0        2.381168    0.797351   -0.676448
      3          6           0        1.558065    0.019832    0.086877
      4          6           0        3.964224   -0.355995    0.576003
      5         16           0        2.471915   -0.989230    1.155389
      6          1           0        4.908628   -0.697406    0.969209
      7          6           0        0.094938   -0.025692    0.044993
      8         16           0       -0.729893   -1.378447   -0.705271
      9          6           0       -2.268977   -0.649678   -0.401640
     10          6           0       -2.122148    0.569778    0.230907
     11          6           0       -0.770296    0.930035    0.488012
     12          1           0       -0.441213    1.834843    0.979851
     13         16           0       -3.663561    1.296920    0.535783
     14          6           0       -4.473759   -0.054253   -0.194972
     15          6           0       -3.624549   -1.013578   -0.648495
     16          1           0       -5.552337   -0.056705   -0.245974
     17          1           0       -3.949188   -1.924804   -1.130498
     18          1           0        2.008176    1.488672   -1.422327
     19          8           0        4.790729    1.230594   -0.995914
     20          1           0        4.447876    1.832650   -1.656815
 ---------------------------------------------------------------------
 Rotational constants (GHZ):           1.4772911           0.2303131           0.2189247

 **********************************************************************

            Population analysis using the SCF Density.

 **********************************************************************

 Orbital symmetries:
       Occupied  (A) (A) (A) (A) (A) (A) (A) (A) (A) (A) (A) (A)
                 (A) (A) (A) (A) (A) (A) (A) (A) (A) (A) (A) (A)
                 (A) (A) (A) (A) (A) (A) (A) (A) (A) (A) (A) (A)
                 (A) (A) (A) (A) (A) (A) (A) (A) (A) (A) (A) (A)
                 (A) (A) (A) (A) (A) (A) (A) (A) (A) (A) (A) (A)
                 (A)
       Virtual   (A) (A) (A) (A) (A) (A) (A) (A) (A) (A) (A) (A)
                 (A) (A) (A) (A) (A) (A) (A) (A) (A) (A) (A) (A)
                 (A) (A) (A) (A) (A) (A) (A) (A) (A) (A) (A) (A)
                 (A) (A) (A) (A) (A) (A) (A) (A) (A) (A) (A) (A)
                 (A) (A) (A) (A) (A) (A) (A) (A) (A) (A) (A) (A)
                 (A) (A) (A) (A) (A) (A) (A) (A) (A) (A) (A) (A)
                 (A) (A) (A) (A) (A) (A) (A) (A) (A) (A) (A) (A)
                 (A) (A) (A) (A) (A) (A) (A) (A) (A) (A) (A) (A)
                 (A) (A) (A) (A) (A) (A) (A) (A) (A) (A) (A) (A)
                 (A) (A) (A) (A) (A) (A) (A) (A) (A) (A) (A) (A)
                 (A) (A) (A) (A) (A) (A) (A) (A) (A) (A) (A) (A)
                 (A) (A) (A) (A) (A) (A) (A) (A) (A) (A) (A) (A)
                 (A) (A) (A) (A) (A) (A) (A) (A) (A) (A) (A) (A)
                 (A) (A) (A) (A) (A) (A) (A) (A) (A) (A) (A) (A)
                 (A) (A) (A) (A) (A) (A) (A) (A) (A) (A) (A) (A)
                 (A) (A) (A) (A) (A) (A) (A) (A) (A) (A) (A) (A)
                 (A) (A) (A) (A) (A) (A) (A) (A) (A) (A) (A) (A)
                 (A) (A) (A) (A) (A) (A) (A) (A) (A) (A) (A) (A)
                 (A) (A) (A) (A) (A) (A) (A) (A) (A) (A) (A) (A)
                 (A) (A) (A) (A) (A) (A) (A) (A) (A) (A) (A) (A)
                 (A) (A) (A) (A) (A) (A) (A) (A) (A) (A) (A) (A)
                 (A) (A) (A) (A) (A) (A) (A) (A) (A) (A) (A) (A)
                 (A) (A) (A) (A) (A) (A) (A) (A) (A) (A) (A) (A)
                 (A) (A) (A) (A) (A) (A) (A) (A) (A) (A) (A) (A)
                 (A) (A) (A) (A) (A) (A) (A) (A) (A) (A) (A) (A)
                 (A) (A) (A) (A) (A) (A)
 The electronic state is 1-A.
 Alpha  occ. eigenvalues --  -89.05384 -89.05359 -89.05141 -19.28790 -10.35760
 Alpha  occ. eigenvalues --  -10.34005 -10.33843 -10.32755 -10.32675 -10.32653
 Alpha  occ. eigenvalues --  -10.30970 -10.30832 -10.30804 -10.30329  -8.09429
 Alpha  occ. eigenvalues --   -8.09396  -8.09198  -6.04278  -6.04250  -6.04032
 Alpha  occ. eigenvalues --   -6.03904  -6.03877  -6.03650  -6.03492  -6.03446
 Alpha  occ. eigenvalues --   -6.03294  -1.17852  -1.02549  -0.99825  -0.95590
 Alpha  occ. eigenvalues --   -0.87481  -0.86092  -0.84131  -0.81400  -0.80346
 Alpha  occ. eigenvalues --   -0.72305  -0.67863  -0.66883  -0.64219  -0.63426
 Alpha  occ. eigenvalues --   -0.63111  -0.58889  -0.57070  -0.52414  -0.52284
 Alpha  occ. eigenvalues --   -0.51968  -0.50754  -0.50349  -0.48255  -0.47781
 Alpha  occ. eigenvalues --   -0.46018  -0.45463  -0.44384  -0.43762  -0.42512
 Alpha  occ. eigenvalues --   -0.42402  -0.37217  -0.33574  -0.31222  -0.30811
 Alpha  occ. eigenvalues --   -0.29365
 Alpha virt. eigenvalues --    0.01699   0.03751   0.04973   0.05563   0.06088
 Alpha virt. eigenvalues --    0.06888   0.06991   0.07393   0.07542   0.08570
 Alpha virt. eigenvalues --    0.08976   0.09309   0.09848   0.10024   0.10316
 Alpha virt. eigenvalues --    0.10880   0.11346   0.11568   0.12130   0.13149
 Alpha virt. eigenvalues --    0.13417   0.14014   0.14167   0.14504   0.15177
 Alpha virt. eigenvalues --    0.15522   0.15781   0.16203   0.17174   0.17371
 Alpha virt. eigenvalues --    0.17738   0.18119   0.18687   0.19161   0.19623
 Alpha virt. eigenvalues --    0.19896   0.20276   0.21033   0.21266   0.21464
 Alpha virt. eigenvalues --    0.22038   0.22460   0.22603   0.22891   0.23500
 Alpha virt. eigenvalues --    0.23835   0.23962   0.24976   0.25047   0.25271
 Alpha virt. eigenvalues --    0.26322   0.26546   0.26780   0.27483   0.27898
 Alpha virt. eigenvalues --    0.27945   0.28313   0.28732   0.29650   0.29856
 Alpha virt. eigenvalues --    0.30086   0.30997   0.31261   0.32011   0.32382
 Alpha virt. eigenvalues --    0.33306   0.33907   0.34682   0.34997   0.35464
 Alpha virt. eigenvalues --    0.36546   0.37707   0.38679   0.39237   0.39908
 Alpha virt. eigenvalues --    0.40407   0.40794   0.41513   0.42134   0.43150
 Alpha virt. eigenvalues --    0.44426   0.44708   0.46466   0.47211   0.48451
 Alpha virt. eigenvalues --    0.50258   0.51369   0.51735   0.53422   0.55008
 Alpha virt. eigenvalues --    0.55770   0.57709   0.58833   0.61002   0.61260
 Alpha virt. eigenvalues --    0.62363   0.63581   0.63812   0.65083   0.65297
 Alpha virt. eigenvalues --    0.66239   0.67166   0.68000   0.68440   0.70193
 Alpha virt. eigenvalues --    0.70284   0.71061   0.71854   0.72473   0.73801
 Alpha virt. eigenvalues --    0.75679   0.77112   0.78218   0.79170   0.79357
 Alpha virt. eigenvalues --    0.79955   0.80499   0.81297   0.82667   0.83862
 Alpha virt. eigenvalues --    0.84641   0.85813   0.86439   0.87205   0.87858
 Alpha virt. eigenvalues --    0.88726   0.89480   0.90725   0.90948   0.91385
 Alpha virt. eigenvalues --    0.91820   0.92899   0.93711   0.94029   0.95487
 Alpha virt. eigenvalues --    0.96598   0.97460   0.98074   0.99642   1.02050
 Alpha virt. eigenvalues --    1.02450   1.04349   1.05355   1.05718   1.06715
 Alpha virt. eigenvalues --    1.07639   1.09302   1.11580   1.12443   1.13385
 Alpha virt. eigenvalues --    1.13649   1.14330   1.15423   1.15983   1.16788
 Alpha virt. eigenvalues --    1.19177   1.20822   1.22126   1.23990   1.26024
 Alpha virt. eigenvalues --    1.27256   1.28938   1.31102   1.32029   1.36803
 Alpha virt. eigenvalues --    1.42754   1.43736   1.45079   1.46749   1.49656
 Alpha virt. eigenvalues --    1.51040   1.56558   1.59992   1.62092   1.62418
 Alpha virt. eigenvalues --    1.64046   1.66056   1.67077   1.67744   1.68218
 Alpha virt. eigenvalues --    1.69808   1.70250   1.73259   1.73898   1.76766
 Alpha virt. eigenvalues --    1.78788   1.79782   1.82122   1.82569   1.83401
 Alpha virt. eigenvalues --    1.84642   1.85903   1.87552   1.89956   1.91600
 Alpha virt. eigenvalues --    1.94122   1.95189   1.96770   1.97512   1.98847
 Alpha virt. eigenvalues --    2.02589   2.03222   2.05304   2.06293   2.06624
 Alpha virt. eigenvalues --    2.08258   2.10294   2.11754   2.12372   2.12584
 Alpha virt. eigenvalues --    2.14292   2.15514   2.17141   2.17767   2.18683
 Alpha virt. eigenvalues --    2.20219   2.21384   2.23476   2.26518   2.27041
 Alpha virt. eigenvalues --    2.27812   2.30925   2.36703   2.41738   2.43093
 Alpha virt. eigenvalues --    2.48955   2.50794   2.53171   2.61245   2.62180
 Alpha virt. eigenvalues --    2.66779   2.68984   2.71905   2.78123   2.78421
 Alpha virt. eigenvalues --    2.79506   2.80897   2.81275   2.82162   2.83371
 Alpha virt. eigenvalues --    2.83630   2.89497   2.91770   2.93479   2.96998
 Alpha virt. eigenvalues --    2.98752   3.02409   3.04838   3.06251   3.08589
 Alpha virt. eigenvalues --    3.12464   3.16801   3.17759   3.22643   3.24057
 Alpha virt. eigenvalues --    3.27058   3.27469   3.31321   3.35921   3.40342
 Alpha virt. eigenvalues --    3.42019   3.43647   3.45428   3.53772   3.56077
 Alpha virt. eigenvalues --    3.58149   3.66699   3.72620   3.75489   3.96904
 Alpha virt. eigenvalues --    3.97823   4.07306   4.19046   4.21942   4.30561
 Alpha virt. eigenvalues --    4.45620   4.59169   5.11244   5.53827   5.86349
 Alpha virt. eigenvalues --    8.09082   8.10167   8.11236  17.41915  17.44168
 Alpha virt. eigenvalues --   17.44425  17.59284  17.61236  17.64678  17.65330
 Alpha virt. eigenvalues --   17.67836  17.70659  23.60681  23.76401  23.89443
 Alpha virt. eigenvalues --   23.93821  23.98153  24.17069  24.23539  24.25771
 Alpha virt. eigenvalues --   24.28799  24.29973  50.07733 189.33694 189.35276
 Alpha virt. eigenvalues --  189.36521
          Condensed to atoms (all electrons):
               1          2          3          4          5          6
     1  C    7.706480  -1.904407   0.051461  -0.795767   0.987211   0.033684
     2  C   -1.904407  11.466074  -1.145559   0.714326  -2.058430  -0.040766
     3  C    0.051461  -1.145559   8.098636  -0.503350   0.332906   0.030108
     4  C   -0.795767   0.714326  -0.503350   7.037812  -0.624879   0.374380
     5  S    0.987211  -2.058430   0.332906  -0.624879  16.951351  -0.020534
     6  H    0.033684  -0.040766   0.030108   0.374380  -0.020534   0.441675
     7  C    0.195476  -0.758643   0.598987  -0.240242   0.225986   0.000278
     8  S   -0.101239   0.404657   0.586364   0.103704  -0.051432  -0.000370
     9  C    0.095957  -0.418617  -1.041307  -0.054362   0.170264  -0.000082
    10  C    0.003792   0.227047   1.142711   0.036364   0.001797  -0.000151
    11  C    0.226756  -0.918483  -2.272860  -0.165060   0.299641  -0.000570
    12  H   -0.000791   0.010139   0.039238   0.003240  -0.007276  -0.000000
    13  S   -0.001662  -0.026256   0.009444   0.000708   0.000551  -0.000001
    14  C    0.001231  -0.001356  -0.004157  -0.000131   0.003917  -0.000001
    15  C    0.015097  -0.094744  -0.093353  -0.005352   0.005265  -0.000002
    16  H   -0.000001  -0.000003  -0.000107  -0.000000  -0.000000   0.000000
    17  H    0.000001  -0.000119  -0.000466  -0.000001   0.000049   0.000000
    18  H   -0.068274   0.319128   0.106296  -0.053970   0.013883   0.000013
    19  O    0.197360   0.065991  -0.003837  -0.232346   0.002604  -0.005040
    20  H    0.023388  -0.107147  -0.001787   0.101647  -0.007676   0.000176
               7          8          9         10         11         12
     1  C    0.195476  -0.101239   0.095957   0.003792   0.226756  -0.000791
     2  C   -0.758643   0.404657  -0.418617   0.227047  -0.918483   0.010139
     3  C    0.598987   0.586364  -1.041307   1.142711  -2.272860   0.039238
     4  C   -0.240242   0.103704  -0.054362   0.036364  -0.165060   0.003240
     5  S    0.225986  -0.051432   0.170264   0.001797   0.299641  -0.007276
     6  H    0.000278  -0.000370  -0.000082  -0.000151  -0.000570  -0.000000
     7  C   10.162334   1.400624  -1.109259   2.811091  -4.430137   0.063709
     8  S    1.400624  18.466781  -0.415862   2.296168  -4.531387   0.016577
     9  C   -1.109259  -0.415862  18.867819  -4.899745   1.274658  -0.064817
    10  C    2.811091   2.296168  -4.899745  17.601496  -9.675983   0.066278
    11  C   -4.430137  -4.531387   1.274658  -9.675983  21.738433   0.227234
    12  H    0.063709   0.016577  -0.064817   0.066278   0.227234   0.476345
    13  S   -0.708064   0.179687   0.310404  -0.663920  -0.434146   0.007695
    14  C    0.088531   0.241937   1.483734  -0.237092  -0.745405   0.001987
    15  C   -2.104333  -2.067101  -8.453469  -2.274109   4.698293  -0.005412
    16  H    0.002303  -0.001775  -0.018367   0.029778   0.009845  -0.000004
    17  H   -0.006019   0.015909   0.021220  -0.048166  -0.002630   0.000003
    18  H    0.033882  -0.003768  -0.001970  -0.000944   0.016950  -0.000132
    19  O   -0.000733   0.001113  -0.000627  -0.000151  -0.002624  -0.000002
    20  H    0.000067   0.000269  -0.000145  -0.000200   0.000411  -0.000002
              13         14         15         16         17         18
     1  C   -0.001662   0.001231   0.015097  -0.000001   0.000001  -0.068274
     2  C   -0.026256  -0.001356  -0.094744  -0.000003  -0.000119   0.319128
     3  C    0.009444  -0.004157  -0.093353  -0.000107  -0.000466   0.106296
     4  C    0.000708  -0.000131  -0.005352  -0.000000  -0.000001  -0.053970
     5  S    0.000551   0.003917   0.005265  -0.000000   0.000049   0.013883
     6  H   -0.000001  -0.000001  -0.000002   0.000000   0.000000   0.000013
     7  C   -0.708064   0.088531  -2.104333   0.002303  -0.006019   0.033882
     8  S    0.179687   0.241937  -2.067101  -0.001775   0.015909  -0.003768
     9  C    0.310404   1.483734  -8.453469  -0.018367   0.021220  -0.001970
    10  C   -0.663920  -0.237092  -2.274109   0.029778  -0.048166  -0.000944
    11  C   -0.434146  -0.745405   4.698293   0.009845  -0.002630   0.016950
    12  H    0.007695   0.001987  -0.005412  -0.000004   0.000003  -0.000132
    13  S   17.431393   0.436808  -0.084321  -0.043725   0.008163   0.000150
    14  C    0.436808   5.787754  -1.260341   0.375599   0.027540   0.000005
    15  C   -0.084321  -1.260341  17.099598   0.014468   0.345284  -0.001091
    16  H   -0.043725   0.375599   0.014468   0.441138  -0.003658  -0.000000
    17  H    0.008163   0.027540   0.345284  -0.003658   0.479323   0.000000
    18  H    0.000150   0.000005  -0.001091  -0.000000   0.000000   0.493625
    19  O   -0.000019   0.000003  -0.000122   0.000000   0.000000  -0.003243
    20  H   -0.000005  -0.000000  -0.000007  -0.000000  -0.000000   0.001545
              19         20
     1  C    0.197360   0.023388
     2  C    0.065991  -0.107147
     3  C   -0.003837  -0.001787
     4  C   -0.232346   0.101647
     5  S    0.002604  -0.007676
     6  H   -0.005040   0.000176
     7  C   -0.000733   0.000067
     8  S    0.001113   0.000269
     9  C   -0.000627  -0.000145
    10  C   -0.000151  -0.000200
    11  C   -0.002624   0.000411
    12  H   -0.000002  -0.000002
    13  S   -0.000019  -0.000005
    14  C    0.000003  -0.000000
    15  C   -0.000122  -0.000007
    16  H    0.000000  -0.000000
    17  H    0.000000  -0.000000
    18  H   -0.003243   0.001545
    19  O    7.990795   0.268056
    20  H    0.268056   0.454721
 Mulliken charges:
               1
     1  C   -0.665754
     2  C    0.267168
     3  C    0.070631
     4  C    0.303282
     5  S   -0.225199
     6  H    0.187202
     7  C   -0.225839
     8  S   -0.540858
     9  C    0.254571
    10  C   -0.416062
    11  C    0.687063
    12  H    0.165990
    13  S   -0.422885
    14  C   -0.200564
    15  C    0.265752
    16  H    0.194508
    17  H    0.163567
    18  H    0.147916
    19  O   -0.277177
    20  H    0.266689
 Sum of Mulliken charges =  -0.00000
 Mulliken charges with hydrogens summed into heavy atoms:
               1
     1  C   -0.665754
     2  C    0.415084
     3  C    0.070631
     4  C    0.490483
     5  S   -0.225199
     7  C   -0.225839
     8  S   -0.540858
     9  C    0.254571
    10  C   -0.416062
    11  C    0.853053
    13  S   -0.422885
    14  C   -0.006056
    15  C    0.429319
    19  O   -0.010488
 Electronic spatial extent (au):  <R**2>=           4751.1945
 Charge=             -0.0000 electrons
 Dipole moment (field-independent basis, Debye):
    X=             -1.2123    Y=              1.0089    Z=             -1.1654  Tot=              1.9610
 Quadrupole moment (field-independent basis, Debye-Ang):
   XX=            -96.8349   YY=            -97.1286   ZZ=           -100.9581
   XY=              4.6095   XZ=             -0.2301   YZ=             -2.1755
 Traceless Quadrupole moment (field-independent basis, Debye-Ang):
   XX=              1.4723   YY=              1.1786   ZZ=             -2.6509
   XY=              4.6095   XZ=             -0.2301   YZ=             -2.1755
 Octapole moment (field-independent basis, Debye-Ang**2):
  XXX=            -80.5697  YYY=             12.2178  ZZZ=            -10.5246  XYY=             12.3780
  XXY=            -15.5835  XXZ=             -8.8855  XZZ=             24.2465  YZZ=              8.6300
  YYZ=            -10.4237  XYZ=            -27.6148
 Hexadecapole moment (field-independent basis, Debye-Ang**3):
 XXXX=          -5196.6034 YYYY=           -669.6191 ZZZZ=           -407.7936 XXXY=            -14.6277
 XXXZ=             78.0637 YYYX=             67.2685 YYYZ=             -9.9207 ZZZX=            -50.4847
 ZZZY=            -25.4531 XXYY=           -965.3667 XXZZ=           -940.1775 YYZZ=           -157.8328
 XXYZ=            -51.4601 YYXZ=            -29.3138 ZZXY=             41.0629
 N-N= 1.108645315380D+03 E-N=-6.128661554079D+03  KE= 1.651136555608D+03
 Unable to Open any file for archive entry.
 1\1\GINC-CX3-11-7\FOpt\RwB97XD\6-311+G(d,p)\C10H6O1S3\NS5018\27-Oct-20
 21\0\\# opt=modredundant wb97xd/6-311+g(d,p)\\pg2T_TT_105.pdb\\0,1\C,-
 4.2012789238,-1.2318101068,-0.3403929919\C,-2.8468101726,-1.0859520724
 ,-0.759847138\C,-2.1379911277,-2.2491206738,-0.663341101\C,-4.49634790
 48,-2.4943642156,0.0769964229\S,-3.1254771908,-3.5285796408,-0.0445503
 449\H,-5.4434862995,-2.8592549828,0.4414875526\C,-0.7267861749,-2.4550
 59861,-0.9959910578\S,0.4703466409,-2.6157021212,0.2745427986\C,1.7400
 30817,-2.7401178255,-0.8935750734\C,1.2404090992,-2.6472319062,-2.1782
 911551\C,-0.1712772575,-2.4839459136,-2.2405334392\H,-0.7574435903,-2.
 4012859066,-3.1452182251\S,2.51224593,-2.7738713419,-3.3462092649\C,3.
 6901059641,-2.9481684351,-2.0819480341\C,3.153167769,-2.9145235009,-0.
 8338652672\H,4.7306872508,-3.0672515663,-2.3445276059\H,3.7335633162,-
 3.0081185346,0.0730143473\H,-2.4076329675,-0.1597259372,-1.1100069011\
 O,-5.1268043865,-0.236256292,-0.3410590336\H,-4.7242207912,0.577340834
 3,-0.6456844883\\Version=ES64L-G16RevC.01\State=1-A\HF=-1654.4101867\R
 MSD=6.385e-09\RMSF=3.877e-04\Dipole=0.5102512,0.5182778,-0.2574591\Qua
 drupole=1.7035072,0.7481928,-2.4517001,-2.5206872,1.7009274,-1.8253748
 \PG=C01 [X(C10H6O1S3)]\\@
 The archive entry for this job was punched.


 WOMEN HOLD UP HALF THE SKY. -- MAO TSE TUNG
 Job cpu time:       0 days  3 hours 51 minutes 51.2 seconds.
 Elapsed time:       0 days  0 hours 29 minutes 11.3 seconds.
 File lengths (MBytes):  RWF=     86 Int=      0 D2E=      0 Chk=     11 Scr=      1
 Normal termination of Gaussian 16 at Wed Oct 27 01:04:08 2021.
