 Entering Gaussian System, Link 0=g16
 Input=pg2T_TT_65.gjf
 Output=pg2T_TT_65.log
 Initial command:
 /apps/gaussian/g16-c01-avx/g16/l1.exe "/tmp/pbs.4766238[240].pbs/Gau-1610881.inp" -scrdir="/tmp/pbs.4766238[240].pbs/"
 Entering Link 1 = /apps/gaussian/g16-c01-avx/g16/l1.exe PID=   1610882.
  
 Copyright (c) 1988-2019, Gaussian, Inc.  All Rights Reserved.
  
 This is part of the Gaussian(R) 16 program.  It is based on
 the Gaussian(R) 09 system (copyright 2009, Gaussian, Inc.),
 the Gaussian(R) 03 system (copyright 2003, Gaussian, Inc.),
 the Gaussian(R) 98 system (copyright 1998, Gaussian, Inc.),
 the Gaussian(R) 94 system (copyright 1995, Gaussian, Inc.),
 the Gaussian 92(TM) system (copyright 1992, Gaussian, Inc.),
 the Gaussian 90(TM) system (copyright 1990, Gaussian, Inc.),
 the Gaussian 88(TM) system (copyright 1988, Gaussian, Inc.),
 the Gaussian 86(TM) system (copyright 1986, Carnegie Mellon
 University), and the Gaussian 82(TM) system (copyright 1983,
 Carnegie Mellon University). Gaussian is a federally registered
 trademark of Gaussian, Inc.
  
 This software contains proprietary and confidential information,
 including trade secrets, belonging to Gaussian, Inc.
  
 This software is provided under written license and may be
 used, copied, transmitted, or stored only in accord with that
 written license.
  
 The following legend is applicable only to US Government
 contracts under FAR:
  
                    RESTRICTED RIGHTS LEGEND
  
 Use, reproduction and disclosure by the US Government is
 subject to restrictions as set forth in subparagraphs (a)
 and (c) of the Commercial Computer Software - Restricted
 Rights clause in FAR 52.227-19.
  
 Gaussian, Inc.
 340 Quinnipiac St., Bldg. 40, Wallingford CT 06492
  
  
 ---------------------------------------------------------------
 Warning -- This program may not be used in any manner that
 competes with the business of Gaussian, Inc. or will provide
 assistance to any competitor of Gaussian, Inc.  The licensee
 of this program is prohibited from giving any competitor of
 Gaussian, Inc. access to this program.  By using this program,
 the user acknowledges that Gaussian, Inc. is engaged in the
 business of creating and licensing software in the field of
 computational chemistry and represents and warrants to the
 licensee that it is not a competitor of Gaussian, Inc. and that
 it will not use this program in any manner prohibited above.
 ---------------------------------------------------------------
  

 Cite this work as:
 Gaussian 16, Revision C.01,
 M. J. Frisch, G. W. Trucks, H. B. Schlegel, G. E. Scuseria, 
 M. A. Robb, J. R. Cheeseman, G. Scalmani, V. Barone, 
 G. A. Petersson, H. Nakatsuji, X. Li, M. Caricato, A. V. Marenich, 
 J. Bloino, B. G. Janesko, R. Gomperts, B. Mennucci, H. P. Hratchian, 
 J. V. Ortiz, A. F. Izmaylov, J. L. Sonnenberg, D. Williams-Young, 
 F. Ding, F. Lipparini, F. Egidi, J. Goings, B. Peng, A. Petrone, 
 T. Henderson, D. Ranasinghe, V. G. Zakrzewski, J. Gao, N. Rega, 
 G. Zheng, W. Liang, M. Hada, M. Ehara, K. Toyota, R. Fukuda, 
 J. Hasegawa, M. Ishida, T. Nakajima, Y. Honda, O. Kitao, H. Nakai, 
 T. Vreven, K. Throssell, J. A. Montgomery, Jr., J. E. Peralta, 
 F. Ogliaro, M. J. Bearpark, J. J. Heyd, E. N. Brothers, K. N. Kudin, 
 V. N. Staroverov, T. A. Keith, R. Kobayashi, J. Normand, 
 K. Raghavachari, A. P. Rendell, J. C. Burant, S. S. Iyengar, 
 J. Tomasi, M. Cossi, J. M. Millam, M. Klene, C. Adamo, R. Cammi, 
 J. W. Ochterski, R. L. Martin, K. Morokuma, O. Farkas, 
 J. B. Foresman, and D. J. Fox, Gaussian, Inc., Wallingford CT, 2019.
 
 ******************************************
 Gaussian 16:  ES64L-G16RevC.01  3-Jul-2019
                27-Oct-2021 
 ******************************************
 %mem=10GB
 %nprocshared=8
 Will use up to    8 processors via shared memory.
 --------------------------------------
 # opt=modredundant wb97xd/6-311+g(d,p)
 --------------------------------------
 1/18=120,19=15,26=3,38=1/1,3;
 2/9=110,12=2,17=6,18=5,40=1/2;
 3/5=4,6=6,7=111,11=2,25=1,30=1,71=1,74=-58/1,2,3;
 4//1;
 5/5=2,38=5/2;
 6/7=2,8=2,9=2,10=2,28=1/1;
 7//1,2,3,16;
 1/18=20,19=15,26=3/3(2);
 2/9=110/2;
 99//99;
 2/9=110/2;
 3/5=4,6=6,7=111,11=2,25=1,30=1,71=1,74=-58/1,2,3;
 4/5=5,16=3,69=1/1;
 5/5=2,38=5/2;
 7//1,2,3,16;
 1/18=20,19=15,26=3/3(-5);
 2/9=110/2;
 6/7=2,8=2,9=2,10=2,19=2,28=1/1;
 99/9=1/99;
 --------------
 pg2T_TT_65.pdb
 --------------
 Symbolic Z-matrix:
 Charge =  0 Multiplicity = 1
 C                    -4.25     -1.36     -0.21 
 C                    -2.93     -0.95     -0.61 
 C                    -1.97     -2.05     -0.62 
 C                    -4.33     -2.76      0.1 
 S                    -2.8      -3.56     -0.11 
 H                    -5.23     -3.27      0.41 
 C                    -0.56     -2.13     -0.97 
 S                     0.7      -1.271    -0.032 
 C                     1.974    -1.866    -1.04 
 C                     1.49     -2.739    -2.079 
 C                     0.068    -2.909    -2.039 
 H                    -0.452    -3.648    -2.629 
 S                     2.689    -3.87     -2.613 
 C                     3.874    -3.208    -1.484 
 C                     3.329    -2.135    -0.683 
 H                     4.825    -3.686    -1.296 
 H                     3.797    -1.792     0.235 
 H                    -2.89      0.24     -0.97 
 O                    -5.6      -0.36     -0.4 
 H                    -5.76      0.85     -0.75 
 
 Add virtual bond connecting atoms H20        and O19        Dist= 2.40D+00.
 Add virtual bond connecting atoms O19        and C1         Dist= 3.20D+00.
 The following ModRedundant input section has been read:
 D       2       3       7       8 F                                           
 

 GradGradGradGradGradGradGradGradGradGradGradGradGradGradGradGradGradGrad
 Berny optimization.
 Initialization pass.
                           ----------------------------
                           !    Initial Parameters    !
                           ! (Angstroms and Degrees)  !
 --------------------------                            --------------------------
 ! Name  Definition              Value          Derivative Info.                !
 --------------------------------------------------------------------------------
 ! R1    R(1,2)                  1.4389         estimate D2E/DX2                !
 ! R2    R(1,4)                  1.4361         estimate D2E/DX2                !
 ! R3    R(1,19)                 1.6907         estimate D2E/DX2                !
 ! R4    R(2,3)                  1.46           estimate D2E/DX2                !
 ! R5    R(2,18)                 1.2439         estimate D2E/DX2                !
 ! R6    R(3,5)                  1.797          estimate D2E/DX2                !
 ! R7    R(3,7)                  1.455          estimate D2E/DX2                !
 ! R8    R(4,5)                  1.7393         estimate D2E/DX2                !
 ! R9    R(4,6)                  1.0799         estimate D2E/DX2                !
 ! R10   R(7,8)                  1.7903         estimate D2E/DX2                !
 ! R11   R(7,11)                 1.4642         estimate D2E/DX2                !
 ! R12   R(8,9)                  1.7301         estimate D2E/DX2                !
 ! R13   R(9,10)                 1.4408         estimate D2E/DX2                !
 ! R14   R(9,15)                 1.4268         estimate D2E/DX2                !
 ! R15   R(10,11)                1.4327         estimate D2E/DX2                !
 ! R16   R(10,13)                1.7326         estimate D2E/DX2                !
 ! R17   R(11,12)                1.0792         estimate D2E/DX2                !
 ! R18   R(13,14)                1.7655         estimate D2E/DX2                !
 ! R19   R(14,15)                1.4457         estimate D2E/DX2                !
 ! R20   R(14,16)                1.0808         estimate D2E/DX2                !
 ! R21   R(15,17)                1.086          estimate D2E/DX2                !
 ! R22   R(19,20)                1.2697         estimate D2E/DX2                !
 ! A1    A(2,1,4)              112.8843         estimate D2E/DX2                !
 ! A2    A(2,1,19)             122.1887         estimate D2E/DX2                !
 ! A3    A(4,1,19)             123.8039         estimate D2E/DX2                !
 ! A4    A(1,2,3)              112.9799         estimate D2E/DX2                !
 ! A5    A(1,2,18)             112.491          estimate D2E/DX2                !
 ! A6    A(3,2,18)             134.2373         estimate D2E/DX2                !
 ! A7    A(2,3,5)              109.1138         estimate D2E/DX2                !
 ! A8    A(2,3,7)              132.8639         estimate D2E/DX2                !
 ! A9    A(5,3,7)              118.0132         estimate D2E/DX2                !
 ! A10   A(1,4,5)              111.9209         estimate D2E/DX2                !
 ! A11   A(1,4,6)              124.6643         estimate D2E/DX2                !
 ! A12   A(5,4,6)              123.4062         estimate D2E/DX2                !
 ! A13   A(3,5,4)               93.0997         estimate D2E/DX2                !
 ! A14   A(3,7,8)              121.9786         estimate D2E/DX2                !
 ! A15   A(3,7,11)             128.3528         estimate D2E/DX2                !
 ! A16   A(8,7,11)             109.6284         estimate D2E/DX2                !
 ! A17   A(7,8,9)               92.7504         estimate D2E/DX2                !
 ! A18   A(8,9,10)             112.4059         estimate D2E/DX2                !
 ! A19   A(8,9,15)             128.1975         estimate D2E/DX2                !
 ! A20   A(10,9,15)            112.6568         estimate D2E/DX2                !
 ! A21   A(9,10,11)            112.6551         estimate D2E/DX2                !
 ! A22   A(9,10,13)            112.6632         estimate D2E/DX2                !
 ! A23   A(11,10,13)           128.1709         estimate D2E/DX2                !
 ! A24   A(7,11,10)            112.5165         estimate D2E/DX2                !
 ! A25   A(7,11,12)            123.8345         estimate D2E/DX2                !
 ! A26   A(10,11,12)           122.9732         estimate D2E/DX2                !
 ! A27   A(10,13,14)            91.2964         estimate D2E/DX2                !
 ! A28   A(13,14,15)           112.3077         estimate D2E/DX2                !
 ! A29   A(13,14,16)           122.4088         estimate D2E/DX2                !
 ! A30   A(15,14,16)           124.3029         estimate D2E/DX2                !
 ! A31   A(9,15,14)            111.0578         estimate D2E/DX2                !
 ! A32   A(9,15,17)            124.1388         estimate D2E/DX2                !
 ! A33   A(14,15,17)           122.7053         estimate D2E/DX2                !
 ! A34   A(1,19,20)            134.0455         estimate D2E/DX2                !
 ! D1    D(4,1,2,3)              0.3915         estimate D2E/DX2                !
 ! D2    D(4,1,2,18)           175.0898         estimate D2E/DX2                !
 ! D3    D(19,1,2,3)          -167.9154         estimate D2E/DX2                !
 ! D4    D(19,1,2,18)            6.7829         estimate D2E/DX2                !
 ! D5    D(2,1,4,5)             -0.3845         estimate D2E/DX2                !
 ! D6    D(2,1,4,6)           -179.3471         estimate D2E/DX2                !
 ! D7    D(19,1,4,5)           167.7032         estimate D2E/DX2                !
 ! D8    D(19,1,4,6)           -11.2593         estimate D2E/DX2                !
 ! D9    D(2,1,19,20)           -7.6334         estimate D2E/DX2                !
 ! D10   D(4,1,19,20)         -174.6479         estimate D2E/DX2                !
 ! D11   D(1,2,3,5)             -0.2224         estimate D2E/DX2                !
 ! D12   D(1,2,3,7)            178.6265         estimate D2E/DX2                !
 ! D13   D(18,2,3,5)          -173.3787         estimate D2E/DX2                !
 ! D14   D(18,2,3,7)             5.4701         estimate D2E/DX2                !
 ! D15   D(2,3,5,4)              0.0033         estimate D2E/DX2                !
 ! D16   D(7,3,5,4)           -179.041          estimate D2E/DX2                !
 ! D17   D(2,3,7,8)             65.017          Frozen                          !
 ! D18   D(2,3,7,11)          -117.5355         estimate D2E/DX2                !
 ! D19   D(5,3,7,8)           -116.2151         estimate D2E/DX2                !
 ! D20   D(5,3,7,11)            61.2324         estimate D2E/DX2                !
 ! D21   D(1,4,5,3)              0.2153         estimate D2E/DX2                !
 ! D22   D(6,4,5,3)            179.1932         estimate D2E/DX2                !
 ! D23   D(3,7,8,9)            179.7859         estimate D2E/DX2                !
 ! D24   D(11,7,8,9)             1.9108         estimate D2E/DX2                !
 ! D25   D(3,7,11,10)         -179.8627         estimate D2E/DX2                !
 ! D26   D(3,7,11,12)           -9.0564         estimate D2E/DX2                !
 ! D27   D(8,7,11,10)           -2.1613         estimate D2E/DX2                !
 ! D28   D(8,7,11,12)          168.6451         estimate D2E/DX2                !
 ! D29   D(7,8,9,10)            -1.2108         estimate D2E/DX2                !
 ! D30   D(7,8,9,15)          -149.9265         estimate D2E/DX2                !
 ! D31   D(8,9,10,11)            0.1557         estimate D2E/DX2                !
 ! D32   D(8,9,10,13)         -154.0023         estimate D2E/DX2                !
 ! D33   D(15,9,10,11)         153.9097         estimate D2E/DX2                !
 ! D34   D(15,9,10,13)          -0.2483         estimate D2E/DX2                !
 ! D35   D(8,9,15,14)          149.744          estimate D2E/DX2                !
 ! D36   D(8,9,15,17)          -14.1162         estimate D2E/DX2                !
 ! D37   D(10,9,15,14)           1.0917         estimate D2E/DX2                !
 ! D38   D(10,9,15,17)        -162.7685         estimate D2E/DX2                !
 ! D39   D(9,10,11,7)            1.3292         estimate D2E/DX2                !
 ! D40   D(9,10,11,12)        -169.5686         estimate D2E/DX2                !
 ! D41   D(13,10,11,7)         150.5562         estimate D2E/DX2                !
 ! D42   D(13,10,11,12)        -20.3416         estimate D2E/DX2                !
 ! D43   D(9,10,13,14)          -0.5087         estimate D2E/DX2                !
 ! D44   D(11,10,13,14)       -149.7337         estimate D2E/DX2                !
 ! D45   D(10,13,14,15)          1.1359         estimate D2E/DX2                !
 ! D46   D(10,13,14,16)        170.2503         estimate D2E/DX2                !
 ! D47   D(13,14,15,9)          -1.4691         estimate D2E/DX2                !
 ! D48   D(13,14,15,17)        162.6624         estimate D2E/DX2                !
 ! D49   D(16,14,15,9)        -170.341          estimate D2E/DX2                !
 ! D50   D(16,14,15,17)         -6.2094         estimate D2E/DX2                !
 --------------------------------------------------------------------------------
 Trust Radius=3.00D-01 FncErr=1.00D-07 GrdErr=1.00D-06 EigMax=2.50D+02 EigMin=1.00D-04
 Number of steps in this run=    116 maximum allowed number of steps=    120.
 GradGradGradGradGradGradGradGradGradGradGradGradGradGradGradGradGradGrad

                          Input orientation:                          
 ---------------------------------------------------------------------
 Center     Atomic      Atomic             Coordinates (Angstroms)
 Number     Number       Type             X           Y           Z
 ---------------------------------------------------------------------
      1          6           0       -4.250000   -1.360000   -0.210000
      2          6           0       -2.930000   -0.950000   -0.610000
      3          6           0       -1.970000   -2.050000   -0.620000
      4          6           0       -4.330000   -2.760000    0.100000
      5         16           0       -2.800000   -3.560000   -0.110000
      6          1           0       -5.230000   -3.270000    0.410000
      7          6           0       -0.560000   -2.130000   -0.970000
      8         16           0        0.700000   -1.271000   -0.032000
      9          6           0        1.974000   -1.866000   -1.040000
     10          6           0        1.490000   -2.739000   -2.079000
     11          6           0        0.068000   -2.909000   -2.039000
     12          1           0       -0.452000   -3.648000   -2.629000
     13         16           0        2.689000   -3.870000   -2.613000
     14          6           0        3.874000   -3.208000   -1.484000
     15          6           0        3.329000   -2.135000   -0.683000
     16          1           0        4.825000   -3.686000   -1.296000
     17          1           0        3.797000   -1.792000    0.235000
     18          1           0       -2.890000    0.240000   -0.970000
     19          8           0       -5.600000   -0.360000   -0.400000
     20          1           0       -5.760000    0.850000   -0.750000
 ---------------------------------------------------------------------
                    Distance matrix (angstroms):
                    1          2          3          4          5
     1  C    0.000000
     2  C    1.438923   0.000000
     3  C    2.417147   1.460034   0.000000
     4  C    1.436141   2.395871   2.567509   0.000000
     5  S    2.636759   2.660639   1.796970   1.739253   0.000000
     6  H    2.234480   3.422397   3.630000   1.079907   2.501879
     7  C    3.845335   2.671872   1.454991   3.969219   2.793224
     8  S    4.953999   3.689719   2.842795   5.247423   4.182775
     9  C    6.299453   5.007312   3.970566   6.468327   5.150302
    10  C    6.192124   4.989477   3.817722   6.214570   4.791148
    11  C    4.938600   3.855869   2.627715   4.892844   3.517139
    12  H    5.050872   4.182828   2.982283   4.824403   3.444736
    13  S    7.760427   6.641654   5.384304   7.606499   6.040714
    14  C    8.428378   7.221970   6.019950   8.367519   6.823053
    15  C    7.633190   6.370607   5.300056   7.724247   6.318512
    16  H    9.431081   8.252049   7.021787   9.307004   7.717713
    17  H    8.070865   6.831948   5.835741   8.185559   6.838513
    18  H    2.233204   1.243905   2.492589   3.495497   3.897140
    19  O    1.690739   2.742462   4.010162   2.760960   4.261936
    20  H    2.730531   3.356859   4.773992   3.974858   5.349701
                    6          7          8          9         10
     6  H    0.000000
     7  C    5.001290   0.000000
     8  S    6.273457   1.790342   0.000000
     9  C    7.481399   2.548677   1.730077   0.000000
    10  C    7.185783   2.408996   2.639949   1.440800   0.000000
    11  C    5.847797   1.464236   2.666555   2.391377   1.432684
    12  H    5.675182   2.251282   3.704273   3.403810   2.213627
    13  S    8.497593   4.035226   4.168031   2.646048   1.732604
    14  C    9.299134   4.592019   3.991810   2.368143   2.501488
    15  C    8.702836   3.899579   2.842875   1.426827   2.386536
    16  H   10.207180   5.614770   4.944244   3.392070   3.554170
    17  H    9.148871   4.533180   3.151847   2.225855   3.402007
    18  H    4.438479   3.323522   4.006378   5.300814   5.411906
    19  O    3.043206   5.372095   6.376154   7.748749   7.664645
    20  H    4.312876   5.997399   6.837087   8.202165   8.198150
                   11         12         13         14         15
    11  C    0.000000
    12  H    1.079176   0.000000
    13  S    2.850024   3.148876   0.000000
    14  C    3.857857   4.496543   1.765534   0.000000
    15  C    3.615513   4.513540   2.672962   1.445668   0.000000
    16  H    4.876969   5.442891   2.516116   1.080846   2.240399
    17  H    4.508238   5.449884   3.695518   2.228440   1.086000
    18  H    4.450699   4.879823   7.121572   7.609507   6.663254
    19  O    6.427281   6.502406   9.269573   9.952027   9.108115
    20  H    7.053877   7.206768   9.855697  10.479507   9.566851
                   16         17         18         19         20
    16  H    0.000000
    17  H    2.643479   0.000000
    18  H    8.662620   7.092039   0.000000
    19  O   10.979331   9.526671   2.833549   0.000000
    20  H   11.528904   9.964268   2.942346   1.269724   0.000000
 Stoichiometry    C10H6OS3
 Framework group  C1[X(C10H6OS3)]
 Deg. of freedom    54
 Full point group                 C1      NOp   1
 Largest Abelian subgroup         C1      NOp   1
 Largest concise Abelian subgroup C1      NOp   1
                         Standard orientation:                         
 ---------------------------------------------------------------------
 Center     Atomic      Atomic             Coordinates (Angstroms)
 Number     Number       Type             X           Y           Z
 ---------------------------------------------------------------------
      1          6           0        3.928382    0.230429    0.176775
      2          6           0        2.651443    0.784166    0.541881
      3          6           0        1.526014    0.010884    0.025021
      4          6           0        3.814140   -0.956541   -0.623569
      5         16           0        2.154099   -1.388167   -0.911604
      6          1           0        4.650566   -1.530991   -0.993161
      7          6           0        0.083831    0.157626    0.149818
      8         16           0       -0.789765    1.559906   -0.539939
      9          6           0       -2.323918    0.982103    0.012948
     10          6           0       -2.220502   -0.280977    0.698396
     11          6           0       -0.873151   -0.763275    0.766352
     12          1           0       -0.622105   -1.760575    1.093443
     13         16           0       -3.685397   -1.203137    0.623415
     14          6           0       -4.484516    0.066898   -0.306923
     15          6           0       -3.607440    1.184007   -0.576663
     16          1           0       -5.449899   -0.075644   -0.771623
     17          1           0       -3.814991    1.920172   -1.347625
     18          1           0        2.756450    1.753581    1.314221
     19          8           0        5.371999    0.751212    0.886249
     20          1           0        5.675295    1.694209    1.680585
 ---------------------------------------------------------------------
 Rotational constants (GHZ):           1.3945337           0.2225657           0.2071635
 Standard basis: 6-311+G(d,p) (5D, 7F)
 There are   382 symmetry adapted cartesian basis functions of A   symmetry.
 There are   368 symmetry adapted basis functions of A   symmetry.
   368 basis functions,   594 primitive gaussians,   382 cartesian basis functions
    61 alpha electrons       61 beta electrons
       nuclear repulsion energy      1076.3207843805 Hartrees.
 NAtoms=   20 NActive=   20 NUniq=   20 SFac= 1.00D+00 NAtFMM=   60 NAOKFM=F Big=F
 Integral buffers will be    131072 words long.
 Raffenetti 2 integral format.
 Two-electron integral symmetry is turned on.
 Nuclear repulsion after empirical dispersion term =     1076.3109819283 Hartrees.
 One-electron integrals computed using PRISM.
 NBasis=   368 RedAO= T EigKep=  3.76D-06  NBF=   368
 NBsUse=   367 1.00D-06 EigRej=  5.52D-07 NBFU=   367
 ExpMin= 4.05D-02 ExpMax= 9.34D+04 ExpMxC= 3.17D+03 IAcc=3 IRadAn=         5 AccDes= 0.00D+00
 Harris functional with IExCor= 4639 and IRadAn=       5 diagonalized for initial guess.
 HarFok:  IExCor= 4639 AccDes= 0.00D+00 IRadAn=         5 IDoV= 1 UseB2=F ITyADJ=14
 ICtDFT=  3500011 ScaDFX=  1.000000  1.000000  1.000000  1.000000
 FoFCou: FMM=F IPFlag=           0 FMFlag=      100000 FMFlg1=           0
         NFxFlg=           0 DoJE=T BraDBF=F KetDBF=T FulRan=T
         wScrn=  0.000000 ICntrl=       500 IOpCl=  0 I1Cent=   200000004 NGrid=           0
         NMat0=    1 NMatS0=      1 NMatT0=    0 NMatD0=    1 NMtDS0=    0 NMtDT0=    0
 Petite list used in FoFCou.
 Requested convergence on RMS density matrix=1.00D-08 within 128 cycles.
 Requested convergence on MAX density matrix=1.00D-06.
 Requested convergence on             energy=1.00D-06.
 No special actions if energy rises.
 SCF Done:  E(RwB97XD) =  -1654.22414809     A.U. after   19 cycles
            NFock= 19  Conv=0.42D-08     -V/T= 2.0032

 **********************************************************************

            Population analysis using the SCF Density.

 **********************************************************************

 Orbital symmetries:
       Occupied  (A) (A) (A) (A) (A) (A) (A) (A) (A) (A) (A) (A)
                 (A) (A) (A) (A) (A) (A) (A) (A) (A) (A) (A) (A)
                 (A) (A) (A) (A) (A) (A) (A) (A) (A) (A) (A) (A)
                 (A) (A) (A) (A) (A) (A) (A) (A) (A) (A) (A) (A)
                 (A) (A) (A) (A) (A) (A) (A) (A) (A) (A) (A) (A)
                 (A)
       Virtual   (A) (A) (A) (A) (A) (A) (A) (A) (A) (A) (A) (A)
                 (A) (A) (A) (A) (A) (A) (A) (A) (A) (A) (A) (A)
                 (A) (A) (A) (A) (A) (A) (A) (A) (A) (A) (A) (A)
                 (A) (A) (A) (A) (A) (A) (A) (A) (A) (A) (A) (A)
                 (A) (A) (A) (A) (A) (A) (A) (A) (A) (A) (A) (A)
                 (A) (A) (A) (A) (A) (A) (A) (A) (A) (A) (A) (A)
                 (A) (A) (A) (A) (A) (A) (A) (A) (A) (A) (A) (A)
                 (A) (A) (A) (A) (A) (A) (A) (A) (A) (A) (A) (A)
                 (A) (A) (A) (A) (A) (A) (A) (A) (A) (A) (A) (A)
                 (A) (A) (A) (A) (A) (A) (A) (A) (A) (A) (A) (A)
                 (A) (A) (A) (A) (A) (A) (A) (A) (A) (A) (A) (A)
                 (A) (A) (A) (A) (A) (A) (A) (A) (A) (A) (A) (A)
                 (A) (A) (A) (A) (A) (A) (A) (A) (A) (A) (A) (A)
                 (A) (A) (A) (A) (A) (A) (A) (A) (A) (A) (A) (A)
                 (A) (A) (A) (A) (A) (A) (A) (A) (A) (A) (A) (A)
                 (A) (A) (A) (A) (A) (A) (A) (A) (A) (A) (A) (A)
                 (A) (A) (A) (A) (A) (A) (A) (A) (A) (A) (A) (A)
                 (A) (A) (A) (A) (A) (A) (A) (A) (A) (A) (A) (A)
                 (A) (A) (A) (A) (A) (A) (A) (A) (A) (A) (A) (A)
                 (A) (A) (A) (A) (A) (A) (A) (A) (A) (A) (A) (A)
                 (A) (A) (A) (A) (A) (A) (A) (A) (A) (A) (A) (A)
                 (A) (A) (A) (A) (A) (A) (A) (A) (A) (A) (A) (A)
                 (A) (A) (A) (A) (A) (A) (A) (A) (A) (A) (A) (A)
                 (A) (A) (A) (A) (A) (A) (A) (A) (A) (A) (A) (A)
                 (A) (A) (A) (A) (A) (A) (A) (A) (A) (A) (A) (A)
                 (A) (A) (A) (A) (A) (A)
 The electronic state is 1-A.
 Alpha  occ. eigenvalues --  -89.07356 -89.06424 -89.06222 -19.27709 -10.38865
 Alpha  occ. eigenvalues --  -10.36482 -10.35930 -10.34280 -10.34232 -10.34129
 Alpha  occ. eigenvalues --  -10.34093 -10.34024 -10.32720 -10.32257  -8.11185
 Alpha  occ. eigenvalues --   -8.10364  -8.10153  -6.06033  -6.05664  -6.05283
 Alpha  occ. eigenvalues --   -6.05217  -6.05011  -6.04852  -6.04640  -6.04431
 Alpha  occ. eigenvalues --   -6.04209  -1.03298  -1.01324  -0.98303  -0.94134
 Alpha  occ. eigenvalues --   -0.87852  -0.85367  -0.84181  -0.81167  -0.78692
 Alpha  occ. eigenvalues --   -0.71683  -0.67384  -0.64770  -0.62927  -0.62779
 Alpha  occ. eigenvalues --   -0.58909  -0.58312  -0.53915  -0.52160  -0.51296
 Alpha  occ. eigenvalues --   -0.49867  -0.48876  -0.48249  -0.47888  -0.47293
 Alpha  occ. eigenvalues --   -0.45876  -0.45101  -0.43015  -0.41948  -0.40493
 Alpha  occ. eigenvalues --   -0.39899  -0.37574  -0.33968  -0.32358  -0.31214
 Alpha  occ. eigenvalues --   -0.28251
 Alpha virt. eigenvalues --   -0.01156  -0.00304   0.01511   0.04361   0.05327
 Alpha virt. eigenvalues --    0.05511   0.06527   0.06724   0.06838   0.07242
 Alpha virt. eigenvalues --    0.08190   0.08267   0.08804   0.09352   0.09525
 Alpha virt. eigenvalues --    0.10026   0.10411   0.11485   0.11540   0.11624
 Alpha virt. eigenvalues --    0.12409   0.12563   0.13232   0.14406   0.14582
 Alpha virt. eigenvalues --    0.14825   0.15087   0.15689   0.16124   0.16625
 Alpha virt. eigenvalues --    0.17218   0.17566   0.17892   0.18130   0.18520
 Alpha virt. eigenvalues --    0.19219   0.19736   0.20050   0.20417   0.20976
 Alpha virt. eigenvalues --    0.21091   0.21822   0.22308   0.22639   0.23123
 Alpha virt. eigenvalues --    0.23486   0.23572   0.24261   0.24475   0.25062
 Alpha virt. eigenvalues --    0.25310   0.25640   0.26233   0.26522   0.26983
 Alpha virt. eigenvalues --    0.27316   0.27662   0.27925   0.28068   0.28253
 Alpha virt. eigenvalues --    0.29036   0.29896   0.30283   0.30695   0.30740
 Alpha virt. eigenvalues --    0.31543   0.31953   0.32655   0.33568   0.33951
 Alpha virt. eigenvalues --    0.34758   0.35352   0.35839   0.37071   0.38060
 Alpha virt. eigenvalues --    0.38375   0.39463   0.40343   0.40761   0.41742
 Alpha virt. eigenvalues --    0.42178   0.43027   0.43679   0.43960   0.45066
 Alpha virt. eigenvalues --    0.47132   0.48114   0.48276   0.49875   0.51000
 Alpha virt. eigenvalues --    0.51317   0.52804   0.55933   0.56600   0.60639
 Alpha virt. eigenvalues --    0.61250   0.62611   0.62797   0.63240   0.64495
 Alpha virt. eigenvalues --    0.65068   0.65630   0.65694   0.66338   0.67634
 Alpha virt. eigenvalues --    0.68295   0.68981   0.70697   0.71579   0.72783
 Alpha virt. eigenvalues --    0.74172   0.74519   0.75183   0.75774   0.77666
 Alpha virt. eigenvalues --    0.78501   0.78974   0.79133   0.80648   0.80967
 Alpha virt. eigenvalues --    0.81259   0.81796   0.82621   0.83233   0.83919
 Alpha virt. eigenvalues --    0.85111   0.86339   0.87788   0.88650   0.89657
 Alpha virt. eigenvalues --    0.90179   0.91303   0.91546   0.93499   0.94216
 Alpha virt. eigenvalues --    0.94849   0.96086   0.96432   0.97208   0.97317
 Alpha virt. eigenvalues --    1.00263   1.00452   1.00989   1.02135   1.03149
 Alpha virt. eigenvalues --    1.05049   1.05477   1.06196   1.08380   1.09418
 Alpha virt. eigenvalues --    1.09735   1.11945   1.14077   1.14553   1.16454
 Alpha virt. eigenvalues --    1.17935   1.19211   1.22366   1.23019   1.26096
 Alpha virt. eigenvalues --    1.27838   1.30889   1.31910   1.34260   1.37168
 Alpha virt. eigenvalues --    1.42420   1.43341   1.44598   1.45977   1.48508
 Alpha virt. eigenvalues --    1.49644   1.51041   1.54437   1.57887   1.59388
 Alpha virt. eigenvalues --    1.60276   1.62816   1.64212   1.65617   1.66741
 Alpha virt. eigenvalues --    1.67915   1.69510   1.70638   1.72111   1.72951
 Alpha virt. eigenvalues --    1.74541   1.75164   1.75859   1.77763   1.78232
 Alpha virt. eigenvalues --    1.78813   1.81972   1.82706   1.83833   1.86747
 Alpha virt. eigenvalues --    1.87065   1.87805   1.90581   1.91271   1.92377
 Alpha virt. eigenvalues --    1.93556   1.95321   1.97309   1.98600   2.01172
 Alpha virt. eigenvalues --    2.02138   2.02571   2.04089   2.06002   2.07176
 Alpha virt. eigenvalues --    2.07931   2.09473   2.10048   2.11138   2.13136
 Alpha virt. eigenvalues --    2.15124   2.16903   2.17960   2.20204   2.21397
 Alpha virt. eigenvalues --    2.22377   2.26496   2.30806   2.34814   2.36480
 Alpha virt. eigenvalues --    2.41358   2.43590   2.44649   2.50146   2.55180
 Alpha virt. eigenvalues --    2.57754   2.60475   2.64224   2.65673   2.70455
 Alpha virt. eigenvalues --    2.73613   2.76006   2.77896   2.79041   2.80770
 Alpha virt. eigenvalues --    2.82552   2.84056   2.84762   2.87976   2.90485
 Alpha virt. eigenvalues --    2.92566   2.95973   2.96548   2.99013   3.01963
 Alpha virt. eigenvalues --    3.02656   3.04430   3.05121   3.07447   3.10874
 Alpha virt. eigenvalues --    3.11725   3.12727   3.13659   3.17074   3.29260
 Alpha virt. eigenvalues --    3.30085   3.33302   3.35751   3.40519   3.45201
 Alpha virt. eigenvalues --    3.49020   3.56348   3.58316   3.67054   3.70117
 Alpha virt. eigenvalues --    3.88638   3.93585   4.02494   4.12780   4.21576
 Alpha virt. eigenvalues --    4.39500   4.51487   5.13212   5.23617   5.36547
 Alpha virt. eigenvalues --    8.03966   8.04690   8.07099  17.41178  17.42122
 Alpha virt. eigenvalues --   17.43740  17.55530  17.57035  17.59694  17.60615
 Alpha virt. eigenvalues --   17.62424  17.64916  23.54330  23.69031  23.80504
 Alpha virt. eigenvalues --   23.88488  23.92851  23.98021  23.98831  24.00871
 Alpha virt. eigenvalues --   24.06257  24.08382  49.98366 189.28414 189.28999
 Alpha virt. eigenvalues --  189.31991
          Condensed to atoms (all electrons):
               1          2          3          4          5          6
     1  C    6.980738  -0.980748  -0.065111  -1.258990   1.105110   0.035414
     2  C   -0.980748  11.101192  -1.907809   0.555323  -2.156634  -0.033836
     3  C   -0.065111  -1.907809   7.906091  -0.206014   0.327677   0.019272
     4  C   -1.258990   0.555323  -0.206014   7.541541  -0.808498   0.364583
     5  S    1.105110  -2.156634   0.327677  -0.808498  17.140078  -0.016059
     6  H    0.035414  -0.033836   0.019272   0.364583  -0.016059   0.423523
     7  C    0.229191  -0.915022   0.300925  -0.224902   0.255602  -0.000503
     8  S   -0.015362   0.266553   0.135998   0.045954  -0.049716  -0.000325
     9  C    0.056979  -0.248645  -0.389742  -0.047988   0.117135   0.000114
    10  C   -0.081419   0.287980   0.328510   0.059890  -0.167269  -0.000206
    11  C    0.006262  -0.341699  -0.498317  -0.014521   0.385290  -0.000752
    12  H    0.000144  -0.003548   0.019640  -0.000340  -0.001665   0.000001
    13  S    0.003230  -0.006464  -0.037942   0.000096  -0.001433   0.000006
    14  C   -0.001411  -0.009025  -0.017146   0.000285  -0.003643  -0.000001
    15  C    0.025046  -0.130589   0.036499  -0.011480   0.090026   0.000005
    16  H   -0.000001   0.000038   0.000096   0.000001  -0.000028   0.000000
    17  H   -0.000029   0.000184  -0.000536   0.000011  -0.000149   0.000000
    18  H   -0.081808   0.338729   0.088871  -0.028863   0.000868  -0.000042
    19  O    0.332453  -0.054789  -0.000040  -0.122357   0.008213   0.000041
    20  H   -0.064746  -0.013826   0.019832   0.059131  -0.005990  -0.000157
               7          8          9         10         11         12
     1  C    0.229191  -0.015362   0.056979  -0.081419   0.006262   0.000144
     2  C   -0.915022   0.266553  -0.248645   0.287980  -0.341699  -0.003548
     3  C    0.300925   0.135998  -0.389742   0.328510  -0.498317   0.019640
     4  C   -0.224902   0.045954  -0.047988   0.059890  -0.014521  -0.000340
     5  S    0.255602  -0.049716   0.117135  -0.167269   0.385290  -0.001665
     6  H   -0.000503  -0.000325   0.000114  -0.000206  -0.000752   0.000001
     7  C    8.369716   0.219977  -0.588950   1.176323  -2.529608   0.067107
     8  S    0.219977  17.439206  -1.195783   1.525363  -2.022421   0.007505
     9  C   -0.588950  -1.195783  14.214294  -4.749077   1.115838  -0.028842
    10  C    1.176323   1.525363  -4.749077  14.654860  -5.369395   0.057581
    11  C   -2.529608  -2.022421   1.115838  -5.369395  13.662682   0.241396
    12  H    0.067107   0.007505  -0.028842   0.057581   0.241396   0.467348
    13  S   -0.227377   0.141598   0.576441  -1.116491   0.280265   0.002037
    14  C    0.139269   0.022281   0.841277  -0.220091  -0.493985   0.002224
    15  C   -0.391231  -0.225984  -4.022096  -0.453257   1.572406  -0.009143
    16  H   -0.003077   0.000146  -0.024352   0.014233   0.014468  -0.000004
    17  H    0.005262   0.009545   0.025500  -0.023273  -0.006424   0.000005
    18  H    0.019084   0.002855  -0.001303   0.000193  -0.005410   0.000003
    19  O    0.005601   0.001756  -0.000717   0.001080  -0.000087  -0.000003
    20  H    0.000491   0.000445  -0.000136   0.000117   0.000057   0.000000
              13         14         15         16         17         18
     1  C    0.003230  -0.001411   0.025046  -0.000001  -0.000029  -0.081808
     2  C   -0.006464  -0.009025  -0.130589   0.000038   0.000184   0.338729
     3  C   -0.037942  -0.017146   0.036499   0.000096  -0.000536   0.088871
     4  C    0.000096   0.000285  -0.011480   0.000001   0.000011  -0.028863
     5  S   -0.001433  -0.003643   0.090026  -0.000028  -0.000149   0.000868
     6  H    0.000006  -0.000001   0.000005   0.000000   0.000000  -0.000042
     7  C   -0.227377   0.139269  -0.391231  -0.003077   0.005262   0.019084
     8  S    0.141598   0.022281  -0.225984   0.000146   0.009545   0.002855
     9  C    0.576441   0.841277  -4.022096  -0.024352   0.025500  -0.001303
    10  C   -1.116491  -0.220091  -0.453257   0.014233  -0.023273   0.000193
    11  C    0.280265  -0.493985   1.572406   0.014468  -0.006424  -0.005410
    12  H    0.002037   0.002224  -0.009143  -0.000004   0.000005   0.000003
    13  S   16.578474   0.375122  -0.356827  -0.024369  -0.001198  -0.000110
    14  C    0.375122   5.590449  -0.295206   0.372988   0.018907   0.000049
    15  C   -0.356827  -0.295206  10.154396   0.012600   0.330445  -0.000323
    16  H   -0.024369   0.372988   0.012600   0.436017  -0.002658  -0.000000
    17  H   -0.001198   0.018907   0.330445  -0.002658   0.472189   0.000000
    18  H   -0.000110   0.000049  -0.000323  -0.000000   0.000000   0.490431
    19  O   -0.000002   0.000004  -0.000037   0.000000   0.000000  -0.000267
    20  H   -0.000000   0.000000  -0.000003   0.000000  -0.000000   0.000419
              19         20
     1  C    0.332453  -0.064746
     2  C   -0.054789  -0.013826
     3  C   -0.000040   0.019832
     4  C   -0.122357   0.059131
     5  S    0.008213  -0.005990
     6  H    0.000041  -0.000157
     7  C    0.005601   0.000491
     8  S    0.001756   0.000445
     9  C   -0.000717  -0.000136
    10  C    0.001080   0.000117
    11  C   -0.000087   0.000057
    12  H   -0.000003   0.000000
    13  S   -0.000002  -0.000000
    14  C    0.000004   0.000000
    15  C   -0.000037  -0.000003
    16  H    0.000000   0.000000
    17  H    0.000000  -0.000000
    18  H   -0.000267   0.000419
    19  O    8.090128   0.206989
    20  H    0.206989   0.493030
 Mulliken charges:
               1
     1  C   -0.224942
     2  C    0.252635
     3  C   -0.060755
     4  C    0.097138
     5  S   -0.218914
     6  H    0.208922
     7  C    0.092123
     8  S   -0.309589
     9  C    0.350053
    10  C    0.074349
    11  C    0.003954
    12  H    0.178553
    13  S   -0.185058
    14  C   -0.322346
    15  C   -0.325246
    16  H    0.203901
    17  H    0.172218
    18  H    0.176624
    19  O   -0.467966
    20  H    0.304347
 Sum of Mulliken charges =  -0.00000
 Mulliken charges with hydrogens summed into heavy atoms:
               1
     1  C   -0.224942
     2  C    0.429259
     3  C   -0.060755
     4  C    0.306061
     5  S   -0.218914
     7  C    0.092123
     8  S   -0.309589
     9  C    0.350053
    10  C    0.074349
    11  C    0.182508
    13  S   -0.185058
    14  C   -0.118445
    15  C   -0.153029
    19  O   -0.163619
 Electronic spatial extent (au):  <R**2>=           4981.7190
 Charge=             -0.0000 electrons
 Dipole moment (field-independent basis, Debye):
    X=             -1.4581    Y=              0.2456    Z=             -0.2610  Tot=              1.5015
 Quadrupole moment (field-independent basis, Debye-Ang):
   XX=            -99.1636   YY=            -95.5221   ZZ=           -101.9367
   XY=              4.1726   XZ=              8.8442   YZ=              3.2213
 Traceless Quadrupole moment (field-independent basis, Debye-Ang):
   XX=             -0.2895   YY=              3.3520   ZZ=             -3.0626
   XY=              4.1726   XZ=              8.8442   YZ=              3.2213
 Octapole moment (field-independent basis, Debye-Ang**2):
  XXX=            -65.8500  YYY=              1.8484  ZZZ=              3.5804  XYY=             29.0530
  XXY=             23.4117  XXZ=             -7.1995  XZZ=             21.3457  YZZ=              8.1900
  YYZ=              5.0036  XYZ=             41.7562
 Hexadecapole moment (field-independent basis, Debye-Ang**3):
 XXXX=          -5564.1447 YYYY=           -774.4994 ZZZZ=           -380.4262 XXXY=            202.0812
 XXXZ=            291.8974 YYYX=             44.7672 YYYZ=             11.3898 ZZZX=             59.3985
 ZZZY=             16.2371 XXYY=           -926.7431 XXZZ=           -923.1696 YYZZ=           -167.1829
 XXYZ=            146.2162 YYXZ=             56.6680 ZZXY=             39.0290
 N-N= 1.076310981928D+03 E-N=-6.061869462161D+03  KE= 1.648894062353D+03
 Calling FoFJK, ICntrl=      2127 FMM=F ISym2X=0 I1Cent= 0 IOpClX= 0 NMat=1 NMatS=1 NMatT=0.
 ***** Axes restored to original set *****
 -------------------------------------------------------------------
 Center     Atomic                   Forces (Hartrees/Bohr)
 Number     Number              X              Y              Z
 -------------------------------------------------------------------
      1        6          -0.018498214    0.007477896   -0.019295910
      2        6           0.007457825    0.019733802   -0.015020446
      3        6          -0.053434075    0.030708514    0.004738990
      4        6          -0.007849154    0.059260349   -0.011933448
      5       16          -0.004950284    0.037614865   -0.002074077
      6        1           0.002209839   -0.003671422   -0.001405293
      7        6           0.044507126   -0.023975662   -0.044991091
      8       16          -0.015086954   -0.001908324   -0.016989063
      9        6          -0.002596615   -0.035827816   -0.016046226
     10        6          -0.012974366    0.013668191    0.038664282
     11        6          -0.014843413    0.036453347    0.048740068
     12        1          -0.005927663    0.003946121   -0.003077509
     13       16           0.016046310    0.015308980    0.009623377
     14        6          -0.035985512    0.043921925    0.033593226
     15        6           0.015516246   -0.051505979   -0.033480998
     16        1           0.000983914    0.001079129   -0.007158090
     17        1           0.003533829    0.004153933   -0.007470809
     18        1           0.014656889   -0.071016812    0.019179330
     19        8           0.023243104    0.026725532   -0.007230566
     20        1           0.043991168   -0.112146568    0.031634252
 -------------------------------------------------------------------
 Cartesian Forces:  Max     0.112146568 RMS     0.030127643

 GradGradGradGradGradGradGradGradGradGradGradGradGradGradGradGradGradGrad
 Berny optimization.
 FormGI is forming the generalized inverse of G from B-inverse, IUseBI=4.
 Internal  Forces:  Max     0.121136100 RMS     0.024668674
 Search for a local minimum.
 Step number   1 out of a maximum of  116
 All quantities printed in internal units (Hartrees-Bohrs-Radians)
 Mixed Optimization -- RFO/linear search
 Second derivative matrix not updated -- first step.
 ITU=  0
     Eigenvalues ---    0.00230   0.00983   0.01057   0.01222   0.01271
     Eigenvalues ---    0.01295   0.01386   0.01416   0.01417   0.01464
     Eigenvalues ---    0.01494   0.01554   0.01590   0.01761   0.02199
     Eigenvalues ---    0.02652   0.15077   0.15686   0.15738   0.15872
     Eigenvalues ---    0.15997   0.16000   0.17990   0.18458   0.20203
     Eigenvalues ---    0.21719   0.22443   0.23318   0.23380   0.23776
     Eigenvalues ---    0.23977   0.24292   0.24978   0.24995   0.26219
     Eigenvalues ---    0.26547   0.28359   0.30834   0.31293   0.31570
     Eigenvalues ---    0.34830   0.35279   0.35849   0.35892   0.36006
     Eigenvalues ---    0.36094   0.36319   0.37598   0.38221   0.38494
     Eigenvalues ---    0.39449   0.39687   0.405271000.000001000.00000
     Eigenvalues --- 1000.000001000.000001000.000001000.000001000.00000
     Eigenvalues --- 1000.000001000.000001000.000001000.000001000.00000
     Eigenvalues --- 1000.000001000.000001000.000001000.000001000.00000
     Eigenvalues --- 1000.000001000.000001000.000001000.000001000.00000
     Eigenvalues --- 1000.000001000.000001000.000001000.000001000.00000
     Eigenvalues --- 1000.000001000.000001000.000001000.000001000.00000
     Eigenvalues --- 1000.000001000.000001000.000001000.000001000.00000
     Eigenvalues --- 1000.000001000.000001000.000001000.000001000.00000
     Eigenvalues --- 1000.000001000.000001000.000001000.000001000.00000
     Eigenvalues --- 1000.000001000.000001000.000001000.000001000.00000
     Eigenvalues --- 1000.00000
 RFO step:  Lambda=-1.60429407D-01 EMin= 2.30000000D-03
 Linear search not attempted -- first point.
 Maximum step size (   0.300) exceeded in Quadratic search.
    -- Step size scaled by   0.473
 Iteration  1 RMS(Cart)=  0.06180375 RMS(Int)=  0.00150248
 Iteration  2 RMS(Cart)=  0.00183316 RMS(Int)=  0.00005840
 Iteration  3 RMS(Cart)=  0.00000926 RMS(Int)=  0.00005810
 Iteration  4 RMS(Cart)=  0.00000000 RMS(Int)=  0.00005810
 Iteration  1 RMS(Cart)=  0.00000232 RMS(Int)=  0.00000099
 Iteration  2 RMS(Cart)=  0.00000126 RMS(Int)=  0.00000110
 Iteration  3 RMS(Cart)=  0.00000069 RMS(Int)=  0.00000124
 Variable       Old X    -DE/DX   Delta X   Delta X   Delta X     New X
                                 (Linear)    (Quad)   (Total)
    R1        2.71917  -0.02343   0.00000  -0.02086  -0.02080   2.69837
    R2        2.71391  -0.06955   0.00000  -0.05909  -0.05906   2.65485
    R3        3.19503  -0.10695   0.00000  -0.14676  -0.14676   3.04828
    R4        2.75906  -0.07621   0.00000  -0.06839  -0.06837   2.69070
    R5        2.35064  -0.07302   0.00000  -0.09154  -0.09154   2.25910
    R6        3.39578  -0.02611   0.00000  -0.02813  -0.02817   3.36761
    R7        2.74954  -0.00725   0.00000  -0.00639  -0.00639   2.74314
    R8        3.28671  -0.02192   0.00000  -0.02106  -0.02110   3.26561
    R9        2.04073  -0.00051   0.00000  -0.00046  -0.00046   2.04026
   R10        3.38326  -0.01944   0.00000  -0.02053  -0.02056   3.36269
   R11        2.76700  -0.07207   0.00000  -0.06524  -0.06525   2.70176
   R12        3.26937  -0.00661   0.00000  -0.00586  -0.00586   3.26351
   R13        2.72272  -0.03912   0.00000  -0.03392  -0.03385   2.68887
   R14        2.69631  -0.00348   0.00000  -0.00361  -0.00357   2.69275
   R15        2.70738  -0.01310   0.00000  -0.01178  -0.01175   2.69563
   R16        3.27415  -0.00450   0.00000  -0.00364  -0.00366   3.27049
   R17        2.03935   0.00184   0.00000   0.00167   0.00167   2.04101
   R18        3.33638  -0.01835   0.00000  -0.01874  -0.01879   3.31759
   R19        2.73192  -0.06612   0.00000  -0.05751  -0.05752   2.67440
   R20        2.04250  -0.00086   0.00000  -0.00078  -0.00078   2.04172
   R21        2.05224  -0.00348   0.00000  -0.00321  -0.00321   2.04903
   R22        2.39943  -0.12114   0.00000  -0.15822  -0.15822   2.24121
    A1        1.97020   0.01980   0.00000   0.02139   0.02148   1.99168
    A2        2.13260   0.00474   0.00000   0.00685   0.00682   2.13942
    A3        2.16079  -0.02401   0.00000  -0.02690  -0.02698   2.13381
    A4        1.97187  -0.00369   0.00000  -0.00626  -0.00617   1.96570
    A5        1.96334   0.02166   0.00000   0.03253   0.03249   1.99583
    A6        2.34288  -0.01784   0.00000  -0.02583  -0.02588   2.31700
    A7        1.90440   0.00130   0.00000   0.00219   0.00218   1.90657
    A8        2.31891  -0.00781   0.00000  -0.00936  -0.00936   2.30955
    A9        2.05972   0.00653   0.00000   0.00718   0.00719   2.06690
   A10        1.95339  -0.01521   0.00000  -0.01859  -0.01860   1.93479
   A11        2.17580   0.01189   0.00000   0.01564   0.01564   2.19144
   A12        2.15384   0.00336   0.00000   0.00303   0.00303   2.15687
   A13        1.62490  -0.00219   0.00000   0.00129   0.00113   1.62603
   A14        2.12893  -0.00473   0.00000  -0.00531  -0.00533   2.12360
   A15        2.24018  -0.00457   0.00000  -0.00515  -0.00517   2.23501
   A16        1.91338   0.00936   0.00000   0.01053   0.01056   1.92393
   A17        1.61880  -0.00721   0.00000  -0.00646  -0.00645   1.61235
   A18        1.96185  -0.01024   0.00000  -0.01037  -0.01048   1.95137
   A19        2.23747   0.00836   0.00000   0.01315   0.01302   2.25049
   A20        1.96623   0.00571   0.00000   0.00634   0.00638   1.97261
   A21        1.96620   0.00740   0.00000   0.00774   0.00774   1.97394
   A22        1.96634  -0.01292   0.00000  -0.01333  -0.01340   1.95294
   A23        2.23700   0.00917   0.00000   0.01414   0.01404   2.25104
   A24        1.96378   0.00072   0.00000  -0.00139  -0.00133   1.96246
   A25        2.16132  -0.00451   0.00000  -0.00502  -0.00508   2.15624
   A26        2.14629   0.00438   0.00000   0.00802   0.00796   2.15425
   A27        1.59342   0.00016   0.00000   0.00150   0.00149   1.59492
   A28        1.96014   0.00231   0.00000   0.00200   0.00198   1.96212
   A29        2.13644  -0.00487   0.00000  -0.00596  -0.00602   2.13042
   A30        2.16950   0.00365   0.00000   0.00678   0.00674   2.17623
   A31        1.93832   0.00474   0.00000   0.00350   0.00355   1.94188
   A32        2.16663   0.00038   0.00000   0.00341   0.00331   2.16994
   A33        2.14161  -0.00325   0.00000  -0.00212  -0.00223   2.13938
   A34        2.33954  -0.06941   0.00000  -0.10255  -0.10255   2.23698
    D1        0.00683  -0.00107   0.00000  -0.00313  -0.00316   0.00368
    D2        3.05589  -0.00102   0.00000  -0.00080  -0.00070   3.05519
    D3       -2.93068  -0.00098   0.00000  -0.00684  -0.00701  -2.93768
    D4        0.11838  -0.00093   0.00000  -0.00451  -0.00455   0.11383
    D5       -0.00671   0.00180   0.00000   0.00456   0.00456  -0.00215
    D6       -3.13020  -0.00029   0.00000  -0.00009  -0.00007  -3.13026
    D7        2.92697   0.00574   0.00000   0.01304   0.01295   2.93993
    D8       -0.19651   0.00364   0.00000   0.00840   0.00833  -0.18818
    D9       -0.13323   0.00147   0.00000   0.00141   0.00137  -0.13186
   D10       -3.04818  -0.00406   0.00000  -0.00895  -0.00891  -3.05709
   D11       -0.00388   0.00005   0.00000   0.00052   0.00048  -0.00340
   D12        3.11762   0.00129   0.00000   0.00084   0.00080   3.11842
   D13       -3.02603  -0.00318   0.00000  -0.00713  -0.00712  -3.03315
   D14        0.09547  -0.00194   0.00000  -0.00681  -0.00679   0.08868
   D15        0.00006   0.00088   0.00000   0.00180   0.00183   0.00189
   D16       -3.12486   0.00003   0.00000   0.00175   0.00176  -3.12309
   D17        1.13476  -0.00276   0.00000   0.00000  -0.00000   1.13476
   D18       -2.05138  -0.00060   0.00000   0.00233   0.00233  -2.04905
   D19       -2.02834  -0.00150   0.00000   0.00027   0.00028  -2.02805
   D20        1.06871   0.00066   0.00000   0.00260   0.00262   1.07132
   D21        0.00376  -0.00155   0.00000  -0.00366  -0.00364   0.00012
   D22        3.12751   0.00062   0.00000   0.00108   0.00103   3.12854
   D23        3.13786   0.00071   0.00000   0.00041   0.00040   3.13826
   D24        0.03335  -0.00083   0.00000  -0.00124  -0.00126   0.03209
   D25       -3.13920  -0.00125   0.00000  -0.00124  -0.00122  -3.14042
   D26       -0.15806   0.00318   0.00000   0.01041   0.01040  -0.14766
   D27       -0.03772   0.00044   0.00000   0.00057   0.00061  -0.03711
   D28        2.94341   0.00487   0.00000   0.01222   0.01223   2.95564
   D29       -0.02113   0.00147   0.00000   0.00210   0.00209  -0.01904
   D30       -2.61671  -0.00751   0.00000  -0.01810  -0.01811  -2.63482
   D31        0.00272  -0.00104   0.00000  -0.00175  -0.00173   0.00098
   D32       -2.68785  -0.01042   0.00000  -0.02154  -0.02135  -2.70920
   D33        2.68623   0.00831   0.00000   0.01844   0.01832   2.70455
   D34       -0.00433  -0.00107   0.00000  -0.00135  -0.00130  -0.00563
   D35        2.61353   0.00584   0.00000   0.01706   0.01718   2.63071
   D36       -0.24637  -0.00070   0.00000  -0.00054  -0.00048  -0.24686
   D37        0.01905   0.00086   0.00000   0.00102   0.00099   0.02004
   D38       -2.84085  -0.00567   0.00000  -0.01658  -0.01668  -2.85752
   D39        0.02320   0.00040   0.00000   0.00071   0.00069   0.02389
   D40       -2.95953  -0.00305   0.00000  -0.00945  -0.00954  -2.96907
   D41        2.62770   0.00442   0.00000   0.01510   0.01525   2.64295
   D42       -0.35503   0.00098   0.00000   0.00494   0.00502  -0.35001
   D43       -0.00888   0.00103   0.00000   0.00123   0.00120  -0.00768
   D44       -2.61335  -0.00805   0.00000  -0.01840  -0.01838  -2.63172
   D45        0.01983  -0.00040   0.00000  -0.00052  -0.00052   0.01930
   D46        2.97143   0.00608   0.00000   0.01580   0.01573   2.98716
   D47       -0.02564  -0.00007   0.00000  -0.00008  -0.00005  -0.02569
   D48        2.83900   0.00702   0.00000   0.01825   0.01828   2.85727
   D49       -2.97301  -0.00561   0.00000  -0.01511  -0.01515  -2.98816
   D50       -0.10837   0.00148   0.00000   0.00322   0.00318  -0.10520
         Item               Value     Threshold  Converged?
 Maximum Force            0.121136     0.000450     NO 
 RMS     Force            0.024783     0.000300     NO 
 Maximum Displacement     0.417627     0.001800     NO 
 RMS     Displacement     0.061274     0.001200     NO 
 Predicted change in Energy=-6.551171D-02
 GradGradGradGradGradGradGradGradGradGradGradGradGradGradGradGradGradGrad

                          Input orientation:                          
 ---------------------------------------------------------------------
 Center     Atomic      Atomic             Coordinates (Angstroms)
 Number     Number       Type             X           Y           Z
 ---------------------------------------------------------------------
      1          6           0       -4.223440   -1.364054   -0.229343
      2          6           0       -2.909997   -0.965191   -0.622688
      3          6           0       -1.985470   -2.048066   -0.622197
      4          6           0       -4.339936   -2.729277    0.080980
      5         16           0       -2.824245   -3.536049   -0.114153
      6          1           0       -5.246735   -3.228150    0.388404
      7          6           0       -0.577618   -2.131499   -0.965935
      8         16           0        0.666250   -1.274604   -0.025189
      9          6           0        1.939161   -1.873810   -1.026734
     10          6           0        1.447546   -2.732869   -2.048956
     11          6           0        0.031030   -2.896315   -2.009330
     12          1           0       -0.500617   -3.625575   -2.602676
     13         16           0        2.656718   -3.844223   -2.594860
     14          6           0        3.836552   -3.173520   -1.481196
     15          6           0        3.299137   -2.131615   -0.688422
     16          1           0        4.799222   -3.636177   -1.318251
     17          1           0        3.782290   -1.776904    0.215155
     18          1           0       -2.825966    0.173484   -0.976930
     19          8           0       -5.510879   -0.408398   -0.406096
     20          1           0       -5.539001    0.728812   -0.741584
 ---------------------------------------------------------------------
                    Distance matrix (angstroms):
                    1          2          3          4          5
     1  C    0.000000
     2  C    1.427916   0.000000
     3  C    2.372913   1.423857   0.000000
     4  C    1.404886   2.377367   2.549905   0.000000
     5  S    2.586228   2.622074   1.782062   1.728085   0.000000
     6  H    2.214407   3.406411   3.612446   1.079661   2.493156
     7  C    3.797836   2.630225   1.451608   3.950748   2.783096
     8  S    4.894767   3.638995   2.826001   5.214331   4.160001
     9  C    6.234848   4.950068   3.949271   6.433188   5.126975
    10  C    6.111033   4.913970   3.780237   6.166975   4.757810
    11  C    4.859700   3.781753   2.590354   4.847952   3.486194
    12  H    4.960503   4.099159   2.935238   4.769248   3.405879
    13  S    7.686578   6.570130   5.354203   7.573401   6.024105
    14  C    8.354925   7.150502   5.991700   8.336229   6.809292
    15  C    7.575556   6.318085   5.285682   7.700949   6.308567
    16  H    9.367854   8.188408   7.002759   9.290023   7.718622
    17  H    8.028681   6.793199   5.834530   8.178971   6.844658
    18  H    2.208132   1.195462   2.401573   3.440538   3.808546
    19  O    1.613078   2.668618   3.894062   2.644773   4.133453
    20  H    2.524516   3.129768   4.511417   3.751366   5.094370
                    6          7          8          9         10
     6  H    0.000000
     7  C    4.983727   0.000000
     8  S    6.241057   1.779461   0.000000
     9  C    7.448084   2.530667   1.726975   0.000000
    10  C    7.141388   2.373998   2.613923   1.422887   0.000000
    11  C    5.806380   1.429709   2.640127   2.377389   1.426465
    12  H    5.624069   2.217456   3.678598   3.391871   2.213338
    13  S    8.470182   4.005964   4.143443   2.618480   1.730670
    14  C    9.273861   4.564669   3.971984   2.344329   2.494770
    15  C    8.682964   3.886675   2.847181   1.424940   2.375068
    16  H   10.198059   5.594514   4.932595   3.372072   3.547341
    17  H    9.146553   4.530950   3.165402   2.224591   3.389853
    18  H    4.392651   3.219959   3.898505   5.186552   5.278165
    19  O    2.941428   5.255432   6.249187   7.618118   7.518100
    20  H    4.125511   5.731233   6.559881   7.923248   7.905965
                   11         12         13         14         15
    11  C    0.000000
    12  H    1.080059   0.000000
    13  S    2.852300   3.164906   0.000000
    14  C    3.851983   4.502567   1.755591   0.000000
    15  C    3.606950   4.509369   2.642014   1.415229   0.000000
    16  H    4.874489   5.453270   2.502666   1.080433   2.215998
    17  H    4.502596   5.449867   3.665639   2.197974   1.084301
    18  H    4.318789   4.741639   6.987095   7.473009   6.550847
    19  O    6.282742   6.346489   9.127170   9.806947   8.981401
    20  H    6.765646   6.914453   9.566457  10.182152   9.289647
                   16         17         18         19         20
    16  H    0.000000
    17  H    2.615795   0.000000
    18  H    8.530739   6.992433   0.000000
    19  O   10.841991   9.413913   2.805923   0.000000
    20  H   11.236749   9.699506   2.779269   1.185998   0.000000
 Stoichiometry    C10H6OS3
 Framework group  C1[X(C10H6OS3)]
 Deg. of freedom    54
 Full point group                 C1      NOp   1
 Largest Abelian subgroup         C1      NOp   1
 Largest concise Abelian subgroup C1      NOp   1
                         Standard orientation:                         
 ---------------------------------------------------------------------
 Center     Atomic      Atomic             Coordinates (Angstroms)
 Number     Number       Type             X           Y           Z
 ---------------------------------------------------------------------
      1          6           0        3.882607    0.238724    0.196406
      2          6           0        2.608482    0.773059    0.557011
      3          6           0        1.526384    0.011853    0.030705
      4          6           0        3.815934   -0.916073   -0.600905
      5         16           0        2.173697   -1.355857   -0.910624
      6          1           0        4.663333   -1.474760   -0.968944
      7          6           0        0.086124    0.149267    0.148746
      8         16           0       -0.777193    1.551092   -0.526571
      9          6           0       -2.307800    0.958082    0.010106
     10          6           0       -2.186434   -0.295965    0.671350
     11          6           0       -0.841237   -0.765960    0.737326
     12          1           0       -0.573839   -1.761119    1.060876
     13         16           0       -3.655827   -1.207629    0.600837
     14          6           0       -4.456047    0.071215   -0.297107
     15          6           0       -3.598055    1.166116   -0.557711
     16          1           0       -5.433757   -0.062155   -0.737142
     17          1           0       -3.823406    1.919703   -1.304057
     18          1           0        2.657940    1.699553    1.310862
     19          8           0        5.257564    0.736668    0.877262
     20          1           0        5.418627    1.641835    1.626476
 ---------------------------------------------------------------------
 Rotational constants (GHZ):           1.4329140           0.2270934           0.2113281
 Standard basis: 6-311+G(d,p) (5D, 7F)
 There are   382 symmetry adapted cartesian basis functions of A   symmetry.
 There are   368 symmetry adapted basis functions of A   symmetry.
   368 basis functions,   594 primitive gaussians,   382 cartesian basis functions
    61 alpha electrons       61 beta electrons
       nuclear repulsion energy      1087.7392802130 Hartrees.
 NAtoms=   20 NActive=   20 NUniq=   20 SFac= 1.00D+00 NAtFMM=   60 NAOKFM=F Big=F
 Integral buffers will be    131072 words long.
 Raffenetti 2 integral format.
 Two-electron integral symmetry is turned on.
 Nuclear repulsion after empirical dispersion term =     1087.7293413731 Hartrees.
 One-electron integrals computed using PRISM.
 NBasis=   368 RedAO= T EigKep=  3.28D-06  NBF=   368
 NBsUse=   367 1.00D-06 EigRej=  5.01D-07 NBFU=   367
 Initial guess from the checkpoint file:  "/tmp/pbs.4766238[240].pbs/Gau-1610882.chk"
 B after Tr=     0.000000    0.000000    0.000000
         Rot=    0.999985   -0.005091    0.001204   -0.001890 Ang=  -0.64 deg.
 ExpMin= 4.05D-02 ExpMax= 9.34D+04 ExpMxC= 3.17D+03 IAcc=3 IRadAn=         5 AccDes= 0.00D+00
 Harris functional with IExCor= 4639 and IRadAn=       5 diagonalized for initial guess.
 HarFok:  IExCor= 4639 AccDes= 0.00D+00 IRadAn=         5 IDoV= 1 UseB2=F ITyADJ=14
 ICtDFT=  3500011 ScaDFX=  1.000000  1.000000  1.000000  1.000000
 FoFCou: FMM=F IPFlag=           0 FMFlag=      100000 FMFlg1=           0
         NFxFlg=           0 DoJE=T BraDBF=F KetDBF=T FulRan=T
         wScrn=  0.000000 ICntrl=       500 IOpCl=  0 I1Cent=   200000004 NGrid=           0
         NMat0=    1 NMatS0=      1 NMatT0=    0 NMatD0=    1 NMtDS0=    0 NMtDT0=    0
 Petite list used in FoFCou.
 Requested convergence on RMS density matrix=1.00D-08 within 128 cycles.
 Requested convergence on MAX density matrix=1.00D-06.
 Requested convergence on             energy=1.00D-06.
 No special actions if energy rises.
 SCF Done:  E(RwB97XD) =  -1654.29450691     A.U. after   15 cycles
            NFock= 15  Conv=0.93D-08     -V/T= 2.0029
 Calling FoFJK, ICntrl=      2127 FMM=F ISym2X=0 I1Cent= 0 IOpClX= 0 NMat=1 NMatS=1 NMatT=0.
 ***** Axes restored to original set *****
 -------------------------------------------------------------------
 Center     Atomic                   Forces (Hartrees/Bohr)
 Number     Number              X              Y              Z
 -------------------------------------------------------------------
      1        6          -0.037706183    0.024848748   -0.019873897
      2        6           0.006693403    0.021800404   -0.013128924
      3        6          -0.041540098    0.020424281    0.004304908
      4        6          -0.005578915    0.043637354   -0.007784253
      5       16           0.000717836    0.024385847   -0.000938537
      6        1           0.001942473   -0.003060490   -0.001566495
      7        6           0.036027214   -0.017120027   -0.034050442
      8       16          -0.012934826    0.001567576   -0.011927095
      9        6          -0.003365229   -0.027970493   -0.010706503
     10        6          -0.006099356    0.008327425    0.030411731
     11        6          -0.013557961    0.025589245    0.035438042
     12        1          -0.004535523    0.004016603   -0.003159447
     13       16           0.013100818    0.010219464    0.003690390
     14        6          -0.026424843    0.031201404    0.025551465
     15        6           0.012548833   -0.037734069   -0.022652280
     16        1           0.000949597    0.000872169   -0.006632152
     17        1           0.003023239    0.004905020   -0.006168575
     18        1           0.011439709   -0.056743899    0.015847698
     19        8           0.036119203    0.030677557   -0.008313237
     20        1           0.029180608   -0.109844119    0.031657603
 -------------------------------------------------------------------
 Cartesian Forces:  Max     0.109844119 RMS     0.025723125

 GradGradGradGradGradGradGradGradGradGradGradGradGradGradGradGradGradGrad
 Berny optimization.
 Using GEDIIS/GDIIS optimizer.
 FormGI is forming the generalized inverse of G from B-inverse, IUseBI=4.
 Internal  Forces:  Max     0.114973708 RMS     0.020469556
 Search for a local minimum.
 Step number   2 out of a maximum of  116
 All quantities printed in internal units (Hartrees-Bohrs-Radians)
 Mixed Optimization -- RFO/linear search
 Update second derivatives using D2CorX and points    1    2
 DE= -7.04D-02 DEPred=-6.55D-02 R= 1.07D+00
 TightC=F SS=  1.41D+00  RLast= 3.07D-01 DXNew= 5.0454D-01 9.1971D-01
 Trust test= 1.07D+00 RLast= 3.07D-01 DXMaxT set to 5.05D-01
 ITU=  1  0
 Use linear search instead of GDIIS.
 Linear search step of   0.600 exceeds DXMaxT=   0.505 but not scaled.
 Quartic linear search produced a step of  2.00000.
 Iteration  1 RMS(Cart)=  0.10761017 RMS(Int)=  0.01850645
 Iteration  2 RMS(Cart)=  0.02091018 RMS(Int)=  0.00035801
 Iteration  3 RMS(Cart)=  0.00012646 RMS(Int)=  0.00034865
 Iteration  4 RMS(Cart)=  0.00000004 RMS(Int)=  0.00034865
 Iteration  1 RMS(Cart)=  0.00001313 RMS(Int)=  0.00000587
 Iteration  2 RMS(Cart)=  0.00000717 RMS(Int)=  0.00000656
 Iteration  3 RMS(Cart)=  0.00000391 RMS(Int)=  0.00000741
 Iteration  4 RMS(Cart)=  0.00000214 RMS(Int)=  0.00000798
 Iteration  5 RMS(Cart)=  0.00000117 RMS(Int)=  0.00000830
 Iteration  6 RMS(Cart)=  0.00000064 RMS(Int)=  0.00000849
 Variable       Old X    -DE/DX   Delta X   Delta X   Delta X     New X
                                 (Linear)    (Quad)   (Total)
    R1        2.69837  -0.01261  -0.04160   0.00000  -0.04119   2.65718
    R2        2.65485  -0.04733  -0.11813   0.00000  -0.11796   2.53689
    R3        3.04828  -0.10158  -0.29352   0.00000  -0.29352   2.75476
    R4        2.69070  -0.05239  -0.13673   0.00000  -0.13656   2.55414
    R5        2.25910  -0.05794  -0.18309   0.00000  -0.18309   2.07601
    R6        3.36761  -0.01969  -0.05634   0.00000  -0.05663   3.31098
    R7        2.74314  -0.00140  -0.01279   0.00000  -0.01279   2.73035
    R8        3.26561  -0.01214  -0.04221   0.00000  -0.04251   3.22310
    R9        2.04026  -0.00066  -0.00093   0.00000  -0.00093   2.03933
   R10        3.36269  -0.01411  -0.04112   0.00000  -0.04132   3.32137
   R11        2.70176  -0.05185  -0.13049   0.00000  -0.13053   2.57123
   R12        3.26351  -0.00252  -0.01172   0.00000  -0.01177   3.25174
   R13        2.68887  -0.02736  -0.06770   0.00000  -0.06729   2.62158
   R14        2.69275  -0.00070  -0.00713   0.00000  -0.00686   2.68588
   R15        2.69563  -0.00630  -0.02350   0.00000  -0.02334   2.67229
   R16        3.27049  -0.00142  -0.00731   0.00000  -0.00740   3.26309
   R17        2.04101   0.00126   0.00334   0.00000   0.00334   2.04435
   R18        3.31759  -0.01277  -0.03758   0.00000  -0.03788   3.27971
   R19        2.67440  -0.04639  -0.11504   0.00000  -0.11508   2.55931
   R20        2.04172  -0.00053  -0.00156   0.00000  -0.00156   2.04016
   R21        2.04903  -0.00219  -0.00642   0.00000  -0.00642   2.04261
   R22        2.24121  -0.11497  -0.31644   0.00000  -0.31644   1.92477
    A1        1.99168   0.01133   0.04296   0.00000   0.04349   2.03517
    A2        2.13942   0.00609   0.01364   0.00000   0.01344   2.15286
    A3        2.13381  -0.01684  -0.05395   0.00000  -0.05439   2.07942
    A4        1.96570  -0.00231  -0.01233   0.00000  -0.01176   1.95395
    A5        1.99583   0.01848   0.06497   0.00000   0.06469   2.06051
    A6        2.31700  -0.01603  -0.05176   0.00000  -0.05208   2.26492
    A7        1.90657   0.00277   0.00435   0.00000   0.00430   1.91088
    A8        2.30955  -0.00727  -0.01872   0.00000  -0.01869   2.29086
    A9        2.06690   0.00452   0.01437   0.00000   0.01440   2.08130
   A10        1.93479  -0.00868  -0.03721   0.00000  -0.03731   1.89748
   A11        2.19144   0.00793   0.03128   0.00000   0.03130   2.22275
   A12        2.15687   0.00078   0.00606   0.00000   0.00608   2.16295
   A13        1.62603  -0.00311   0.00226   0.00000   0.00125   1.62727
   A14        2.12360  -0.00442  -0.01065   0.00000  -0.01073   2.11287
   A15        2.23501  -0.00305  -0.01033   0.00000  -0.01041   2.22460
   A16        1.92393   0.00753   0.02111   0.00000   0.02126   1.94519
   A17        1.61235  -0.00538  -0.01289   0.00000  -0.01280   1.59956
   A18        1.95137  -0.00716  -0.02096   0.00000  -0.02159   1.92978
   A19        2.25049   0.00699   0.02605   0.00000   0.02528   2.27578
   A20        1.97261   0.00360   0.01276   0.00000   0.01301   1.98562
   A21        1.97394   0.00439   0.01549   0.00000   0.01549   1.98943
   A22        1.95294  -0.00858  -0.02681   0.00000  -0.02722   1.92572
   A23        2.25104   0.00750   0.02808   0.00000   0.02742   2.27846
   A24        1.96246   0.00065  -0.00265   0.00000  -0.00228   1.96018
   A25        2.15624  -0.00329  -0.01016   0.00000  -0.01051   2.14573
   A26        2.15425   0.00318   0.01593   0.00000   0.01558   2.16983
   A27        1.59492  -0.00066   0.00299   0.00000   0.00292   1.59784
   A28        1.96212   0.00257   0.00395   0.00000   0.00384   1.96596
   A29        2.13042  -0.00485  -0.01203   0.00000  -0.01237   2.11805
   A30        2.17623   0.00323   0.01347   0.00000   0.01322   2.18945
   A31        1.94188   0.00307   0.00711   0.00000   0.00745   1.94933
   A32        2.16994   0.00013   0.00662   0.00000   0.00602   2.17596
   A33        2.13938  -0.00159  -0.00446   0.00000  -0.00512   2.13426
   A34        2.23698  -0.05925  -0.20511   0.00000  -0.20511   2.03188
    D1        0.00368  -0.00076  -0.00631   0.00000  -0.00647  -0.00279
    D2        3.05519  -0.00040  -0.00141   0.00000  -0.00087   3.05432
    D3       -2.93768  -0.00190  -0.01401   0.00000  -0.01497  -2.95265
    D4        0.11383  -0.00154  -0.00911   0.00000  -0.00937   0.10446
    D5       -0.00215   0.00145   0.00911   0.00000   0.00912   0.00697
    D6       -3.13026  -0.00038  -0.00013   0.00000   0.00002  -3.13024
    D7        2.93993   0.00553   0.02590   0.00000   0.02537   2.96529
    D8       -0.18818   0.00370   0.01666   0.00000   0.01626  -0.17192
    D9       -0.13186   0.00112   0.00274   0.00000   0.00248  -0.12938
   D10       -3.05709  -0.00357  -0.01782   0.00000  -0.01755  -3.07464
   D11       -0.00340  -0.00022   0.00095   0.00000   0.00066  -0.00274
   D12        3.11842   0.00111   0.00161   0.00000   0.00137   3.11979
   D13       -3.03315  -0.00328  -0.01424   0.00000  -0.01415  -3.04730
   D14        0.08868  -0.00194  -0.01359   0.00000  -0.01345   0.07523
   D15        0.00189   0.00091   0.00366   0.00000   0.00380   0.00569
   D16       -3.12309  -0.00007   0.00353   0.00000   0.00360  -3.11949
   D17        1.13476  -0.00280  -0.00000   0.00000   0.00000   1.13476
   D18       -2.04905  -0.00069   0.00466   0.00000   0.00468  -2.04437
   D19       -2.02805  -0.00139   0.00056   0.00000   0.00063  -2.02743
   D20        1.07132   0.00072   0.00523   0.00000   0.00531   1.07664
   D21        0.00012  -0.00133  -0.00728   0.00000  -0.00716  -0.00705
   D22        3.12854   0.00052   0.00207   0.00000   0.00181   3.13035
   D23        3.13826   0.00073   0.00081   0.00000   0.00077   3.13903
   D24        0.03209  -0.00086  -0.00252   0.00000  -0.00264   0.02945
   D25       -3.14042  -0.00108  -0.00244   0.00000  -0.00231   3.14045
   D26       -0.14766   0.00312   0.02080   0.00000   0.02075  -0.12691
   D27       -0.03711   0.00062   0.00121   0.00000   0.00143  -0.03568
   D28        2.95564   0.00482   0.02446   0.00000   0.02450   2.98014
   D29       -0.01904   0.00121   0.00418   0.00000   0.00409  -0.01495
   D30       -2.63482  -0.00678  -0.03623   0.00000  -0.03628  -2.67110
   D31        0.00098  -0.00076  -0.00346   0.00000  -0.00333  -0.00235
   D32       -2.70920  -0.00914  -0.04270   0.00000  -0.04157  -2.75077
   D33        2.70455   0.00762   0.03663   0.00000   0.03590   2.74045
   D34       -0.00563  -0.00076  -0.00260   0.00000  -0.00234  -0.00797
   D35        2.63071   0.00598   0.03436   0.00000   0.03510   2.66581
   D36       -0.24686  -0.00034  -0.00097   0.00000  -0.00063  -0.24748
   D37        0.02004   0.00047   0.00198   0.00000   0.00180   0.02185
   D38       -2.85752  -0.00585  -0.03335   0.00000  -0.03393  -2.89145
   D39        0.02389   0.00009   0.00137   0.00000   0.00123   0.02511
   D40       -2.96907  -0.00346  -0.01907   0.00000  -0.01960  -2.98867
   D41        2.64295   0.00510   0.03049   0.00000   0.03133   2.67428
   D42       -0.35001   0.00155   0.01004   0.00000   0.01051  -0.33950
   D43       -0.00768   0.00086   0.00240   0.00000   0.00224  -0.00544
   D44       -2.63172  -0.00713  -0.03675   0.00000  -0.03658  -2.66831
   D45        0.01930  -0.00049  -0.00105   0.00000  -0.00105   0.01825
   D46        2.98716   0.00559   0.03145   0.00000   0.03102   3.01817
   D47       -0.02569   0.00018  -0.00010   0.00000   0.00004  -0.02565
   D48        2.85727   0.00666   0.03656   0.00000   0.03668   2.89396
   D49       -2.98816  -0.00514  -0.03031   0.00000  -0.03053  -3.01869
   D50       -0.10520   0.00133   0.00635   0.00000   0.00612  -0.09908
         Item               Value     Threshold  Converged?
 Maximum Force            0.114974     0.000450     NO 
 RMS     Force            0.020563     0.000300     NO 
 Maximum Displacement     0.750548     0.001800     NO 
 RMS     Displacement     0.118876     0.001200     NO 
 Predicted change in Energy=-1.038183D-01
 GradGradGradGradGradGradGradGradGradGradGradGradGradGradGradGradGradGrad

                          Input orientation:                          
 ---------------------------------------------------------------------
 Center     Atomic      Atomic             Coordinates (Angstroms)
 Number     Number       Type             X           Y           Z
 ---------------------------------------------------------------------
      1          6           0       -4.167315   -1.367110   -0.268888
      2          6           0       -2.866259   -0.992592   -0.648567
      3          6           0       -2.012589   -2.040270   -0.627996
      4          6           0       -4.354653   -2.659908    0.040596
      5         16           0       -2.869763   -3.482783   -0.123775
      6          1           0       -5.275922   -3.134124    0.342243
      7          6           0       -0.609173   -2.132396   -0.958901
      8         16           0        0.603195   -1.280660   -0.013465
      9          6           0        1.873488   -1.890204   -1.001283
     10          6           0        1.366370   -2.721109   -1.989701
     11          6           0       -0.039412   -2.869350   -1.950670
     12          1           0       -0.594934   -3.577996   -2.550302
     13         16           0        2.593000   -3.795235   -2.558308
     14          6           0        3.761895   -3.109916   -1.473807
     15          6           0        3.241790   -2.128201   -0.699253
     16          1           0        4.744381   -3.542775   -1.360210
     17          1           0        3.753366   -1.750244    0.174697
     18          1           0       -2.703780    0.039788   -0.987182
     19          8           0       -5.327857   -0.498107   -0.420636
     20          1           0       -5.141828    0.459190   -0.714590
 ---------------------------------------------------------------------
                    Distance matrix (angstroms):
                    1          2          3          4          5
     1  C    0.000000
     2  C    1.406117   0.000000
     3  C    2.285814   1.351593   0.000000
     4  C    1.342462   2.338847   2.513211   0.000000
     5  S    2.486116   2.544891   1.752093   1.705591   0.000000
     6  H    2.173667   3.372586   3.575922   1.079170   2.475548
     7  C    3.704343   2.547528   1.444840   3.912274   2.762471
     8  S    4.778125   3.538849   2.792308   5.146407   4.113751
     9  C    6.107481   4.836870   3.906847   6.361422   5.079837
    10  C    5.951150   4.764616   3.706097   6.070911   4.691125
    11  C    4.703690   3.634386   2.516003   4.757133   3.424140
    12  H    4.780667   3.931899   2.840706   4.657374   3.327454
    13  S    7.539171   6.426930   5.293153   7.504210   5.988853
    14  C    8.207410   7.006890   5.933314   8.268875   6.777943
    15  C    7.460517   6.212926   5.255598   7.650885   6.286267
    16  H    9.238118   8.058021   6.960625   9.248466   7.714114
    17  H    7.942339   6.713512   5.828780   8.159991   6.852489
    18  H    2.153426   1.098576   2.221126   3.327172   3.630638
    19  O    1.457755   2.521097   3.662276   2.415211   3.877969
    20  H    2.117474   2.700045   4.005863   3.304350   4.588082
                    6          7          8          9         10
     6  H    0.000000
     7  C    4.947219   0.000000
     8  S    6.174615   1.757595   0.000000
     9  C    7.380139   2.494806   1.720747   0.000000
    10  C    7.051850   2.304757   2.561804   1.387279   0.000000
    11  C    5.722639   1.360638   2.586434   2.349307   1.414115
    12  H    5.520461   2.150004   3.626128   3.367670   2.212519
    13  S    8.412503   3.946777   4.093732   2.563429   1.726755
    14  C    9.218501   4.508538   3.931433   2.297185   2.481100
    15  C    8.639908   3.859709   2.854963   1.421308   2.352445
    16  H   10.172109   5.550744   4.907169   3.331943   3.533037
    17  H    9.136259   4.523586   3.190532   2.221814   3.365256
    18  H    4.296161   3.017708   3.691584   4.967540   5.019335
    19  O    2.744680   5.022610   5.996295   7.357612   7.226091
    20  H    3.747904   5.226946   6.043504   7.403817   7.355057
                   11         12         13         14         15
    11  C    0.000000
    12  H    1.081824   0.000000
    13  S    2.855885   3.195337   0.000000
    14  C    3.838646   4.512194   1.735546   0.000000
    15  C    3.589099   4.499860   2.579925   1.354329   0.000000
    16  H    4.866910   5.470451   2.475401   1.079606   2.166947
    17  H    4.489404   5.447385   3.605240   2.136901   1.080903
    18  H    4.060820   4.469781   6.725454   7.208495   6.335052
    19  O    5.994285   6.035044   8.841984   9.516003   8.727754
    20  H    6.216247   6.351611   9.018149   9.622433   8.773818
                   16         17         18         19         20
    16  H    0.000000
    17  H    2.559535   0.000000
    18  H    8.273392   6.800655   0.000000
    19  O   10.564221   9.186451   2.737898   0.000000
    20  H   10.685021   9.208524   2.488832   1.018545   0.000000
 Stoichiometry    C10H6OS3
 Framework group  C1[X(C10H6OS3)]
 Deg. of freedom    54
 Full point group                 C1      NOp   1
 Largest Abelian subgroup         C1      NOp   1
 Largest concise Abelian subgroup C1      NOp   1
                         Standard orientation:                         
 ---------------------------------------------------------------------
 Center     Atomic      Atomic             Coordinates (Angstroms)
 Number     Number       Type             X           Y           Z
 ---------------------------------------------------------------------
      1          6           0        3.791579    0.252272    0.234874
      2          6           0        2.523224    0.747480    0.585885
      3          6           0        1.526358    0.014211    0.042396
      4          6           0        3.815813   -0.833925   -0.553665
      5         16           0        2.210695   -1.288567   -0.908540
      6          1           0        4.685206   -1.359652   -0.917500
      7          6           0        0.090203    0.133152    0.146673
[...]
 Largest Abelian subgroup         C1      NOp   1
 Largest concise Abelian subgroup C1      NOp   1
                         Standard orientation:                         
 ---------------------------------------------------------------------
 Center     Atomic      Atomic             Coordinates (Angstroms)
 Number     Number       Type             X           Y           Z
 ---------------------------------------------------------------------
      1          6           0        3.810005    0.307540    0.429700
      2          6           0        2.464123    0.713642    0.662998
      3          6           0        1.558368   -0.063024   -0.002384
      4          6           0        3.906528   -0.772203   -0.395469
      5         16           0        2.351902   -1.301777   -0.912112
      6          1           0        4.806319   -1.269057   -0.721799
      7          6           0        0.099549    0.027573    0.026781
      8         16           0       -0.696649    1.451677   -0.614225
      9          6           0       -2.252357    0.775575   -0.273594
     10          6           0       -2.131229   -0.484947    0.279041
     11          6           0       -0.787439   -0.919004    0.447667
     12          1           0       -0.480764   -1.866833    0.868061
     13         16           0       -3.687849   -1.160492    0.622186
     14          6           0       -4.469334    0.266697    0.015301
     15          6           0       -3.599672    1.213806   -0.425265
     16          1           0       -5.547850    0.318684    0.019441
     17          1           0       -3.905046    2.165401   -0.836720
     18          1           0        2.174964    1.535181    1.307583
     19          8           0        4.905749    0.903874    0.968953
     20          1           0        4.636676    1.661175    1.489555
 ---------------------------------------------------------------------
 Rotational constants (GHZ):           1.5146183           0.2324988           0.2167211

 **********************************************************************

            Population analysis using the SCF Density.

 **********************************************************************

 Orbital symmetries:
       Occupied  (A) (A) (A) (A) (A) (A) (A) (A) (A) (A) (A) (A)
                 (A) (A) (A) (A) (A) (A) (A) (A) (A) (A) (A) (A)
                 (A) (A) (A) (A) (A) (A) (A) (A) (A) (A) (A) (A)
                 (A) (A) (A) (A) (A) (A) (A) (A) (A) (A) (A) (A)
                 (A) (A) (A) (A) (A) (A) (A) (A) (A) (A) (A) (A)
                 (A)
       Virtual   (A) (A) (A) (A) (A) (A) (A) (A) (A) (A) (A) (A)
                 (A) (A) (A) (A) (A) (A) (A) (A) (A) (A) (A) (A)
                 (A) (A) (A) (A) (A) (A) (A) (A) (A) (A) (A) (A)
                 (A) (A) (A) (A) (A) (A) (A) (A) (A) (A) (A) (A)
                 (A) (A) (A) (A) (A) (A) (A) (A) (A) (A) (A) (A)
                 (A) (A) (A) (A) (A) (A) (A) (A) (A) (A) (A) (A)
                 (A) (A) (A) (A) (A) (A) (A) (A) (A) (A) (A) (A)
                 (A) (A) (A) (A) (A) (A) (A) (A) (A) (A) (A) (A)
                 (A) (A) (A) (A) (A) (A) (A) (A) (A) (A) (A) (A)
                 (A) (A) (A) (A) (A) (A) (A) (A) (A) (A) (A) (A)
                 (A) (A) (A) (A) (A) (A) (A) (A) (A) (A) (A) (A)
                 (A) (A) (A) (A) (A) (A) (A) (A) (A) (A) (A) (A)
                 (A) (A) (A) (A) (A) (A) (A) (A) (A) (A) (A) (A)
                 (A) (A) (A) (A) (A) (A) (A) (A) (A) (A) (A) (A)
                 (A) (A) (A) (A) (A) (A) (A) (A) (A) (A) (A) (A)
                 (A) (A) (A) (A) (A) (A) (A) (A) (A) (A) (A) (A)
                 (A) (A) (A) (A) (A) (A) (A) (A) (A) (A) (A) (A)
                 (A) (A) (A) (A) (A) (A) (A) (A) (A) (A) (A) (A)
                 (A) (A) (A) (A) (A) (A) (A) (A) (A) (A) (A) (A)
                 (A) (A) (A) (A) (A) (A) (A) (A) (A) (A) (A) (A)
                 (A) (A) (A) (A) (A) (A) (A) (A) (A) (A) (A) (A)
                 (A) (A) (A) (A) (A) (A) (A) (A) (A) (A) (A) (A)
                 (A) (A) (A) (A) (A) (A) (A) (A) (A) (A) (A) (A)
                 (A) (A) (A) (A) (A) (A) (A) (A) (A) (A) (A) (A)
                 (A) (A) (A) (A) (A) (A) (A) (A) (A) (A) (A) (A)
                 (A) (A) (A) (A) (A) (A)
 The electronic state is 1-A.
 Alpha  occ. eigenvalues --  -89.05423 -89.05370 -89.05216 -19.28783 -10.35790
 Alpha  occ. eigenvalues --  -10.34068 -10.33900 -10.32762 -10.32693 -10.32640
 Alpha  occ. eigenvalues --  -10.30936 -10.30819 -10.30808 -10.30294  -8.09461
 Alpha  occ. eigenvalues --   -8.09415  -8.09270  -6.04314  -6.04264  -6.04105
 Alpha  occ. eigenvalues --   -6.03942  -6.03890  -6.03723  -6.03509  -6.03478
 Alpha  occ. eigenvalues --   -6.03365  -1.17854  -1.02574  -0.99866  -0.95609
 Alpha  occ. eigenvalues --   -0.87466  -0.86175  -0.84187  -0.81400  -0.80341
 Alpha  occ. eigenvalues --   -0.72344  -0.67811  -0.66983  -0.64487  -0.63563
 Alpha  occ. eigenvalues --   -0.62685  -0.58874  -0.57054  -0.52411  -0.52385
 Alpha  occ. eigenvalues --   -0.52003  -0.50820  -0.50333  -0.48184  -0.47803
 Alpha  occ. eigenvalues --   -0.46111  -0.45428  -0.44634  -0.43658  -0.42530
 Alpha  occ. eigenvalues --   -0.42397  -0.37284  -0.33730  -0.31615  -0.30702
 Alpha  occ. eigenvalues --   -0.28968
 Alpha virt. eigenvalues --    0.01274   0.04227   0.05026   0.05481   0.06055
 Alpha virt. eigenvalues --    0.06872   0.07115   0.07469   0.07538   0.08466
 Alpha virt. eigenvalues --    0.09090   0.09346   0.09797   0.09942   0.10158
 Alpha virt. eigenvalues --    0.10906   0.11573   0.11680   0.12186   0.13009
 Alpha virt. eigenvalues --    0.13147   0.13731   0.14120   0.14589   0.14879
 Alpha virt. eigenvalues --    0.15642   0.16003   0.16107   0.17037   0.17705
 Alpha virt. eigenvalues --    0.17785   0.18431   0.18732   0.19062   0.19394
 Alpha virt. eigenvalues --    0.19803   0.20132   0.20954   0.21139   0.21454
 Alpha virt. eigenvalues --    0.22122   0.22195   0.23033   0.23269   0.23735
 Alpha virt. eigenvalues --    0.24010   0.24467   0.24646   0.25063   0.25522
 Alpha virt. eigenvalues --    0.26113   0.26391   0.26603   0.27484   0.27837
 Alpha virt. eigenvalues --    0.27962   0.28667   0.29123   0.29325   0.29825
 Alpha virt. eigenvalues --    0.30498   0.30825   0.30949   0.31911   0.32046
 Alpha virt. eigenvalues --    0.33678   0.34300   0.35331   0.35390   0.36462
 Alpha virt. eigenvalues --    0.37069   0.37935   0.38250   0.39246   0.39792
 Alpha virt. eigenvalues --    0.40396   0.40684   0.41537   0.42404   0.42833
 Alpha virt. eigenvalues --    0.43408   0.43694   0.45865   0.47117   0.47660
 Alpha virt. eigenvalues --    0.49595   0.50666   0.51801   0.53534   0.53926
 Alpha virt. eigenvalues --    0.55672   0.57146   0.59199   0.61130   0.62603
 Alpha virt. eigenvalues --    0.62938   0.63573   0.64668   0.65383   0.66141
 Alpha virt. eigenvalues --    0.66395   0.66752   0.67217   0.68669   0.69777
 Alpha virt. eigenvalues --    0.70191   0.70630   0.72417   0.72918   0.73660
 Alpha virt. eigenvalues --    0.75752   0.77639   0.78288   0.78996   0.79556
 Alpha virt. eigenvalues --    0.80162   0.80994   0.82332   0.82418   0.83739
 Alpha virt. eigenvalues --    0.83960   0.85291   0.86187   0.87328   0.87457
 Alpha virt. eigenvalues --    0.87893   0.89724   0.90686   0.90729   0.91776
 Alpha virt. eigenvalues --    0.92566   0.92831   0.94471   0.94950   0.95293
 Alpha virt. eigenvalues --    0.96526   0.97649   0.98054   1.00045   1.00852
 Alpha virt. eigenvalues --    1.01922   1.02758   1.03940   1.05710   1.06674
 Alpha virt. eigenvalues --    1.07316   1.10191   1.11588   1.12414   1.13208
 Alpha virt. eigenvalues --    1.14597   1.15033   1.15328   1.16281   1.17317
 Alpha virt. eigenvalues --    1.19505   1.21410   1.22104   1.22611   1.26269
 Alpha virt. eigenvalues --    1.27250   1.28495   1.31267   1.32702   1.36201
 Alpha virt. eigenvalues --    1.42879   1.44271   1.45021   1.46551   1.49782
 Alpha virt. eigenvalues --    1.51061   1.54146   1.58690   1.62243   1.64170
 Alpha virt. eigenvalues --    1.65428   1.67198   1.68052   1.68373   1.68977
 Alpha virt. eigenvalues --    1.69732   1.70737   1.72381   1.74670   1.76707
 Alpha virt. eigenvalues --    1.78307   1.79671   1.81650   1.81865   1.83342
 Alpha virt. eigenvalues --    1.84427   1.85862   1.87881   1.89486   1.90852
 Alpha virt. eigenvalues --    1.93932   1.95669   1.96156   1.97990   1.98473
 Alpha virt. eigenvalues --    2.00778   2.03415   2.05619   2.06085   2.07520
 Alpha virt. eigenvalues --    2.08129   2.09869   2.11445   2.11647   2.12702
 Alpha virt. eigenvalues --    2.14162   2.15859   2.17593   2.18334   2.18838
 Alpha virt. eigenvalues --    2.19954   2.21652   2.25651   2.26579   2.27268
 Alpha virt. eigenvalues --    2.28492   2.29905   2.36622   2.40698   2.43821
 Alpha virt. eigenvalues --    2.49473   2.50419   2.52944   2.60702   2.62224
 Alpha virt. eigenvalues --    2.67723   2.70243   2.72341   2.78167   2.78289
 Alpha virt. eigenvalues --    2.79754   2.80580   2.81783   2.82567   2.82935
 Alpha virt. eigenvalues --    2.85161   2.87005   2.91145   2.93312   2.96652
 Alpha virt. eigenvalues --    3.00149   3.01060   3.05521   3.05955   3.09680
 Alpha virt. eigenvalues --    3.12622   3.16788   3.17765   3.22398   3.24209
 Alpha virt. eigenvalues --    3.27148   3.27394   3.31915   3.37185   3.39718
 Alpha virt. eigenvalues --    3.40611   3.43714   3.45811   3.53587   3.56408
 Alpha virt. eigenvalues --    3.58032   3.66356   3.72484   3.75508   3.96266
 Alpha virt. eigenvalues --    3.97653   4.07106   4.18678   4.21919   4.30488
 Alpha virt. eigenvalues --    4.45767   4.59769   5.11364   5.53832   5.86366
 Alpha virt. eigenvalues --    8.09994   8.10216   8.11351  17.41865  17.43170
 Alpha virt. eigenvalues --   17.44137  17.59325  17.60864  17.65741  17.66341
 Alpha virt. eigenvalues --   17.68523  17.70419  23.60570  23.76340  23.89368
 Alpha virt. eigenvalues --   23.93866  23.98261  24.17042  24.23426  24.25577
 Alpha virt. eigenvalues --   24.29017  24.30015  50.07819 189.34793 189.35376
 Alpha virt. eigenvalues --  189.36805
          Condensed to atoms (all electrons):
               1          2          3          4          5          6
     1  C    8.149133  -1.411054  -0.613963  -0.811503   0.763343   0.049359
     2  C   -1.411054  11.426297  -1.669999   0.644249  -2.047729  -0.051550
     3  C   -0.613963  -1.669999   8.958102  -0.586407   0.584478   0.027559
     4  C   -0.811503   0.644249  -0.586407   7.277170  -0.606802   0.369904
     5  S    0.763343  -2.047729   0.584478  -0.606802  16.933668  -0.020183
     6  H    0.049359  -0.051550   0.027559   0.369904  -0.020183   0.440944
     7  C    0.374933  -1.461222   0.678612  -0.417508   0.455481   0.002517
     8  S   -0.063871  -0.025383   0.716145   0.035770   0.058847  -0.000372
     9  C    0.067630   0.098502  -1.177604   0.006767  -0.104687   0.000163
    10  C   -0.199488  -0.385938   1.522925   0.060745   0.295866  -0.000806
    11  C    0.095459   0.674572  -2.504788   0.016121  -0.156137  -0.001021
    12  H   -0.001266  -0.003805   0.044926   0.001822  -0.001727  -0.000002
    13  S    0.001513  -0.013972   0.011424  -0.000407   0.001653   0.000002
    14  C   -0.003299   0.002449   0.012827   0.001762  -0.000948  -0.000002
    15  C    0.022817  -0.052425  -0.278569  -0.005359  -0.004247   0.000007
    16  H   -0.000001  -0.000018  -0.000163  -0.000000   0.000008   0.000000
    17  H   -0.000011  -0.000068  -0.000306   0.000004   0.000013  -0.000000
    18  H   -0.051782   0.309957   0.115047  -0.052467   0.011079   0.000018
    19  O    0.157355   0.063884   0.036081  -0.233704   0.004092  -0.004917
    20  H    0.026228  -0.097127  -0.016490   0.109228  -0.008996   0.000250
               7          8          9         10         11         12
     1  C    0.374933  -0.063871   0.067630  -0.199488   0.095459  -0.001266
     2  C   -1.461222  -0.025383   0.098502  -0.385938   0.674572  -0.003805
     3  C    0.678612   0.716145  -1.177604   1.522925  -2.504788   0.044926
     4  C   -0.417508   0.035770   0.006767   0.060745   0.016121   0.001822
     5  S    0.455481   0.058847  -0.104687   0.295866  -0.156137  -0.001727
     6  H    0.002517  -0.000372   0.000163  -0.000806  -0.001021  -0.000002
     7  C   10.607828   1.532408  -0.540903   2.580927  -5.122778   0.060193
     8  S    1.532408  18.359881  -0.193628   2.426632  -4.531675   0.014852
     9  C   -0.540903  -0.193628  20.335505  -4.136402  -1.227811  -0.055568
    10  C    2.580927   2.426632  -4.136402  20.429892 -12.973078   0.120038
    11  C   -5.122778  -4.531675  -1.227811 -12.973078  26.144302   0.172962
    12  H    0.060193   0.014852  -0.055568   0.120038   0.172962   0.472635
    13  S   -0.769668   0.161813   0.233470  -0.700340  -0.282164   0.006155
    14  C    0.136477   0.318833   1.872693  -0.188375  -1.131621   0.002694
    15  C   -2.198601  -2.339088  -9.481240  -2.237909   6.125087  -0.006296
    16  H    0.002399  -0.001338  -0.015907   0.030260   0.009902  -0.000004
    17  H   -0.005690   0.013669   0.019427  -0.046682  -0.003513   0.000003
    18  H    0.039891   0.006663  -0.006549   0.002074  -0.015250   0.000005
    19  O   -0.011392   0.000455  -0.001925   0.002904   0.001216   0.000007
    20  H   -0.001162   0.000148  -0.000028  -0.000222   0.000353  -0.000001
              13         14         15         16         17         18
     1  C    0.001513  -0.003299   0.022817  -0.000001  -0.000011  -0.051782
     2  C   -0.013972   0.002449  -0.052425  -0.000018  -0.000068   0.309957
     3  C    0.011424   0.012827  -0.278569  -0.000163  -0.000306   0.115047
     4  C   -0.000407   0.001762  -0.005359  -0.000000   0.000004  -0.052467
     5  S    0.001653  -0.000948  -0.004247   0.000008   0.000013   0.011079
     6  H    0.000002  -0.000002   0.000007   0.000000  -0.000000   0.000018
     7  C   -0.769668   0.136477  -2.198601   0.002399  -0.005690   0.039891
     8  S    0.161813   0.318833  -2.339088  -0.001338   0.013669   0.006663
     9  C    0.233470   1.872693  -9.481240  -0.015907   0.019427  -0.006549
    10  C   -0.700340  -0.188375  -2.237909   0.030260  -0.046682   0.002074
    11  C   -0.282164  -1.131621   6.125087   0.009902  -0.003513  -0.015250
    12  H    0.006155   0.002694  -0.006296  -0.000004   0.000003   0.000005
    13  S   17.458119   0.431637  -0.078767  -0.043223   0.007744  -0.000121
    14  C    0.431637   5.828477  -1.492283   0.373508   0.029636  -0.000019
    15  C   -0.078767  -1.492283  17.517820   0.012486   0.346503  -0.001618
    16  H   -0.043223   0.373508   0.012486   0.441382  -0.003655  -0.000000
    17  H    0.007744   0.029636   0.346503  -0.003655   0.479594  -0.000000
    18  H   -0.000121  -0.000019  -0.001618  -0.000000  -0.000000   0.491152
    19  O   -0.000036   0.000008  -0.000161   0.000000   0.000000  -0.003416
    20  H   -0.000002   0.000000  -0.000003  -0.000000  -0.000000   0.001639
              19         20
     1  C    0.157355   0.026228
     2  C    0.063884  -0.097127
     3  C    0.036081  -0.016490
     4  C   -0.233704   0.109228
     5  S    0.004092  -0.008996
     6  H   -0.004917   0.000250
     7  C   -0.011392  -0.001162
     8  S    0.000455   0.000148
     9  C   -0.001925  -0.000028
    10  C    0.002904  -0.000222
    11  C    0.001216   0.000353
    12  H    0.000007  -0.000001
    13  S   -0.000036  -0.000002
    14  C    0.000008   0.000000
    15  C   -0.000161  -0.000003
    16  H    0.000000  -0.000000
    17  H    0.000000  -0.000000
    18  H   -0.003416   0.001639
    19  O    7.997610   0.266005
    20  H    0.266005   0.454548
 Mulliken charges:
               1
     1  C   -0.551534
     2  C    0.000379
     3  C    0.140162
     4  C    0.190616
     5  S   -0.157074
     6  H    0.188129
     7  C    0.057257
     8  S   -0.490760
     9  C    0.308094
    10  C   -0.603025
    11  C    0.709860
    12  H    0.172378
    13  S   -0.424832
    14  C   -0.194454
    15  C    0.151846
    16  H    0.194363
    17  H    0.163333
    18  H    0.153697
    19  O   -0.274066
    20  H    0.265631
 Sum of Mulliken charges =  -0.00000
 Mulliken charges with hydrogens summed into heavy atoms:
               1
     1  C   -0.551534
     2  C    0.154076
     3  C    0.140162
     4  C    0.378745
     5  S   -0.157074
     7  C    0.057257
     8  S   -0.490760
     9  C    0.308094
    10  C   -0.603025
    11  C    0.882238
    13  S   -0.424832
    14  C   -0.000091
    15  C    0.315179
    19  O   -0.008435
 Electronic spatial extent (au):  <R**2>=           4747.3789
 Charge=              0.0000 electrons
 Dipole moment (field-independent basis, Debye):
    X=             -1.0966    Y=              1.2569    Z=              0.8999  Tot=              1.8953
 Quadrupole moment (field-independent basis, Debye-Ang):
   XX=            -96.4076   YY=            -95.1762   ZZ=           -102.9816
   XY=             -0.1489   XZ=              3.1866   YZ=              2.2970
 Traceless Quadrupole moment (field-independent basis, Debye-Ang):
   XX=              1.7809   YY=              3.0123   ZZ=             -4.7932
   XY=             -0.1489   XZ=              3.1866   YZ=              2.2970
 Octapole moment (field-independent basis, Debye-Ang**2):
  XXX=            -79.3382  YYY=             12.1090  ZZZ=              8.1874  XYY=             18.6351
  XXY=             20.6193  XXZ=             -3.7820  XZZ=             20.0853  YZZ=              6.8043
  YYZ=              6.5888  XYZ=             27.1629
 Hexadecapole moment (field-independent basis, Debye-Ang**3):
 XXXX=          -5228.4024 YYYY=           -713.8415 ZZZZ=           -347.2470 XXXY=            -59.6172
 XXXZ=             -8.4594 YYYX=             32.8562 YYYZ=              7.6645 ZZZX=             37.8802
 ZZZY=             18.3305 XXYY=           -921.4348 XXZZ=           -959.9483 YYZZ=           -162.6264
 XXYZ=             62.5570 YYXZ=             41.6494 ZZXY=             30.7209
 N-N= 1.108965095309D+03 E-N=-6.129275126975D+03  KE= 1.651137092586D+03
 Unable to Open any file for archive entry.
 1\1\GINC-CX3-12-28\FOpt\RwB97XD\6-311+G(d,p)\C10H6O1S3\NS5018\27-Oct-2
 021\0\\# opt=modredundant wb97xd/6-311+g(d,p)\\pg2T_TT_65.pdb\\0,1\C,-
 4.2309064506,-1.2673780104,-0.3953402523\C,-2.8567819981,-1.0331968151
 ,-0.6914579273\C,-2.0971879306,-2.1639929829,-0.5882477828\C,-4.496137
 6299,-2.5669872312,-0.0843210086\S,-3.0656048272,-3.5236581148,-0.1351
 570149\H,-5.4508614923,-2.9973633571,0.1730871113\C,-0.6676425875,-2.3
 17013168,-0.8531898241\S,0.4981361222,-1.4789342512,0.1525320681\C,1.8
 117333968,-2.1865279442,-0.7233349623\C,1.3458722828,-3.0331575871,-1.
 7108493364\C,-0.0720176054,-3.1149192661,-1.7851113741\H,-0.631348093,
 -3.7130711926,-2.4911740374\S,2.6602365895,-3.739304838,-2.5889031045\
 C,3.8091711793,-2.880967205,-1.6095650896\C,3.232354074,-2.0941967545,
 -0.6631504721\H,4.8642412899,-3.0149987962,-1.7960533843\H,3.790432344
 5,-1.4885611131,0.036731878\H,-2.4479327671,-0.0733170448,-0.983866263
 1\O,-5.2041320661,-0.3191872979,-0.4241205012\H,-4.8176238314,0.532732
 97,-0.6285087224\\Version=ES64L-G16RevC.01\State=1-A\HF=-1654.4111743\
 RMSD=6.539e-09\RMSF=7.433e-04\Dipole=0.4983822,0.5194426,-0.1944241\Qu
 adrupole=1.7472015,2.7311425,-4.478344,-0.5319692,1.2770039,1.0383621\
 PG=C01 [X(C10H6O1S3)]\\@
 The archive entry for this job was punched.


 Boundary, n.  In political geography, an imaginary
 line between two nations, separating the imaginary
 rights of one from the imaginary rights of another.
                               -- Ambrose Bierce
 Job cpu time:       0 days  3 hours 16 minutes 17.7 seconds.
 Elapsed time:       0 days  0 hours 24 minutes 43.1 seconds.
 File lengths (MBytes):  RWF=     86 Int=      0 D2E=      0 Chk=     11 Scr=      1
 Normal termination of Gaussian 16 at Wed Oct 27 00:24:53 2021.
