 Entering Gaussian System, Link 0=g16
 Input=pg2T_TT_-10.gjf
 Output=pg2T_TT_-10.log
 Initial command:
 /apps/gaussian/g16-c01-avx/g16/l1.exe "/tmp/pbs.4766238[165].pbs/Gau-3143954.inp" -scrdir="/tmp/pbs.4766238[165].pbs/"
 Entering Link 1 = /apps/gaussian/g16-c01-avx/g16/l1.exe PID=   3143955.
  
 Copyright (c) 1988-2019, Gaussian, Inc.  All Rights Reserved.
  
 This is part of the Gaussian(R) 16 program.  It is based on
 the Gaussian(R) 09 system (copyright 2009, Gaussian, Inc.),
 the Gaussian(R) 03 system (copyright 2003, Gaussian, Inc.),
 the Gaussian(R) 98 system (copyright 1998, Gaussian, Inc.),
 the Gaussian(R) 94 system (copyright 1995, Gaussian, Inc.),
 the Gaussian 92(TM) system (copyright 1992, Gaussian, Inc.),
 the Gaussian 90(TM) system (copyright 1990, Gaussian, Inc.),
 the Gaussian 88(TM) system (copyright 1988, Gaussian, Inc.),
 the Gaussian 86(TM) system (copyright 1986, Carnegie Mellon
 University), and the Gaussian 82(TM) system (copyright 1983,
 Carnegie Mellon University). Gaussian is a federally registered
 trademark of Gaussian, Inc.
  
 This software contains proprietary and confidential information,
 including trade secrets, belonging to Gaussian, Inc.
  
 This software is provided under written license and may be
 used, copied, transmitted, or stored only in accord with that
 written license.
  
 The following legend is applicable only to US Government
 contracts under FAR:
  
                    RESTRICTED RIGHTS LEGEND
  
 Use, reproduction and disclosure by the US Government is
 subject to restrictions as set forth in subparagraphs (a)
 and (c) of the Commercial Computer Software - Restricted
 Rights clause in FAR 52.227-19.
  
 Gaussian, Inc.
 340 Quinnipiac St., Bldg. 40, Wallingford CT 06492
  
  
 ---------------------------------------------------------------
 Warning -- This program may not be used in any manner that
 competes with the business of Gaussian, Inc. or will provide
 assistance to any competitor of Gaussian, Inc.  The licensee
 of this program is prohibited from giving any competitor of
 Gaussian, Inc. access to this program.  By using this program,
 the user acknowledges that Gaussian, Inc. is engaged in the
 business of creating and licensing software in the field of
 computational chemistry and represents and warrants to the
 licensee that it is not a competitor of Gaussian, Inc. and that
 it will not use this program in any manner prohibited above.
 ---------------------------------------------------------------
  

 Cite this work as:
 Gaussian 16, Revision C.01,
 M. J. Frisch, G. W. Trucks, H. B. Schlegel, G. E. Scuseria, 
 M. A. Robb, J. R. Cheeseman, G. Scalmani, V. Barone, 
 G. A. Petersson, H. Nakatsuji, X. Li, M. Caricato, A. V. Marenich, 
 J. Bloino, B. G. Janesko, R. Gomperts, B. Mennucci, H. P. Hratchian, 
 J. V. Ortiz, A. F. Izmaylov, J. L. Sonnenberg, D. Williams-Young, 
 F. Ding, F. Lipparini, F. Egidi, J. Goings, B. Peng, A. Petrone, 
 T. Henderson, D. Ranasinghe, V. G. Zakrzewski, J. Gao, N. Rega, 
 G. Zheng, W. Liang, M. Hada, M. Ehara, K. Toyota, R. Fukuda, 
 J. Hasegawa, M. Ishida, T. Nakajima, Y. Honda, O. Kitao, H. Nakai, 
 T. Vreven, K. Throssell, J. A. Montgomery, Jr., J. E. Peralta, 
 F. Ogliaro, M. J. Bearpark, J. J. Heyd, E. N. Brothers, K. N. Kudin, 
 V. N. Staroverov, T. A. Keith, R. Kobayashi, J. Normand, 
 K. Raghavachari, A. P. Rendell, J. C. Burant, S. S. Iyengar, 
 J. Tomasi, M. Cossi, J. M. Millam, M. Klene, C. Adamo, R. Cammi, 
 J. W. Ochterski, R. L. Martin, K. Morokuma, O. Farkas, 
 J. B. Foresman, and D. J. Fox, Gaussian, Inc., Wallingford CT, 2019.
 
 ******************************************
 Gaussian 16:  ES64L-G16RevC.01  3-Jul-2019
                26-Oct-2021 
 ******************************************
 %mem=10GB
 %nprocshared=8
 Will use up to    8 processors via shared memory.
 --------------------------------------
 # opt=modredundant wb97xd/6-311+g(d,p)
 --------------------------------------
 1/18=120,19=15,26=3,38=1/1,3;
 2/9=110,12=2,17=6,18=5,40=1/2;
 3/5=4,6=6,7=111,11=2,25=1,30=1,71=1,74=-58/1,2,3;
 4//1;
 5/5=2,38=5/2;
 6/7=2,8=2,9=2,10=2,28=1/1;
 7//1,2,3,16;
 1/18=20,19=15,26=3/3(2);
 2/9=110/2;
 99//99;
 2/9=110/2;
 3/5=4,6=6,7=111,11=2,25=1,30=1,71=1,74=-58/1,2,3;
 4/5=5,16=3,69=1/1;
 5/5=2,38=5/2;
 7//1,2,3,16;
 1/18=20,19=15,26=3/3(-5);
 2/9=110/2;
 6/7=2,8=2,9=2,10=2,19=2,28=1/1;
 99/9=1/99;
 ---------------
 pg2T_TT_-10.pdb
 ---------------
 Symbolic Z-matrix:
 Charge =  0 Multiplicity = 1
 C                    -4.25     -1.36     -0.21 
 C                    -2.93     -0.95     -0.61 
 C                    -1.97     -2.05     -0.62 
 C                    -4.33     -2.76      0.1 
 S                    -2.8      -3.56     -0.11 
 H                    -5.23     -3.27      0.41 
 C                    -0.56     -2.13     -0.97 
 S                     0.297    -0.776    -1.768 
 C                     1.797    -1.638    -1.808 
 C                     1.696    -2.942    -1.203 
 C                     0.38     -3.223    -0.713 
 H                     0.154    -4.074    -0.089 
 S                     3.212    -3.511    -0.588 
 C                     4.028    -2.043    -1.128 
 C                     3.12     -1.11     -1.757 
 H                     5.044    -1.806    -0.844 
 H                     3.364    -0.062    -1.903 
 H                    -2.89      0.24     -0.97 
 O                    -5.6      -0.36     -0.4 
 H                    -5.76      0.85     -0.75 
 
 Add virtual bond connecting atoms H20        and O19        Dist= 2.40D+00.
 Add virtual bond connecting atoms O19        and C1         Dist= 3.20D+00.
 The following ModRedundant input section has been read:
 D       2       3       7       8 F                                           
 

 GradGradGradGradGradGradGradGradGradGradGradGradGradGradGradGradGradGrad
 Berny optimization.
 Initialization pass.
                           ----------------------------
                           !    Initial Parameters    !
                           ! (Angstroms and Degrees)  !
 --------------------------                            --------------------------
 ! Name  Definition              Value          Derivative Info.                !
 --------------------------------------------------------------------------------
 ! R1    R(1,2)                  1.4389         estimate D2E/DX2                !
 ! R2    R(1,4)                  1.4361         estimate D2E/DX2                !
 ! R3    R(1,19)                 1.6907         estimate D2E/DX2                !
 ! R4    R(2,3)                  1.46           estimate D2E/DX2                !
 ! R5    R(2,18)                 1.2439         estimate D2E/DX2                !
 ! R6    R(3,5)                  1.797          estimate D2E/DX2                !
 ! R7    R(3,7)                  1.455          estimate D2E/DX2                !
 ! R8    R(4,5)                  1.7393         estimate D2E/DX2                !
 ! R9    R(4,6)                  1.0799         estimate D2E/DX2                !
 ! R10   R(7,8)                  1.7901         estimate D2E/DX2                !
 ! R11   R(7,11)                 1.4643         estimate D2E/DX2                !
 ! R12   R(8,9)                  1.7305         estimate D2E/DX2                !
 ! R13   R(9,10)                 1.4411         estimate D2E/DX2                !
 ! R14   R(9,15)                 1.4254         estimate D2E/DX2                !
 ! R15   R(10,11)                1.4321         estimate D2E/DX2                !
 ! R16   R(10,13)                1.7321         estimate D2E/DX2                !
 ! R17   R(11,12)                1.0792         estimate D2E/DX2                !
 ! R18   R(13,14)                1.7642         estimate D2E/DX2                !
 ! R19   R(14,15)                1.4459         estimate D2E/DX2                !
 ! R20   R(14,16)                1.0812         estimate D2E/DX2                !
 ! R21   R(15,17)                1.0859         estimate D2E/DX2                !
 ! R22   R(19,20)                1.2697         estimate D2E/DX2                !
 ! A1    A(2,1,4)              112.8843         estimate D2E/DX2                !
 ! A2    A(2,1,19)             122.1887         estimate D2E/DX2                !
 ! A3    A(4,1,19)             123.8039         estimate D2E/DX2                !
 ! A4    A(1,2,3)              112.9799         estimate D2E/DX2                !
 ! A5    A(1,2,18)             112.491          estimate D2E/DX2                !
 ! A6    A(3,2,18)             134.2373         estimate D2E/DX2                !
 ! A7    A(2,3,5)              109.1138         estimate D2E/DX2                !
 ! A8    A(2,3,7)              132.8639         estimate D2E/DX2                !
 ! A9    A(5,3,7)              118.0132         estimate D2E/DX2                !
 ! A10   A(1,4,5)              111.9209         estimate D2E/DX2                !
 ! A11   A(1,4,6)              124.6643         estimate D2E/DX2                !
 ! A12   A(5,4,6)              123.4062         estimate D2E/DX2                !
 ! A13   A(3,5,4)               93.0997         estimate D2E/DX2                !
 ! A14   A(3,7,8)              121.9769         estimate D2E/DX2                !
 ! A15   A(3,7,11)             128.3818         estimate D2E/DX2                !
 ! A16   A(8,7,11)             109.602          estimate D2E/DX2                !
 ! A17   A(7,8,9)               92.7804         estimate D2E/DX2                !
 ! A18   A(8,9,10)             112.3516         estimate D2E/DX2                !
 ! A19   A(8,9,15)             128.2574         estimate D2E/DX2                !
 ! A20   A(10,9,15)            112.6579         estimate D2E/DX2                !
 ! A21   A(9,10,11)            112.6814         estimate D2E/DX2                !
 ! A22   A(9,10,13)            112.6423         estimate D2E/DX2                !
 ! A23   A(11,10,13)           128.1944         estimate D2E/DX2                !
 ! A24   A(7,11,10)            112.5431         estimate D2E/DX2                !
 ! A25   A(7,11,12)            123.7544         estimate D2E/DX2                !
 ! A26   A(10,11,12)           123.0248         estimate D2E/DX2                !
 ! A27   A(10,13,14)            91.3063         estimate D2E/DX2                !
 ! A28   A(13,14,15)           112.3105         estimate D2E/DX2                !
 ! A29   A(13,14,16)           122.4532         estimate D2E/DX2                !
 ! A30   A(15,14,16)           124.258          estimate D2E/DX2                !
 ! A31   A(9,15,14)            111.0644         estimate D2E/DX2                !
 ! A32   A(9,15,17)            124.1424         estimate D2E/DX2                !
 ! A33   A(14,15,17)           122.6934         estimate D2E/DX2                !
 ! A34   A(1,19,20)            134.0455         estimate D2E/DX2                !
 ! D1    D(4,1,2,3)              0.3915         estimate D2E/DX2                !
 ! D2    D(4,1,2,18)           175.0898         estimate D2E/DX2                !
 ! D3    D(19,1,2,3)          -167.9154         estimate D2E/DX2                !
 ! D4    D(19,1,2,18)            6.7829         estimate D2E/DX2                !
 ! D5    D(2,1,4,5)             -0.3845         estimate D2E/DX2                !
 ! D6    D(2,1,4,6)           -179.3471         estimate D2E/DX2                !
 ! D7    D(19,1,4,5)           167.7032         estimate D2E/DX2                !
 ! D8    D(19,1,4,6)           -11.2593         estimate D2E/DX2                !
 ! D9    D(2,1,19,20)           -7.6334         estimate D2E/DX2                !
 ! D10   D(4,1,19,20)         -174.6479         estimate D2E/DX2                !
 ! D11   D(1,2,3,5)             -0.2224         estimate D2E/DX2                !
 ! D12   D(1,2,3,7)            178.6265         estimate D2E/DX2                !
 ! D13   D(18,2,3,5)          -173.3787         estimate D2E/DX2                !
 ! D14   D(18,2,3,7)             5.4701         estimate D2E/DX2                !
 ! D15   D(2,3,5,4)              0.0033         estimate D2E/DX2                !
 ! D16   D(7,3,5,4)           -179.041          estimate D2E/DX2                !
 ! D17   D(2,3,7,8)            -10.0178         Frozen                          !
 ! D18   D(2,3,7,11)           167.4564         estimate D2E/DX2                !
 ! D19   D(5,3,7,8)            168.7502         estimate D2E/DX2                !
 ! D20   D(5,3,7,11)           -13.7756         estimate D2E/DX2                !
 ! D21   D(1,4,5,3)              0.2153         estimate D2E/DX2                !
 ! D22   D(6,4,5,3)            179.1932         estimate D2E/DX2                !
 ! D23   D(3,7,8,9)            179.7576         estimate D2E/DX2                !
 ! D24   D(11,7,8,9)             1.8592         estimate D2E/DX2                !
 ! D25   D(3,7,11,10)         -179.8324         estimate D2E/DX2                !
 ! D26   D(3,7,11,12)           -9.033          estimate D2E/DX2                !
 ! D27   D(8,7,11,10)           -2.1067         estimate D2E/DX2                !
 ! D28   D(8,7,11,12)          168.6928         estimate D2E/DX2                !
 ! D29   D(7,8,9,10)            -1.1749         estimate D2E/DX2                !
 ! D30   D(7,8,9,15)          -149.899          estimate D2E/DX2                !
 ! D31   D(8,9,10,11)            0.1452         estimate D2E/DX2                !
 ! D32   D(8,9,10,13)         -154.0725         estimate D2E/DX2                !
 ! D33   D(15,9,10,11)         153.9291         estimate D2E/DX2                !
 ! D34   D(15,9,10,13)          -0.2886         estimate D2E/DX2                !
 ! D35   D(8,9,15,14)          149.7767         estimate D2E/DX2                !
 ! D36   D(8,9,15,17)          -14.0752         estimate D2E/DX2                !
 ! D37   D(10,9,15,14)           1.1298         estimate D2E/DX2                !
 ! D38   D(10,9,15,17)        -162.7221         estimate D2E/DX2                !
 ! D39   D(9,10,11,7)            1.2999         estimate D2E/DX2                !
 ! D40   D(9,10,11,12)        -169.5771         estimate D2E/DX2                !
 ! D41   D(13,10,11,7)         150.5842         estimate D2E/DX2                !
 ! D42   D(13,10,11,12)        -20.2928         estimate D2E/DX2                !
 ! D43   D(9,10,13,14)          -0.4855         estimate D2E/DX2                !
 ! D44   D(11,10,13,14)       -149.7795         estimate D2E/DX2                !
 ! D45   D(10,13,14,15)          1.1343         estimate D2E/DX2                !
 ! D46   D(10,13,14,16)        170.2557         estimate D2E/DX2                !
 ! D47   D(13,14,15,9)          -1.4902         estimate D2E/DX2                !
 ! D48   D(13,14,15,17)        162.636          estimate D2E/DX2                !
 ! D49   D(16,14,15,9)        -170.3808         estimate D2E/DX2                !
 ! D50   D(16,14,15,17)         -6.2546         estimate D2E/DX2                !
 --------------------------------------------------------------------------------
 Trust Radius=3.00D-01 FncErr=1.00D-07 GrdErr=1.00D-06 EigMax=2.50D+02 EigMin=1.00D-04
 Number of steps in this run=    116 maximum allowed number of steps=    120.
 GradGradGradGradGradGradGradGradGradGradGradGradGradGradGradGradGradGrad

                          Input orientation:                          
 ---------------------------------------------------------------------
 Center     Atomic      Atomic             Coordinates (Angstroms)
 Number     Number       Type             X           Y           Z
 ---------------------------------------------------------------------
      1          6           0       -4.250000   -1.360000   -0.210000
      2          6           0       -2.930000   -0.950000   -0.610000
      3          6           0       -1.970000   -2.050000   -0.620000
      4          6           0       -4.330000   -2.760000    0.100000
      5         16           0       -2.800000   -3.560000   -0.110000
      6          1           0       -5.230000   -3.270000    0.410000
      7          6           0       -0.560000   -2.130000   -0.970000
      8         16           0        0.297000   -0.776000   -1.768000
      9          6           0        1.797000   -1.638000   -1.808000
     10          6           0        1.696000   -2.942000   -1.203000
     11          6           0        0.380000   -3.223000   -0.713000
     12          1           0        0.154000   -4.074000   -0.089000
     13         16           0        3.212000   -3.511000   -0.588000
     14          6           0        4.028000   -2.043000   -1.128000
     15          6           0        3.120000   -1.110000   -1.757000
     16          1           0        5.044000   -1.806000   -0.844000
     17          1           0        3.364000   -0.062000   -1.903000
     18          1           0       -2.890000    0.240000   -0.970000
     19          8           0       -5.600000   -0.360000   -0.400000
     20          1           0       -5.760000    0.850000   -0.750000
 ---------------------------------------------------------------------
                    Distance matrix (angstroms):
                    1          2          3          4          5
     1  C    0.000000
     2  C    1.438923   0.000000
     3  C    2.417147   1.460034   0.000000
     4  C    1.436141   2.395871   2.567509   0.000000
     5  S    2.636759   2.660639   1.796970   1.739253   0.000000
     6  H    2.234480   3.422397   3.630000   1.079907   2.501879
     7  C    3.845335   2.671872   1.454991   3.969219   2.793224
     8  S    4.841862   3.432895   2.842581   5.369805   4.482302
     9  C    6.260759   4.924741   3.971319   6.514559   5.264000
    10  C    6.232471   5.071448   3.817736   6.167950   4.668039
    11  C    5.016042   4.016620   2.628132   4.802024   3.254163
    12  H    5.174520   4.420619   2.981596   4.676385   2.998458
    13  S    7.775032   6.654575   5.384113   7.610460   6.031171
    14  C    8.356704   7.062346   6.019478   8.478103   7.068182
    15  C    7.534760   6.159847   5.299478   7.853244   6.615248
    16  H    9.326270   8.023227   7.021817   9.469590   8.071159
    17  H    7.907215   6.486511   5.835220   8.395764   7.310660
    18  H    2.233204   1.243905   2.492589   3.495497   3.897140
    19  O    1.690739   2.742462   4.010162   2.760960   4.261936
    20  H    2.730531   3.356859   4.773992   3.974858   5.349701
                    6          7          8          9         10
     6  H    0.000000
     7  C    5.001290   0.000000
     8  S    6.442938   1.790131   0.000000
     9  C    7.547296   2.549462   1.730504   0.000000
    10  C    7.118906   2.408977   2.639694   1.441056   0.000000
    11  C    5.721489   1.464342   2.666031   2.391472   1.432102
    12  H    5.466523   2.250576   3.703552   3.404189   2.213636
    13  S    8.504202   4.034981   4.167715   2.645516   1.732121
    14  C    9.464752   4.591544   3.991898   2.367232   2.500410
    15  C    8.892918   3.898996   2.842711   1.425382   2.385564
    16  H   10.453272   5.614772   4.944561   3.391243   3.553657
    17  H    9.460342   4.532647   3.151906   2.224475   3.400974
    18  H    4.438479   3.323522   3.438899   5.118310   5.586663
    19  O    3.043206   5.372095   6.067874   7.637497   7.780948
    20  H    4.312876   5.997399   6.353538   8.026067   8.377136
                   11         12         13         14         15
    11  C    0.000000
    12  H    1.079191   0.000000
    13  S    2.849350   3.149180   0.000000
    14  C    3.856492   4.495816   1.764222   0.000000
    15  C    3.614181   4.512724   2.672045   1.445889   0.000000
    16  H    4.876264   5.442972   2.515708   1.081240   2.240482
    17  H    4.506914   5.448930   3.694310   2.228426   1.085889
    18  H    4.769834   5.352821   7.172888   7.286685   6.209828
    19  O    6.637404   6.855584   9.360315   9.801064   8.856769
    20  H    7.368195   7.723865   9.977041  10.213583   9.149320
                   16         17         18         19         20
    16  H    0.000000
    17  H    2.642994   0.000000
    18  H    8.194532   6.330419   0.000000
    19  O   10.750944   9.094015   2.833549   0.000000
    20  H   11.126077   9.241673   2.942346   1.269724   0.000000
 Stoichiometry    C10H6OS3
 Framework group  C1[X(C10H6OS3)]
 Deg. of freedom    54
 Full point group                 C1      NOp   1
 Largest Abelian subgroup         C1      NOp   1
 Largest concise Abelian subgroup C1      NOp   1
                         Standard orientation:                         
 ---------------------------------------------------------------------
 Center     Atomic      Atomic             Coordinates (Angstroms)
 Number     Number       Type             X           Y           Z
 ---------------------------------------------------------------------
      1          6           0       -3.883931    0.310819    0.277156
      2          6           0       -2.569861    0.896224    0.245234
      3          6           0       -1.516323   -0.081566   -0.011057
      4          6           0       -3.868477   -1.108512    0.058614
      5         16           0       -2.255795   -1.709158   -0.193340
      6          1           0       -4.747217   -1.735722    0.033618
      7          6           0       -0.073176    0.033513   -0.156259
      8         16           0        0.742424    1.621328   -0.291200
      9          6           0        2.310791    0.900069   -0.412262
     10          6           0        2.260854   -0.537617   -0.327375
     11          6           0        0.927723   -1.035318   -0.166219
     12          1           0        0.709283   -2.063670    0.077562
     13         16           0        3.738396   -1.222494    0.262588
     14          6           0        4.471609    0.376229    0.400290
     15          6           0        3.562292    1.432194    0.014706
     16          1           0        5.419036    0.539364    0.895114
     17          1           0        3.722285    2.471714    0.284809
     18          1           0       -2.599024    2.136345    0.337697
     19          8           0       -5.289319    1.250526    0.256225
     20          1           0       -5.519215    2.496733    0.335688
 ---------------------------------------------------------------------
 Rotational constants (GHZ):           1.3708257           0.2307491           0.1999745
 Standard basis: 6-311+G(d,p) (5D, 7F)
 There are   382 symmetry adapted cartesian basis functions of A   symmetry.
 There are   368 symmetry adapted basis functions of A   symmetry.
   368 basis functions,   594 primitive gaussians,   382 cartesian basis functions
    61 alpha electrons       61 beta electrons
       nuclear repulsion energy      1076.9597149098 Hartrees.
 NAtoms=   20 NActive=   20 NUniq=   20 SFac= 1.00D+00 NAtFMM=   60 NAOKFM=F Big=F
 Integral buffers will be    131072 words long.
 Raffenetti 2 integral format.
 Two-electron integral symmetry is turned on.
 Nuclear repulsion after empirical dispersion term =     1076.9499534836 Hartrees.
 One-electron integrals computed using PRISM.
 NBasis=   368 RedAO= T EigKep=  2.78D-06  NBF=   368
 NBsUse=   367 1.00D-06 EigRej=  4.19D-07 NBFU=   367
 ExpMin= 4.05D-02 ExpMax= 9.34D+04 ExpMxC= 3.17D+03 IAcc=3 IRadAn=         5 AccDes= 0.00D+00
 Harris functional with IExCor= 4639 and IRadAn=       5 diagonalized for initial guess.
 HarFok:  IExCor= 4639 AccDes= 0.00D+00 IRadAn=         5 IDoV= 1 UseB2=F ITyADJ=14
 ICtDFT=  3500011 ScaDFX=  1.000000  1.000000  1.000000  1.000000
 FoFCou: FMM=F IPFlag=           0 FMFlag=      100000 FMFlg1=           0
         NFxFlg=           0 DoJE=T BraDBF=F KetDBF=T FulRan=T
         wScrn=  0.000000 ICntrl=       500 IOpCl=  0 I1Cent=   200000004 NGrid=           0
         NMat0=    1 NMatS0=      1 NMatT0=    0 NMatD0=    1 NMtDS0=    0 NMtDT0=    0
 Petite list used in FoFCou.
 Requested convergence on RMS density matrix=1.00D-08 within 128 cycles.
 Requested convergence on MAX density matrix=1.00D-06.
 Requested convergence on             energy=1.00D-06.
 No special actions if energy rises.
 SCF Done:  E(RwB97XD) =  -1654.22658729     A.U. after   19 cycles
            NFock= 19  Conv=0.36D-08     -V/T= 2.0032

 **********************************************************************

            Population analysis using the SCF Density.

 **********************************************************************

 Orbital symmetries:
       Occupied  (A) (A) (A) (A) (A) (A) (A) (A) (A) (A) (A) (A)
                 (A) (A) (A) (A) (A) (A) (A) (A) (A) (A) (A) (A)
                 (A) (A) (A) (A) (A) (A) (A) (A) (A) (A) (A) (A)
                 (A) (A) (A) (A) (A) (A) (A) (A) (A) (A) (A) (A)
                 (A) (A) (A) (A) (A) (A) (A) (A) (A) (A) (A) (A)
                 (A)
       Virtual   (A) (A) (A) (A) (A) (A) (A) (A) (A) (A) (A) (A)
                 (A) (A) (A) (A) (A) (A) (A) (A) (A) (A) (A) (A)
                 (A) (A) (A) (A) (A) (A) (A) (A) (A) (A) (A) (A)
                 (A) (A) (A) (A) (A) (A) (A) (A) (A) (A) (A) (A)
                 (A) (A) (A) (A) (A) (A) (A) (A) (A) (A) (A) (A)
                 (A) (A) (A) (A) (A) (A) (A) (A) (A) (A) (A) (A)
                 (A) (A) (A) (A) (A) (A) (A) (A) (A) (A) (A) (A)
                 (A) (A) (A) (A) (A) (A) (A) (A) (A) (A) (A) (A)
                 (A) (A) (A) (A) (A) (A) (A) (A) (A) (A) (A) (A)
                 (A) (A) (A) (A) (A) (A) (A) (A) (A) (A) (A) (A)
                 (A) (A) (A) (A) (A) (A) (A) (A) (A) (A) (A) (A)
                 (A) (A) (A) (A) (A) (A) (A) (A) (A) (A) (A) (A)
                 (A) (A) (A) (A) (A) (A) (A) (A) (A) (A) (A) (A)
                 (A) (A) (A) (A) (A) (A) (A) (A) (A) (A) (A) (A)
                 (A) (A) (A) (A) (A) (A) (A) (A) (A) (A) (A) (A)
                 (A) (A) (A) (A) (A) (A) (A) (A) (A) (A) (A) (A)
                 (A) (A) (A) (A) (A) (A) (A) (A) (A) (A) (A) (A)
                 (A) (A) (A) (A) (A) (A) (A) (A) (A) (A) (A) (A)
                 (A) (A) (A) (A) (A) (A) (A) (A) (A) (A) (A) (A)
                 (A) (A) (A) (A) (A) (A) (A) (A) (A) (A) (A) (A)
                 (A) (A) (A) (A) (A) (A) (A) (A) (A) (A) (A) (A)
                 (A) (A) (A) (A) (A) (A) (A) (A) (A) (A) (A) (A)
                 (A) (A) (A) (A) (A) (A) (A) (A) (A) (A) (A) (A)
                 (A) (A) (A) (A) (A) (A) (A) (A) (A) (A) (A) (A)
                 (A) (A) (A) (A) (A) (A) (A) (A) (A) (A) (A) (A)
                 (A) (A) (A) (A) (A) (A)
 The electronic state is 1-A.
 Alpha  occ. eigenvalues --  -89.07457 -89.06449 -89.06297 -19.27832 -10.39052
 Alpha  occ. eigenvalues --  -10.36943 -10.36384 -10.34338 -10.34208 -10.34188
 Alpha  occ. eigenvalues --  -10.34130 -10.34091 -10.32708 -10.32243  -8.11306
 Alpha  occ. eigenvalues --   -8.10390  -8.10240  -6.06163  -6.05795  -6.05382
 Alpha  occ. eigenvalues --   -6.05243  -6.05111  -6.04878  -6.04734  -6.04457
 Alpha  occ. eigenvalues --   -6.04277  -1.03417  -1.01431  -0.98516  -0.94264
 Alpha  occ. eigenvalues --   -0.87976  -0.85549  -0.84395  -0.81241  -0.78757
 Alpha  occ. eigenvalues --   -0.71841  -0.67498  -0.65385  -0.63185  -0.62215
 Alpha  occ. eigenvalues --   -0.59165  -0.58323  -0.54015  -0.52363  -0.51144
 Alpha  occ. eigenvalues --   -0.49698  -0.48698  -0.48503  -0.48220  -0.47834
 Alpha  occ. eigenvalues --   -0.46273  -0.44349  -0.43193  -0.42739  -0.40585
 Alpha  occ. eigenvalues --   -0.40098  -0.37907  -0.34812  -0.33016  -0.31243
 Alpha  occ. eigenvalues --   -0.26925
 Alpha virt. eigenvalues --   -0.02635  -0.00641   0.03087   0.04979   0.05414
 Alpha virt. eigenvalues --    0.05615   0.06465   0.06843   0.06961   0.07419
 Alpha virt. eigenvalues --    0.07863   0.08697   0.08933   0.09345   0.09805
 Alpha virt. eigenvalues --    0.10112   0.10887   0.11191   0.11337   0.11607
 Alpha virt. eigenvalues --    0.12176   0.12475   0.13333   0.14080   0.14406
 Alpha virt. eigenvalues --    0.15054   0.15389   0.15701   0.16054   0.16910
 Alpha virt. eigenvalues --    0.17168   0.17630   0.18077   0.18251   0.18751
 Alpha virt. eigenvalues --    0.18826   0.19803   0.20441   0.20636   0.20999
 Alpha virt. eigenvalues --    0.21274   0.21674   0.22359   0.22730   0.23230
 Alpha virt. eigenvalues --    0.23704   0.24109   0.24514   0.24890   0.25323
 Alpha virt. eigenvalues --    0.25534   0.25780   0.26199   0.26613   0.26914
 Alpha virt. eigenvalues --    0.27262   0.27485   0.27876   0.28379   0.28804
 Alpha virt. eigenvalues --    0.29366   0.29677   0.30289   0.30567   0.31035
 Alpha virt. eigenvalues --    0.31239   0.32305   0.32676   0.33610   0.35081
 Alpha virt. eigenvalues --    0.35560   0.35655   0.36172   0.37515   0.38009
 Alpha virt. eigenvalues --    0.38911   0.39786   0.40316   0.40901   0.41077
 Alpha virt. eigenvalues --    0.41585   0.42923   0.43066   0.43696   0.45963
 Alpha virt. eigenvalues --    0.46939   0.47718   0.48754   0.50371   0.50773
 Alpha virt. eigenvalues --    0.52266   0.53123   0.56106   0.57350   0.59716
 Alpha virt. eigenvalues --    0.61276   0.61994   0.62737   0.63437   0.63696
 Alpha virt. eigenvalues --    0.64198   0.65081   0.65799   0.67502   0.68243
 Alpha virt. eigenvalues --    0.69526   0.69586   0.70591   0.70815   0.71735
 Alpha virt. eigenvalues --    0.74034   0.74906   0.75249   0.76454   0.77577
 Alpha virt. eigenvalues --    0.78145   0.79033   0.79365   0.80568   0.81407
 Alpha virt. eigenvalues --    0.81893   0.82246   0.82797   0.83981   0.85011
 Alpha virt. eigenvalues --    0.85841   0.86421   0.87647   0.88082   0.89190
 Alpha virt. eigenvalues --    0.90371   0.90814   0.92003   0.92516   0.93824
 Alpha virt. eigenvalues --    0.94575   0.95995   0.96457   0.98440   0.99483
 Alpha virt. eigenvalues --    1.00045   1.00715   1.01060   1.01929   1.03351
 Alpha virt. eigenvalues --    1.04601   1.06500   1.07285   1.08816   1.09186
 Alpha virt. eigenvalues --    1.09951   1.13090   1.13532   1.14687   1.15985
 Alpha virt. eigenvalues --    1.18678   1.19803   1.22369   1.23369   1.25695
 Alpha virt. eigenvalues --    1.28568   1.28908   1.31963   1.33875   1.37279
 Alpha virt. eigenvalues --    1.42590   1.43312   1.43820   1.45460   1.47439
 Alpha virt. eigenvalues --    1.49909   1.54093   1.54597   1.57553   1.58700
 Alpha virt. eigenvalues --    1.58912   1.60453   1.62828   1.65030   1.67165
 Alpha virt. eigenvalues --    1.68630   1.69547   1.69721   1.70935   1.73356
 Alpha virt. eigenvalues --    1.74310   1.74809   1.76421   1.77178   1.78541
 Alpha virt. eigenvalues --    1.80023   1.80556   1.82793   1.83962   1.84629
 Alpha virt. eigenvalues --    1.86489   1.87637   1.89232   1.91951   1.92453
 Alpha virt. eigenvalues --    1.93745   1.95576   1.97737   1.98685   1.99931
 Alpha virt. eigenvalues --    2.02333   2.03793   2.05192   2.06461   2.07025
 Alpha virt. eigenvalues --    2.07669   2.08168   2.11156   2.12079   2.14394
 Alpha virt. eigenvalues --    2.16377   2.16531   2.19335   2.20597   2.22307
 Alpha virt. eigenvalues --    2.23617   2.25836   2.30038   2.32795   2.39722
 Alpha virt. eigenvalues --    2.42385   2.42918   2.44926   2.50894   2.55412
 Alpha virt. eigenvalues --    2.57644   2.62476   2.64453   2.68766   2.72595
 Alpha virt. eigenvalues --    2.73790   2.75260   2.77847   2.79716   2.79767
 Alpha virt. eigenvalues --    2.80865   2.82903   2.84759   2.86105   2.88952
 Alpha virt. eigenvalues --    2.90347   2.94091   2.96426   3.00209   3.01351
 Alpha virt. eigenvalues --    3.02323   3.04354   3.04634   3.07164   3.10747
 Alpha virt. eigenvalues --    3.11947   3.12880   3.14564   3.19858   3.28712
 Alpha virt. eigenvalues --    3.29373   3.34335   3.36210   3.40699   3.45711
 Alpha virt. eigenvalues --    3.48826   3.56644   3.58132   3.67056   3.69335
 Alpha virt. eigenvalues --    3.87464   3.92278   4.02427   4.13139   4.22076
 Alpha virt. eigenvalues --    4.40438   4.57261   5.13021   5.23436   5.36486
 Alpha virt. eigenvalues --    8.03726   8.06064   8.08059  17.40074  17.41785
 Alpha virt. eigenvalues --   17.42777  17.55817  17.57974  17.59777  17.60719
 Alpha virt. eigenvalues --   17.63907  17.65899  23.54017  23.68806  23.79330
 Alpha virt. eigenvalues --   23.88363  23.92528  23.97748  23.98742  24.01044
 Alpha virt. eigenvalues --   24.06812  24.08565  49.98483 189.28085 189.30634
 Alpha virt. eigenvalues --  189.33133
          Condensed to atoms (all electrons):
               1          2          3          4          5          6
     1  C    7.786423  -1.269304   0.191614  -1.222214   0.766436   0.059717
     2  C   -1.269304  13.135844  -3.604492   0.349606  -2.617301  -0.036551
     3  C    0.191614  -3.604492   9.468984  -0.202447   0.725421   0.023274
     4  C   -1.222214   0.349606  -0.202447   7.320094  -0.523929   0.350578
     5  S    0.766436  -2.617301   0.725421  -0.523929  17.591357  -0.027180
     6  H    0.059717  -0.036551   0.023274   0.350578  -0.027180   0.422534
     7  C    0.005364  -0.603047  -0.446884  -0.044734   0.748568  -0.001801
     8  S   -0.045699  -0.443690   0.640921   0.082063   0.080514  -0.000600
     9  C   -0.068917  -0.404442  -0.277305  -0.009603   0.230373  -0.000033
    10  C    0.114506   0.020237   0.485369  -0.071054  -0.364214   0.000091
    11  C   -0.114326   0.359798  -0.933456  -0.093170  -0.095386   0.001326
    12  H   -0.003778   0.005625   0.021684   0.003732  -0.000678   0.000003
    13  S   -0.002092   0.033904   0.012812   0.002302  -0.018823   0.000001
    14  C   -0.000160  -0.007152  -0.012763  -0.000171   0.001854  -0.000000
    15  C   -0.012222  -0.043934  -0.005531   0.006372   0.007325  -0.000006
    16  H   -0.000000  -0.000029  -0.000016  -0.000001   0.000013   0.000000
    17  H    0.000069   0.000222  -0.000811  -0.000011  -0.000014   0.000000
    18  H   -0.094061   0.265765   0.150042  -0.032344   0.007421  -0.000052
    19  O    0.316778  -0.018434  -0.012412  -0.137368   0.009896  -0.000663
    20  H   -0.086419  -0.005600   0.032026   0.054664  -0.001973  -0.000126
               7          8          9         10         11         12
     1  C    0.005364  -0.045699  -0.068917   0.114506  -0.114326  -0.003778
     2  C   -0.603047  -0.443690  -0.404442   0.020237   0.359798   0.005625
     3  C   -0.446884   0.640921  -0.277305   0.485369  -0.933456   0.021684
     4  C   -0.044734   0.082063  -0.009603  -0.071054  -0.093170   0.003732
     5  S    0.748568   0.080514   0.230373  -0.364214  -0.095386  -0.000678
     6  H   -0.001801  -0.000600  -0.000033   0.000091   0.001326   0.000003
     7  C   10.619655   0.826710  -0.580153   2.238833  -5.581530   0.136425
     8  S    0.826710  17.869843  -0.867618   1.476333  -2.886421   0.008755
     9  C   -0.580153  -0.867618  12.871731  -6.383572   2.669054  -0.048460
    10  C    2.238833   1.476333  -6.383572  21.917003 -11.961918   0.105885
    11  C   -5.581530  -2.886421   2.669054 -11.961918  22.031297   0.130701
    12  H    0.136425   0.008755  -0.048460   0.105885   0.130701   0.472204
    13  S   -0.483934   0.054876   0.598753  -1.390295   0.917306   0.002696
    14  C    0.193216  -0.000953   0.586242  -0.192849  -0.473552   0.002224
    15  C   -0.540393  -0.143522  -2.355791  -0.218462   1.361951  -0.013163
    16  H   -0.003866  -0.000104  -0.036506   0.012865   0.013847  -0.000002
    17  H    0.009494   0.017545   0.018749  -0.031199  -0.008930   0.000009
    18  H    0.015207   0.013541   0.006000  -0.002769   0.000770   0.000003
    19  O    0.011749   0.003176  -0.000084   0.000325  -0.000415   0.000000
    20  H    0.000433   0.001426   0.000005   0.000082  -0.000011  -0.000000
              13         14         15         16         17         18
     1  C   -0.002092  -0.000160  -0.012222  -0.000000   0.000069  -0.094061
     2  C    0.033904  -0.007152  -0.043934  -0.000029   0.000222   0.265765
     3  C    0.012812  -0.012763  -0.005531  -0.000016  -0.000811   0.150042
     4  C    0.002302  -0.000171   0.006372  -0.000001  -0.000011  -0.032344
     5  S   -0.018823   0.001854   0.007325   0.000013  -0.000014   0.007421
     6  H    0.000001  -0.000000  -0.000006   0.000000   0.000000  -0.000052
     7  C   -0.483934   0.193216  -0.540393  -0.003866   0.009494   0.015207
     8  S    0.054876  -0.000953  -0.143522  -0.000104   0.017545   0.013541
     9  C    0.598753   0.586242  -2.355791  -0.036506   0.018749   0.006000
    10  C   -1.390295  -0.192849  -0.218462   0.012865  -0.031199  -0.002769
    11  C    0.917306  -0.473552   1.361951   0.013847  -0.008930   0.000770
    12  H    0.002696   0.002224  -0.013163  -0.000002   0.000009   0.000003
    13  S   16.604655   0.327253  -0.469907  -0.024429  -0.000730  -0.000057
    14  C    0.327253   5.507436  -0.028524   0.373814   0.011211   0.000068
    15  C   -0.469907  -0.028524   8.111036   0.027691   0.342821  -0.000336
    16  H   -0.024429   0.373814   0.027691   0.436195  -0.002669  -0.000000
    17  H   -0.000730   0.011211   0.342821  -0.002669   0.474190  -0.000000
    18  H   -0.000057   0.000068  -0.000336  -0.000000  -0.000000   0.495998
    19  O   -0.000005   0.000002   0.000006  -0.000000   0.000000   0.000370
    20  H    0.000000   0.000000  -0.000001  -0.000000   0.000000   0.000842
              19         20
     1  C    0.316778  -0.086419
     2  C   -0.018434  -0.005600
     3  C   -0.012412   0.032026
     4  C   -0.137368   0.054664
     5  S    0.009896  -0.001973
     6  H   -0.000663  -0.000126
     7  C    0.011749   0.000433
     8  S    0.003176   0.001426
     9  C   -0.000084   0.000005
    10  C    0.000325   0.000082
    11  C   -0.000415  -0.000011
    12  H    0.000000  -0.000000
    13  S   -0.000005   0.000000
    14  C    0.000002   0.000000
    15  C    0.000006  -0.000001
    16  H   -0.000000  -0.000000
    17  H    0.000000   0.000000
    18  H    0.000370   0.000842
    19  O    8.085643   0.207854
    20  H    0.207854   0.492177
 Mulliken charges:
               1
     1  C   -0.321715
     2  C    0.882976
     3  C   -0.256029
     4  C    0.167636
     5  S   -0.519680
     6  H    0.209488
     7  C   -0.519312
     8  S   -0.687095
     9  C    0.051576
    10  C    0.244802
    11  C    0.663067
    12  H    0.176134
    13  S   -0.164288
    14  C   -0.287197
    15  C   -0.025409
    16  H    0.203198
    17  H    0.170054
    18  H    0.173590
    19  O   -0.466419
    20  H    0.304622
 Sum of Mulliken charges =  -0.00000
 Mulliken charges with hydrogens summed into heavy atoms:
               1
     1  C   -0.321715
     2  C    1.056567
     3  C   -0.256029
     4  C    0.377124
     5  S   -0.519680
     7  C   -0.519312
     8  S   -0.687095
     9  C    0.051576
    10  C    0.244802
    11  C    0.839201
    13  S   -0.164288
    14  C   -0.084000
    15  C    0.144645
    19  O   -0.161797
 Electronic spatial extent (au):  <R**2>=           4991.8527
 Charge=             -0.0000 electrons
 Dipole moment (field-independent basis, Debye):
    X=              1.3881    Y=              1.0484    Z=              1.0452  Tot=              2.0294
 Quadrupole moment (field-independent basis, Debye-Ang):
   XX=            -99.9347   YY=            -87.4235   ZZ=           -109.5516
   XY=             -1.8319   XZ=              4.6243   YZ=              1.8168
 Traceless Quadrupole moment (field-independent basis, Debye-Ang):
   XX=             -0.9648   YY=             11.5465   ZZ=            -10.5817
   XY=             -1.8319   XZ=              4.6243   YZ=              1.8168
 Octapole moment (field-independent basis, Debye-Ang**2):
  XXX=             64.2513  YYY=             26.2099  ZZZ=              1.3861  XYY=            -49.0611
  XXY=             39.7902  XXZ=             27.1700  XZZ=              1.3700  YZZ=             -0.4559
  YYZ=              6.3520  XYZ=             -3.1178
 Hexadecapole moment (field-independent basis, Debye-Ang**3):
 XXXX=          -5611.9083 YYYY=           -894.2028 ZZZZ=           -182.0216 XXXY=           -114.6336
 XXXZ=            152.5900 YYYX=           -116.5493 YYYZ=             16.5315 ZZZX=             12.3842
 ZZZY=              0.1577 XXYY=           -801.0774 XXZZ=          -1043.5278 YYZZ=           -210.9910
 XXYZ=             41.4708 YYXZ=             -4.0857 ZZXY=             -8.9578
 N-N= 1.076949953484D+03 E-N=-6.063009412273D+03  KE= 1.648892970817D+03
 Calling FoFJK, ICntrl=      2127 FMM=F ISym2X=0 I1Cent= 0 IOpClX= 0 NMat=1 NMatS=1 NMatT=0.
 ***** Axes restored to original set *****
 -------------------------------------------------------------------
 Center     Atomic                   Forces (Hartrees/Bohr)
 Number     Number              X              Y              Z
 -------------------------------------------------------------------
      1        6          -0.018790571    0.007230265   -0.020455992
      2        6           0.006549817    0.021195199   -0.016706361
      3        6          -0.044203220    0.026365281    0.003830896
      4        6          -0.008707904    0.061433110   -0.010540839
      5       16          -0.005394316    0.035977577   -0.004171797
      6        1           0.002756957   -0.003679617   -0.000567537
      7        6           0.047837922   -0.031879478    0.006129614
      8       16          -0.013157386   -0.018308307    0.000474429
      9        6           0.010166415   -0.026218269    0.029178987
     10        6          -0.021659710    0.037119462    0.000632828
     11        6          -0.029548818    0.050677612   -0.016679976
     12        1          -0.004663802   -0.002463633   -0.001884312
     13       16           0.009472506    0.015596773   -0.014859550
     14        6          -0.049165531    0.036817107   -0.022520535
     15        6           0.032327426   -0.041752127    0.034803480
     16        1           0.001229380   -0.006464330   -0.003458998
     17        1           0.003188137   -0.005237684   -0.006911006
     18        1           0.014136687   -0.070724153    0.019252313
     19        8           0.023612670    0.026465934   -0.007094595
     20        1           0.044013342   -0.112150723    0.031548951
 -------------------------------------------------------------------
 Cartesian Forces:  Max     0.112150723 RMS     0.029450082

 GradGradGradGradGradGradGradGradGradGradGradGradGradGradGradGradGradGrad
 Berny optimization.
 FormGI is forming the generalized inverse of G from B-inverse, IUseBI=4.
 Internal  Forces:  Max     0.121118839 RMS     0.024588294
 Search for a local minimum.
 Step number   1 out of a maximum of  116
 All quantities printed in internal units (Hartrees-Bohrs-Radians)
 Mixed Optimization -- RFO/linear search
 Second derivative matrix not updated -- first step.
 ITU=  0
     Eigenvalues ---    0.00230   0.00983   0.01057   0.01222   0.01274
     Eigenvalues ---    0.01297   0.01386   0.01417   0.01419   0.01464
     Eigenvalues ---    0.01497   0.01554   0.01597   0.01769   0.02202
     Eigenvalues ---    0.02653   0.15077   0.15686   0.15738   0.15872
     Eigenvalues ---    0.15997   0.16000   0.17997   0.18458   0.20203
     Eigenvalues ---    0.21719   0.22443   0.23319   0.23380   0.23776
     Eigenvalues ---    0.23980   0.24292   0.24978   0.24995   0.26219
     Eigenvalues ---    0.26564   0.28459   0.30834   0.31335   0.31535
     Eigenvalues ---    0.34817   0.35292   0.35845   0.35849   0.36006
     Eigenvalues ---    0.36092   0.36304   0.37598   0.38204   0.38494
     Eigenvalues ---    0.39449   0.39763   0.407101000.000001000.00000
     Eigenvalues --- 1000.000001000.000001000.000001000.000001000.00000
     Eigenvalues --- 1000.000001000.000001000.000001000.000001000.00000
     Eigenvalues --- 1000.000001000.000001000.000001000.000001000.00000
     Eigenvalues --- 1000.000001000.000001000.000001000.000001000.00000
     Eigenvalues --- 1000.000001000.000001000.000001000.000001000.00000
     Eigenvalues --- 1000.000001000.000001000.000001000.000001000.00000
     Eigenvalues --- 1000.000001000.000001000.000001000.000001000.00000
     Eigenvalues --- 1000.000001000.000001000.000001000.000001000.00000
     Eigenvalues --- 1000.000001000.000001000.000001000.000001000.00000
     Eigenvalues --- 1000.000001000.000001000.000001000.000001000.00000
     Eigenvalues --- 1000.00000
 RFO step:  Lambda=-1.59799256D-01 EMin= 2.30000000D-03
 Linear search not attempted -- first point.
 Maximum step size (   0.300) exceeded in Quadratic search.
    -- Step size scaled by   0.473
 Iteration  1 RMS(Cart)=  0.06166502 RMS(Int)=  0.00146187
 Iteration  2 RMS(Cart)=  0.00175655 RMS(Int)=  0.00005921
 Iteration  3 RMS(Cart)=  0.00000894 RMS(Int)=  0.00005893
 Iteration  4 RMS(Cart)=  0.00000000 RMS(Int)=  0.00005893
 Iteration  1 RMS(Cart)=  0.00000068 RMS(Int)=  0.00000035
 Variable       Old X    -DE/DX   Delta X   Delta X   Delta X     New X
                                 (Linear)    (Quad)   (Total)
    R1        2.71917  -0.02406   0.00000  -0.02144  -0.02138   2.69779
    R2        2.71391  -0.07017   0.00000  -0.05972  -0.05969   2.65422
    R3        3.19503  -0.10742   0.00000  -0.14769  -0.14769   3.04734
    R4        2.75906  -0.07409   0.00000  -0.06655  -0.06653   2.69254
    R5        2.35064  -0.07278   0.00000  -0.09140  -0.09140   2.25924
    R6        3.39578  -0.02555   0.00000  -0.02749  -0.02754   3.36824
    R7        2.74954  -0.01515   0.00000  -0.01339  -0.01339   2.73614
    R8        3.28671  -0.02048   0.00000  -0.01967  -0.01971   3.26700
    R9        2.04073  -0.00072   0.00000  -0.00066  -0.00066   2.04007
   R10        3.38286  -0.01965   0.00000  -0.02076  -0.02079   3.36206
   R11        2.76721  -0.06979   0.00000  -0.06326  -0.06326   2.70394
   R12        3.27018  -0.00539   0.00000  -0.00469  -0.00470   3.26548
   R13        2.72320  -0.03936   0.00000  -0.03421  -0.03415   2.68906
   R14        2.69358  -0.00329   0.00000  -0.00344  -0.00340   2.69018
   R15        2.70628  -0.01388   0.00000  -0.01243  -0.01240   2.69388
   R16        3.27323  -0.00458   0.00000  -0.00372  -0.00373   3.26950
   R17        2.03938   0.00183   0.00000   0.00166   0.00166   2.04104
   R18        3.33390  -0.01780   0.00000  -0.01813  -0.01818   3.31572
   R19        2.73233  -0.06582   0.00000  -0.05735  -0.05736   2.67498
   R20        2.04325  -0.00117   0.00000  -0.00107  -0.00107   2.04218
   R21        2.05203  -0.00341   0.00000  -0.00315  -0.00315   2.04889
   R22        2.39943  -0.12112   0.00000  -0.15849  -0.15849   2.24094
    A1        1.97020   0.01993   0.00000   0.02151   0.02160   1.99181
    A2        2.13260   0.00473   0.00000   0.00695   0.00691   2.13951
    A3        2.16079  -0.02404   0.00000  -0.02686  -0.02695   2.13384
    A4        1.97187  -0.00367   0.00000  -0.00624  -0.00615   1.96572
    A5        1.96334   0.02108   0.00000   0.03178   0.03173   1.99507
    A6        2.34288  -0.01721   0.00000  -0.02492  -0.02498   2.31790
    A7        1.90440   0.00111   0.00000   0.00205   0.00204   1.90643
    A8        2.31891  -0.01065   0.00000  -0.01270  -0.01270   2.30622
    A9        2.05972   0.00956   0.00000   0.01065   0.01066   2.07038
   A10        1.95339  -0.01467   0.00000  -0.01806  -0.01808   1.93531
   A11        2.17580   0.01195   0.00000   0.01587   0.01588   2.19168
   A12        2.15384   0.00275   0.00000   0.00224   0.00225   2.15609
   A13        1.62490  -0.00268   0.00000   0.00076   0.00060   1.62549
   A14        2.12890  -0.00603   0.00000  -0.00685  -0.00686   2.12204
   A15        2.24068  -0.00326   0.00000  -0.00366  -0.00368   2.23701
   A16        1.91292   0.00936   0.00000   0.01062   0.01064   1.92356
   A17        1.61932  -0.00755   0.00000  -0.00685  -0.00683   1.61249
   A18        1.96091  -0.00989   0.00000  -0.01000  -0.01011   1.95079
   A19        2.23851   0.00798   0.00000   0.01272   0.01259   2.25111
   A20        1.96625   0.00570   0.00000   0.00634   0.00638   1.97264
   A21        1.96666   0.00759   0.00000   0.00789   0.00789   1.97455
   A22        1.96598  -0.01280   0.00000  -0.01328  -0.01335   1.95263
   A23        2.23741   0.00863   0.00000   0.01342   0.01332   2.25074
   A24        1.96425   0.00051   0.00000  -0.00163  -0.00157   1.96268
   A25        2.15992  -0.00318   0.00000  -0.00311  -0.00316   2.15676
   A26        2.14719   0.00320   0.00000   0.00622   0.00617   2.15336
   A27        1.59360   0.00027   0.00000   0.00166   0.00164   1.59524
   A28        1.96019   0.00193   0.00000   0.00154   0.00152   1.96171
   A29        2.13721  -0.00478   0.00000  -0.00589  -0.00595   2.13126
   A30        2.16871   0.00393   0.00000   0.00714   0.00710   2.17581
   A31        1.93844   0.00490   0.00000   0.00373   0.00379   1.94223
   A32        2.16669   0.00034   0.00000   0.00341   0.00330   2.17000
   A33        2.14140  -0.00332   0.00000  -0.00220  -0.00231   2.13909
   A34        2.33954  -0.06949   0.00000  -0.10287  -0.10287   2.23666
    D1        0.00683  -0.00111   0.00000  -0.00311  -0.00313   0.00371
    D2        3.05589  -0.00046   0.00000   0.00082   0.00096   3.05685
    D3       -2.93068  -0.00146   0.00000  -0.00813  -0.00831  -2.93899
    D4        0.11838  -0.00082   0.00000  -0.00420  -0.00423   0.11415
    D5       -0.00671   0.00068   0.00000   0.00154   0.00154  -0.00517
    D6       -3.13020  -0.00083   0.00000  -0.00162  -0.00160  -3.13180
    D7        2.92697   0.00507   0.00000   0.01136   0.01128   2.93825
    D8       -0.19651   0.00356   0.00000   0.00821   0.00814  -0.18838
    D9       -0.13323   0.00180   0.00000   0.00234   0.00229  -0.13094
   D10       -3.04818  -0.00425   0.00000  -0.00949  -0.00945  -3.05763
   D11       -0.00388   0.00116   0.00000   0.00337   0.00332  -0.00056
   D12        3.11762   0.00201   0.00000   0.00327   0.00323   3.12086
   D13       -3.02603  -0.00273   0.00000  -0.00621  -0.00617  -3.03220
   D14        0.09547  -0.00189   0.00000  -0.00630  -0.00626   0.08921
   D15        0.00006  -0.00060   0.00000  -0.00206  -0.00205  -0.00200
   D16       -3.12486  -0.00105   0.00000  -0.00170  -0.00169  -3.12654
   D17       -0.17484  -0.00215   0.00000   0.00000  -0.00000  -0.17485
   D18        2.92267   0.00028   0.00000   0.00386   0.00386   2.92652
   D19        2.94525  -0.00134   0.00000  -0.00021  -0.00021   2.94504
   D20       -0.24043   0.00109   0.00000   0.00365   0.00365  -0.23678
   D21        0.00376  -0.00005   0.00000   0.00032   0.00030   0.00406
   D22        3.12751   0.00156   0.00000   0.00360   0.00354   3.13105
   D23        3.13736   0.00109   0.00000   0.00186   0.00187   3.13923
   D24        0.03245  -0.00071   0.00000  -0.00110  -0.00112   0.03133
   D25       -3.13867  -0.00190   0.00000  -0.00353  -0.00351   3.14100
   D26       -0.15765   0.00206   0.00000   0.00706   0.00706  -0.15060
   D27       -0.03677   0.00000   0.00000  -0.00037  -0.00033  -0.03710
   D28        2.94424   0.00397   0.00000   0.01021   0.01024   2.95449
   D29       -0.02051   0.00166   0.00000   0.00275   0.00274  -0.01777
   D30       -2.61623  -0.00724   0.00000  -0.01738  -0.01739  -2.63363
   D31        0.00253  -0.00155   0.00000  -0.00310  -0.00308  -0.00054
   D32       -2.68907  -0.01036   0.00000  -0.02173  -0.02154  -2.71062
   D33        2.68657   0.00760   0.00000   0.01685   0.01674   2.70331
   D34       -0.00504  -0.00121   0.00000  -0.00177  -0.00172  -0.00676
   D35        2.61410   0.00608   0.00000   0.01769   0.01782   2.63191
   D36       -0.24566  -0.00065   0.00000  -0.00047  -0.00041  -0.24607
   D37        0.01972   0.00108   0.00000   0.00161   0.00159   0.02131
   D38       -2.84004  -0.00565   0.00000  -0.01654  -0.01664  -2.85668
   D39        0.02269   0.00099   0.00000   0.00217   0.00215   0.02484
   D40       -2.95968  -0.00227   0.00000  -0.00734  -0.00741  -2.96709
   D41        2.62819   0.00462   0.00000   0.01551   0.01565   2.64384
   D42       -0.35418   0.00136   0.00000   0.00600   0.00609  -0.34809
   D43       -0.00847   0.00106   0.00000   0.00134   0.00131  -0.00716
   D44       -2.61415  -0.00762   0.00000  -0.01725  -0.01722  -2.63136
   D45        0.01980  -0.00032   0.00000  -0.00030  -0.00030   0.01949
   D46        2.97152   0.00611   0.00000   0.01591   0.01584   2.98736
   D47       -0.02601  -0.00025   0.00000  -0.00057  -0.00055  -0.02655
   D48        2.83853   0.00703   0.00000   0.01832   0.01835   2.85688
   D49       -2.97371  -0.00570   0.00000  -0.01545  -0.01548  -2.98919
   D50       -0.10916   0.00158   0.00000   0.00345   0.00341  -0.10576
         Item               Value     Threshold  Converged?
 Maximum Force            0.121119     0.000450     NO 
 RMS     Force            0.024703     0.000300     NO 
 Maximum Displacement     0.414420     0.001800     NO 
 RMS     Displacement     0.061184     0.001200     NO 
 Predicted change in Energy=-6.524439D-02
 GradGradGradGradGradGradGradGradGradGradGradGradGradGradGradGradGradGrad

                          Input orientation:                          
 ---------------------------------------------------------------------
 Center     Atomic      Atomic             Coordinates (Angstroms)
 Number     Number       Type             X           Y           Z
 ---------------------------------------------------------------------
      1          6           0       -4.221686   -1.366432   -0.226994
      2          6           0       -2.909110   -0.964662   -0.619163
      3          6           0       -1.981335   -2.046035   -0.617345
      4          6           0       -4.335334   -2.731449    0.083779
      5         16           0       -2.818452   -3.536929   -0.113942
      6          1           0       -5.240791   -3.232159    0.391815
      7          6           0       -0.575914   -2.120734   -0.957403
      8         16           0        0.265292   -0.765779   -1.745921
      9          6           0        1.765677   -1.622370   -1.779730
     10          6           0        1.652066   -2.909644   -1.183987
     11          6           0        0.340064   -3.189922   -0.702062
     12          1           0        0.103367   -4.044895   -0.085986
     13         16           0        3.173647   -3.483019   -0.592855
     14          6           0        3.983983   -2.026106   -1.140016
     15          6           0        3.092143   -1.106894   -1.742855
     16          1           0        5.009392   -1.806529   -0.878903
     17          1           0        3.348356   -0.065891   -1.904753
     18          1           0       -2.828004    0.174742   -0.971994
     19          8           0       -5.510662   -0.413666   -0.403643
     20          1           0       -5.540699    0.723374   -0.739045
 ---------------------------------------------------------------------
                    Distance matrix (angstroms):
                    1          2          3          4          5
     1  C    0.000000
     2  C    1.427610   0.000000
     3  C    2.373480   1.424829   0.000000
     4  C    1.404552   2.376926   2.550035   0.000000
     5  S    2.587064   2.622979   1.782398   1.728821   0.000000
     6  H    2.214144   3.405929   3.612387   1.079559   2.493270
     7  C    3.793959   2.625778   1.447905   3.948452   2.783166
     8  S    4.775028   3.374310   2.821360   5.327046   4.455570
     9  C    6.190720   4.861392   3.945977   6.474956   5.239716
    10  C    6.148033   4.990622   3.777368   6.122740   4.639399
    11  C    4.935622   3.939008   2.589314   4.763096   3.231489
    12  H    5.089217   4.341328   2.936624   4.632065   2.965778
    13  S    7.700958   6.583521   5.351576   7.576773   6.011449
    14  C    8.282620   6.993760   5.988205   8.438378   7.043333
    15  C    7.473774   6.107205   5.280998   7.819411   6.594965
    16  H    9.264528   7.967364   6.999717   9.439605   8.053235
    17  H    7.862049   6.451078   5.829579   8.372488   7.299632
    18  H    2.207395   1.195538   2.403014   3.439862   3.809573
    19  O    1.612584   2.667980   3.894412   2.644068   4.133605
    20  H    2.523743   3.128753   4.511486   3.750433   5.094267
                    6          7          8          9         10
     6  H    0.000000
     7  C    4.981639   0.000000
     8  S    6.400772   1.779127   0.000000
     9  C    7.509835   2.531331   1.728019   0.000000
    10  C    7.078040   2.374366   2.614397   1.422987   0.000000
    11  C    5.687203   1.430865   2.640398   2.377175   1.425538
    12  H    5.426680   2.218825   3.678887   3.391264   2.211984
    13  S    8.475569   4.005986   4.143850   2.617837   1.730146
    14  C    9.428548   4.564533   3.972935   2.343740   2.494075
    15  C    8.860663   3.885801   2.847360   1.423583   2.374040
    16  H   10.426571   5.594688   4.933698   3.371512   3.547052
    17  H    9.437844   4.529872   3.165494   2.223315   3.388780
    18  H    4.391866   3.215795   3.324458   4.998396   5.443291
    19  O    2.941001   5.250950   5.940314   7.503312   7.625190
    20  H    4.124928   5.725881   6.077902   7.743944   8.070481
                   11         12         13         14         15
    11  C    0.000000
    12  H    1.080071   0.000000
    13  S    2.850795   3.162158   0.000000
    14  C    3.850250   4.499519   1.754601   0.000000
    15  C    3.605024   4.506645   2.641045   1.415537   0.000000
    16  H    4.873159   5.450512   2.502479   1.080675   2.216246
    17  H    4.500650   5.447048   3.664473   2.198019   1.084224
    18  H    4.629307   5.213759   7.038664   7.160666   6.106141
    19  O    6.482873   6.693583   9.212707   9.658701   8.733974
    20  H    7.063895   7.417435   9.677548   9.921692   8.881637
                   16         17         18         19         20
    16  H    0.000000
    17  H    2.615575   0.000000
    18  H    8.084484   6.251029   0.000000
    19  O   10.622499   8.992023   2.804621   0.000000
    20  H   10.850087   8.999839   2.777404   1.185857   0.000000
 Stoichiometry    C10H6OS3
 Framework group  C1[X(C10H6OS3)]
 Deg. of freedom    54
 Full point group                 C1      NOp   1
 Largest Abelian subgroup         C1      NOp   1
 Largest concise Abelian subgroup C1      NOp   1
                         Standard orientation:                         
 ---------------------------------------------------------------------
 Center     Atomic      Atomic             Coordinates (Angstroms)
 Number     Number       Type             X           Y           Z
 ---------------------------------------------------------------------
      1          6           0       -3.837036    0.328592    0.266530
      2          6           0       -2.527059    0.895185    0.234832
      3          6           0       -1.514921   -0.077354   -0.009875
      4          6           0       -3.867079   -1.059963    0.057297
      5         16           0       -2.272551   -1.680656   -0.189771
      6          1           0       -4.755638   -1.672680    0.035201
      7          6           0       -0.077585    0.030003   -0.147591
      8         16           0        0.730544    1.609577   -0.278618
      9          6           0        2.293411    0.881515   -0.394457
     10          6           0        2.222080   -0.537334   -0.312779
     11          6           0        0.891130   -1.023044   -0.155244
     12          1           0        0.657649   -2.051108    0.079543
     13         16           0        3.705372   -1.225960    0.252061
     14          6           0        4.444804    0.360415    0.375663
     15          6           0        3.555197    1.399920    0.012657
     16          1           0        5.407776    0.510566    0.842564
     17          1           0        3.736651    2.438352    0.266183
     18          1           0       -2.504277    2.087390    0.321092
     19          8           0       -5.173848    1.230342    0.252110
     20          1           0       -5.262859    2.409759    0.337598
 ---------------------------------------------------------------------
 Rotational constants (GHZ):           1.4103854           0.2355184           0.2041820
 Standard basis: 6-311+G(d,p) (5D, 7F)
 There are   382 symmetry adapted cartesian basis functions of A   symmetry.
 There are   368 symmetry adapted basis functions of A   symmetry.
   368 basis functions,   594 primitive gaussians,   382 cartesian basis functions
    61 alpha electrons       61 beta electrons
       nuclear repulsion energy      1088.6314821018 Hartrees.
 NAtoms=   20 NActive=   20 NUniq=   20 SFac= 1.00D+00 NAtFMM=   60 NAOKFM=F Big=F
 Integral buffers will be    131072 words long.
 Raffenetti 2 integral format.
 Two-electron integral symmetry is turned on.
 Nuclear repulsion after empirical dispersion term =     1088.6215975879 Hartrees.
 One-electron integrals computed using PRISM.
 NBasis=   368 RedAO= T EigKep=  2.47D-06  NBF=   368
 NBsUse=   367 1.00D-06 EigRej=  3.75D-07 NBFU=   367
 Initial guess from the checkpoint file:  "/tmp/pbs.4766238[165].pbs/Gau-3143955.chk"
 B after Tr=     0.000000    0.000000   -0.000000
         Rot=    0.999996   -0.000644   -0.000478    0.002564 Ang=  -0.31 deg.
 ExpMin= 4.05D-02 ExpMax= 9.34D+04 ExpMxC= 3.17D+03 IAcc=3 IRadAn=         5 AccDes= 0.00D+00
 Harris functional with IExCor= 4639 and IRadAn=       5 diagonalized for initial guess.
 HarFok:  IExCor= 4639 AccDes= 0.00D+00 IRadAn=         5 IDoV= 1 UseB2=F ITyADJ=14
 ICtDFT=  3500011 ScaDFX=  1.000000  1.000000  1.000000  1.000000
 FoFCou: FMM=F IPFlag=           0 FMFlag=      100000 FMFlg1=           0
         NFxFlg=           0 DoJE=T BraDBF=F KetDBF=T FulRan=T
         wScrn=  0.000000 ICntrl=       500 IOpCl=  0 I1Cent=   200000004 NGrid=           0
         NMat0=    1 NMatS0=      1 NMatT0=    0 NMatD0=    1 NMtDS0=    0 NMtDT0=    0
 Petite list used in FoFCou.
 Requested convergence on RMS density matrix=1.00D-08 within 128 cycles.
 Requested convergence on MAX density matrix=1.00D-06.
 Requested convergence on             energy=1.00D-06.
 No special actions if energy rises.
 SCF Done:  E(RwB97XD) =  -1654.29665998     A.U. after   15 cycles
            NFock= 15  Conv=0.81D-08     -V/T= 2.0029
 Calling FoFJK, ICntrl=      2127 FMM=F ISym2X=0 I1Cent= 0 IOpClX= 0 NMat=1 NMatS=1 NMatT=0.
 ***** Axes restored to original set *****
 -------------------------------------------------------------------
 Center     Atomic                   Forces (Hartrees/Bohr)
 Number     Number              X              Y              Z
 -------------------------------------------------------------------
      1        6          -0.038040351    0.024715314   -0.020955006
      2        6           0.005698971    0.022627645   -0.014747426
      3        6          -0.035144813    0.017265325    0.003568777
      4        6          -0.006233468    0.045249029   -0.006487462
      5       16          -0.000019433    0.023285261   -0.002688101
      6        1           0.002365833   -0.003110127   -0.000859488
      7        6           0.038759856   -0.023387817    0.003884176
      8       16          -0.011868287   -0.012539128   -0.001916588
      9        6           0.006463959   -0.018953850    0.023655129
     10        6          -0.012560534    0.029259693    0.001785823
     11        6          -0.023876367    0.036056765   -0.011346109
     12        1          -0.003590774   -0.002311916   -0.002369935
     13       16           0.008963772    0.008242506   -0.011213537
     14        6          -0.036011629    0.027622207   -0.015286354
     15        6           0.024582932   -0.028490046    0.025847078
     16        1           0.001297734   -0.005981434   -0.003108736
     17        1           0.002346999   -0.003907959   -0.007116662
     18        1           0.011078352   -0.056393753    0.015935046
     19        8           0.036429805    0.030543655   -0.008162931
     20        1           0.029357443   -0.109791370    0.031582305
 -------------------------------------------------------------------
 Cartesian Forces:  Max     0.109791370 RMS     0.025308971

 GradGradGradGradGradGradGradGradGradGradGradGradGradGradGradGradGradGrad
 Berny optimization.
 Using GEDIIS/GDIIS optimizer.
 FormGI is forming the generalized inverse of G from B-inverse, IUseBI=4.
 Internal  Forces:  Max     0.114945872 RMS     0.020391558
 Search for a local minimum.
 Step number   2 out of a maximum of  116
 All quantities printed in internal units (Hartrees-Bohrs-Radians)
 Mixed Optimization -- RFO/linear search
 Update second derivatives using D2CorX and points    1    2
 DE= -7.01D-02 DEPred=-6.52D-02 R= 1.07D+00
 TightC=F SS=  1.41D+00  RLast= 3.06D-01 DXNew= 5.0454D-01 9.1887D-01
 Trust test= 1.07D+00 RLast= 3.06D-01 DXMaxT set to 5.05D-01
 ITU=  1  0
 Use linear search instead of GDIIS.
 Linear search step of   0.600 exceeds DXMaxT=   0.505 but not scaled.
 Quartic linear search produced a step of  2.00000.
 Iteration  1 RMS(Cart)=  0.10681714 RMS(Int)=  0.01847193
 Iteration  2 RMS(Cart)=  0.02090370 RMS(Int)=  0.00036190
 Iteration  3 RMS(Cart)=  0.00011165 RMS(Int)=  0.00035424
 Iteration  4 RMS(Cart)=  0.00000003 RMS(Int)=  0.00035424
 Iteration  1 RMS(Cart)=  0.00000389 RMS(Int)=  0.00000209
 Iteration  2 RMS(Cart)=  0.00000212 RMS(Int)=  0.00000233
 Iteration  3 RMS(Cart)=  0.00000116 RMS(Int)=  0.00000264
 Iteration  4 RMS(Cart)=  0.00000063 RMS(Int)=  0.00000284
 Variable       Old X    -DE/DX   Delta X   Delta X   Delta X     New X
                                 (Linear)    (Quad)   (Total)
    R1        2.69779  -0.01309  -0.04276   0.00000  -0.04233   2.65546
    R2        2.65422  -0.04780  -0.11939   0.00000  -0.11921   2.53501
    R3        3.04734  -0.10197  -0.29538   0.00000  -0.29538   2.75196
    R4        2.69254  -0.05053  -0.13306   0.00000  -0.13289   2.55965
    R5        2.25924  -0.05770  -0.18280   0.00000  -0.18280   2.07644
    R6        3.36824  -0.01918  -0.05507   0.00000  -0.05538   3.31286
    R7        2.73614  -0.00628  -0.02678   0.00000  -0.02678   2.70936
    R8        3.26700  -0.01117  -0.03943   0.00000  -0.03973   3.22727
    R9        2.04007  -0.00079  -0.00132   0.00000  -0.00132   2.03875
   R10        3.36206  -0.01395  -0.04159   0.00000  -0.04177   3.32029
   R11        2.70394  -0.05002  -0.12652   0.00000  -0.12655   2.57739
   R12        3.26548  -0.00179  -0.00939   0.00000  -0.00944   3.25604
   R13        2.68906  -0.02762  -0.06829   0.00000  -0.06790   2.62116
   R14        2.69018  -0.00056  -0.00680   0.00000  -0.00652   2.68366
   R15        2.69388  -0.00686  -0.02481   0.00000  -0.02465   2.66923
   R16        3.26950  -0.00141  -0.00746   0.00000  -0.00756   3.26194
   R17        2.04104   0.00127   0.00333   0.00000   0.00333   2.04437
   R18        3.31572  -0.01233  -0.03636   0.00000  -0.03666   3.27906
   R19        2.67498  -0.04619  -0.11471   0.00000  -0.11474   2.56024
   R20        2.04218  -0.00074  -0.00214   0.00000  -0.00214   2.04004
   R21        2.04889  -0.00214  -0.00630   0.00000  -0.00630   2.04259
   R22        2.24094  -0.11495  -0.31697   0.00000  -0.31697   1.92397
    A1        1.99181   0.01141   0.04321   0.00000   0.04377   2.03557
    A2        2.13951   0.00611   0.01382   0.00000   0.01359   2.15309
    A3        2.13384  -0.01688  -0.05389   0.00000  -0.05437   2.07947
    A4        1.96572  -0.00211  -0.01230   0.00000  -0.01171   1.95401
    A5        1.99507   0.01780   0.06346   0.00000   0.06317   2.05824
    A6        2.31790  -0.01550  -0.04996   0.00000  -0.05033   2.26757
    A7        1.90643   0.00228   0.00407   0.00000   0.00401   1.91044
    A8        2.30622  -0.00927  -0.02539   0.00000  -0.02536   2.28085
    A9        2.07038   0.00700   0.02131   0.00000   0.02134   2.09172
   A10        1.93531  -0.00835  -0.03615   0.00000  -0.03622   1.89909
   A11        2.19168   0.00805   0.03175   0.00000   0.03178   2.22345
   A12        2.15609   0.00031   0.00449   0.00000   0.00451   2.16060
   A13        1.62549  -0.00324   0.00119   0.00000   0.00015   1.62564
   A14        2.12204  -0.00534  -0.01372   0.00000  -0.01380   2.10824
   A15        2.23701  -0.00172  -0.00735   0.00000  -0.00744   2.22957
   A16        1.92356   0.00712   0.02129   0.00000   0.02143   1.94499
   A17        1.61249  -0.00538  -0.01367   0.00000  -0.01358   1.59891
   A18        1.95079  -0.00699  -0.02023   0.00000  -0.02087   1.92992
   A19        2.25111   0.00669   0.02519   0.00000   0.02445   2.27556
   A20        1.97264   0.00370   0.01277   0.00000   0.01302   1.98566
   A21        1.97455   0.00457   0.01578   0.00000   0.01581   1.99036
   A22        1.95263  -0.00855  -0.02670   0.00000  -0.02707   1.92556
   A23        2.25074   0.00710   0.02664   0.00000   0.02604   2.27677
   A24        1.96268   0.00071  -0.00314   0.00000  -0.00277   1.95991
   A25        2.15676  -0.00228  -0.00633   0.00000  -0.00664   2.15012
   A26        2.15336   0.00206   0.01234   0.00000   0.01201   2.16537
   A27        1.59524  -0.00059   0.00328   0.00000   0.00318   1.59841
   A28        1.96171   0.00232   0.00304   0.00000   0.00294   1.96465
   A29        2.13126  -0.00480  -0.01190   0.00000  -0.01224   2.11902
   A30        2.17581   0.00343   0.01420   0.00000   0.01395   2.18976
   A31        1.94223   0.00313   0.00758   0.00000   0.00790   1.95013
   A32        2.17000   0.00014   0.00661   0.00000   0.00598   2.17598
   A33        2.13909  -0.00162  -0.00463   0.00000  -0.00531   2.13378
   A34        2.23666  -0.05924  -0.20575   0.00000  -0.20575   2.03091
    D1        0.00371  -0.00081  -0.00625   0.00000  -0.00633  -0.00262
    D2        3.05685   0.00016   0.00191   0.00000   0.00274   3.05959
    D3       -2.93899  -0.00238  -0.01662   0.00000  -0.01769  -2.95668
    D4        0.11415  -0.00141  -0.00846   0.00000  -0.00863   0.10553
    D5       -0.00517   0.00049   0.00309   0.00000   0.00313  -0.00204
    D6       -3.13180  -0.00082  -0.00320   0.00000  -0.00310  -3.13489
    D7        2.93825   0.00498   0.02256   0.00000   0.02206   2.96031
    D8       -0.18838   0.00367   0.01627   0.00000   0.01583  -0.17254
    D9       -0.13094   0.00141   0.00458   0.00000   0.00430  -0.12664
   D10       -3.05763  -0.00374  -0.01889   0.00000  -0.01861  -3.07623
   D11       -0.00056   0.00080   0.00665   0.00000   0.00638   0.00582
   D12        3.12086   0.00172   0.00647   0.00000   0.00622   3.12707
   D13       -3.03220  -0.00288  -0.01234   0.00000  -0.01208  -3.04428
   D14        0.08921  -0.00195  -0.01252   0.00000  -0.01224   0.07697
   D15       -0.00200  -0.00043  -0.00411   0.00000  -0.00404  -0.00604
   D16       -3.12654  -0.00100  -0.00337   0.00000  -0.00331  -3.12985
   D17       -0.17485  -0.00217  -0.00001   0.00000   0.00000  -0.17485
   D18        2.92652   0.00020   0.00772   0.00000   0.00774   2.93426
   D19        2.94504  -0.00124  -0.00041   0.00000  -0.00041   2.94463
   D20       -0.23678   0.00113   0.00731   0.00000   0.00733  -0.22944
   D21        0.00406  -0.00004   0.00060   0.00000   0.00047   0.00452
   D22        3.13105   0.00132   0.00707   0.00000   0.00672   3.13777
   D23        3.13923   0.00101   0.00373   0.00000   0.00375  -3.14021
   D24        0.03133  -0.00083  -0.00224   0.00000  -0.00235   0.02898
   D25        3.14100  -0.00159  -0.00703   0.00000  -0.00695   3.13406
   D26       -0.15060   0.00212   0.01412   0.00000   0.01410  -0.13649
   D27       -0.03710   0.00034  -0.00066   0.00000  -0.00041  -0.03751
   D28        2.95449   0.00405   0.02048   0.00000   0.02064   2.97512
   D29       -0.01777   0.00142   0.00548   0.00000   0.00538  -0.01238
   D30       -2.63363  -0.00655  -0.03479   0.00000  -0.03485  -2.66847
   D31       -0.00054  -0.00119  -0.00615   0.00000  -0.00599  -0.00653
   D32       -2.71062  -0.00910  -0.04309   0.00000  -0.04199  -2.75260
   D33        2.70331   0.00703   0.03349   0.00000   0.03282   2.73614
   D34       -0.00676  -0.00088  -0.00345   0.00000  -0.00318  -0.00994
   D35        2.63191   0.00616   0.03563   0.00000   0.03636   2.66827
   D36       -0.24607  -0.00033  -0.00082   0.00000  -0.00051  -0.24658
   D37        0.02131   0.00066   0.00318   0.00000   0.00304   0.02435
   D38       -2.85668  -0.00583  -0.03328   0.00000  -0.03383  -2.89051
   D39        0.02484   0.00056   0.00430   0.00000   0.00418   0.02902
   D40       -2.96709  -0.00271  -0.01482   0.00000  -0.01521  -2.98230
   D41        2.64384   0.00517   0.03129   0.00000   0.03206   2.67590
   D42       -0.34809   0.00190   0.01218   0.00000   0.01267  -0.33541
   D43       -0.00716   0.00088   0.00263   0.00000   0.00248  -0.00468
   D44       -2.63136  -0.00674  -0.03443   0.00000  -0.03422  -2.66558
   D45        0.01949  -0.00042  -0.00061   0.00000  -0.00060   0.01889
   D46        2.98736   0.00564   0.03168   0.00000   0.03124   3.01860
   D47       -0.02655   0.00003  -0.00109   0.00000  -0.00095  -0.02751
   D48        2.85688   0.00667   0.03669   0.00000   0.03681   2.89369
   D49       -2.98919  -0.00524  -0.03097   0.00000  -0.03119  -3.02038
   D50       -0.10576   0.00140   0.00681   0.00000   0.00658  -0.09918
         Item               Value     Threshold  Converged?
 Maximum Force            0.114946     0.000450     NO 
 RMS     Force            0.020486     0.000300     NO 
 Maximum Displacement     0.746058     0.001800     NO 
 RMS     Displacement     0.118972     0.001200     NO 
 Predicted change in Energy=-1.032862D-01
 GradGradGradGradGradGradGradGradGradGradGradGradGradGradGradGradGradGrad

                          Input orientation:                          
 ---------------------------------------------------------------------
 Center     Atomic      Atomic             Coordinates (Angstroms)
 Number     Number       Type             X           Y           Z
 ---------------------------------------------------------------------
      1          6           0       -4.162347   -1.374332   -0.261560
      2          6           0       -2.863802   -0.991062   -0.637718
      3          6           0       -2.000689   -2.034679   -0.613434
      4          6           0       -4.341518   -2.667006    0.048984
      5         16           0       -2.852897   -3.486118   -0.123138
      6          1           0       -5.258916   -3.146898    0.352349
      7          6           0       -0.604668   -2.100593   -0.933380
      8         16           0        0.206481   -0.745840   -1.703970
      9          6           0        1.706707   -1.593016   -1.724615
     10          6           0        1.566884   -2.846185   -1.146736
     11          6           0        0.262312   -3.122837   -0.681232
     12          1           0        0.003119   -3.984844   -0.081129
     13         16           0        3.097465   -3.429441   -0.602031
     14          6           0        3.897389   -1.995054   -1.162014
     15          6           0        3.039835   -1.103683   -1.714817
     16          1           0        4.939043   -1.811118   -0.946286
     17          1           0        3.319796   -0.077871   -1.908880
     18          1           0       -2.709309    0.044144   -0.972157
     19          8           0       -5.326984   -0.513255   -0.412885
     20          1           0       -5.145902    0.444689   -0.706352
 ---------------------------------------------------------------------
                    Distance matrix (angstroms):
                    1          2          3          4          5
     1  C    0.000000
     2  C    1.405209   0.000000
     3  C    2.287497   1.354507   0.000000
     4  C    1.341472   2.337519   2.513587   0.000000
     5  S    2.488667   2.547590   1.753089   1.707795   0.000000
     6  H    2.172863   3.371117   3.575725   1.078862   2.475901
     7  C    3.692680   2.534198   1.433731   3.905114   2.762373
     8  S    4.643513   3.259396   2.778844   5.239086   4.400902
     9  C    6.052616   4.736375   3.895456   6.393758   5.190236
    10  C    5.981135   4.830275   3.697367   6.030843   4.581672
    11  C    4.776087   3.784038   2.511943   4.683615   3.185587
    12  H    4.919191   4.182314   2.846355   4.541971   2.899537
    13  S    7.552766   6.440781   5.285514   7.506237   5.969870
    14  C    8.133601   6.855406   5.923667   8.354498   6.990629
    15  C    7.352322   6.002146   5.242774   7.748507   6.552383
    16  H    9.137557   7.851885   6.951306   9.372936   8.012336
    17  H    7.770260   6.378609   5.815052   8.320612   7.273730
    18  H    2.151358   1.098803   2.225383   3.325232   3.633758
    19  O    1.456273   2.519150   3.663222   2.413112   3.878528
    20  H    2.115197   2.697049   4.006029   3.301547   4.587946
                    6          7          8          9         10
     6  H    0.000000
     7  C    4.940635   0.000000
     8  S    6.313801   1.757022   0.000000
     9  C    7.432915   2.495224   1.723024   0.000000
    10  C    6.994942   2.305876   2.563719   1.387057   0.000000
    11  C    5.617190   1.363898   2.588286   2.348463   1.412493
    12  H    5.345939   2.155490   3.628514   3.365130   2.208489
    13  S    8.415448   3.947330   4.095580   2.562588   1.726143
    14  C    9.351896   4.509094   3.934089   2.297225   2.481112
    15  C    8.793018   3.858351   2.855883   1.420131   2.351301
    16  H   10.366732   5.551279   4.909791   3.331870   3.533130
    17  H    9.387565   4.521550   3.190752   2.220737   3.364094
    18  H    4.293897   3.005148   3.108288   4.769453   5.164330
    19  O    2.743409   5.009075   5.686848   7.235975   7.314815
    20  H    3.746080   5.210836   5.573204   7.221312   7.489010
                   11         12         13         14         15
    11  C    0.000000
    12  H    1.081832   0.000000
    13  S    2.852783   3.186658   0.000000
    14  C    3.836252   4.504766   1.735202   0.000000
    15  C    3.586073   4.493515   2.578908   1.354818   0.000000
    16  H    4.864429   5.462319   2.475660   1.079544   2.167509
    17  H    4.486329   5.441090   3.604207   2.137058   1.080892
    18  H    4.352578   4.938010   6.776534   6.916852   5.909460
    19  O    6.174315   6.369615   8.916909   9.372619   8.488068
    20  H    6.478939   6.820856   9.108944   9.377691   8.391707
                   16         17         18         19         20
    16  H    0.000000
    17  H    2.559823   0.000000
    18  H    7.870195   6.102659   0.000000
    19  O   10.361481   8.786033   2.734173   0.000000
    20  H   10.336941   8.566632   2.483560   1.018121   0.000000
 Stoichiometry    C10H6OS3
 Framework group  C1[X(C10H6OS3)]
 Deg. of freedom    54
 Full point group                 C1      NOp   1
 Largest Abelian subgroup         C1      NOp   1
 Largest concise Abelian subgroup C1      NOp   1
                         Standard orientation:                         
 ---------------------------------------------------------------------
 Center     Atomic      Atomic             Coordinates (Angstroms)
 Number     Number       Type             X           Y           Z
 ---------------------------------------------------------------------
      1          6           0       -3.743741    0.361482    0.245737
      2          6           0       -2.442147    0.890171    0.214872
      3          6           0       -1.511311   -0.068357   -0.007519
      4          6           0       -3.860200   -0.961125    0.054181
      5         16           0       -2.303580   -1.622314   -0.183157
      6          1           0       -4.768371   -1.543265    0.037395
      7          6           0       -0.085820    0.023727   -0.130317
      8         16           0        0.707264    1.586697   -0.253872
      9          6           0        2.259095    0.845388   -0.359205
     10          6           0        2.146064   -0.535003   -0.283879
[...]
 Framework group  C1[X(C10H6OS3)]
 Deg. of freedom    54
 Full point group                 C1      NOp   1
 Largest Abelian subgroup         C1      NOp   1
 Largest concise Abelian subgroup C1      NOp   1
                         Standard orientation:                         
 ---------------------------------------------------------------------
 Center     Atomic      Atomic             Coordinates (Angstroms)
 Number     Number       Type             X           Y           Z
 ---------------------------------------------------------------------
      1          6           0       -3.815003    0.417866    0.081674
      2          6           0       -2.472434    0.892525    0.118745
      3          6           0       -1.550853   -0.112691    0.006307
      4          6           0       -3.900792   -0.932820   -0.060596
      5         16           0       -2.335957   -1.648583   -0.162709
      6          1           0       -4.793501   -1.535224   -0.110605
      7          6           0       -0.101010   -0.005167   -0.009051
      8         16           0        0.656316    1.572575   -0.137573
      9          6           0        2.232753    0.861719   -0.058376
     10          6           0        2.148193   -0.511793    0.051910
     11          6           0        0.818745   -1.011283    0.085995
     12          1           0        0.552864   -2.054785    0.187663
     13         16           0        3.724907   -1.221540    0.129256
     14          6           0        4.464303    0.345281    0.009421
     15          6           0        3.565384    1.361359   -0.084079
     16          1           0        5.541311    0.421392    0.014753
     17          1           0        3.841958    2.402852   -0.166479
     18          1           0       -2.207210    1.936209    0.240665
     19          8           0       -4.917710    1.204858    0.181678
     20          1           0       -4.653733    2.121491    0.265302
 ---------------------------------------------------------------------
 Rotational constants (GHZ):           1.5255137           0.2415222           0.2090726

 **********************************************************************

            Population analysis using the SCF Density.

 **********************************************************************

 Orbital symmetries:
       Occupied  (A) (A) (A) (A) (A) (A) (A) (A) (A) (A) (A) (A)
                 (A) (A) (A) (A) (A) (A) (A) (A) (A) (A) (A) (A)
                 (A) (A) (A) (A) (A) (A) (A) (A) (A) (A) (A) (A)
                 (A) (A) (A) (A) (A) (A) (A) (A) (A) (A) (A) (A)
                 (A) (A) (A) (A) (A) (A) (A) (A) (A) (A) (A) (A)
                 (A)
       Virtual   (A) (A) (A) (A) (A) (A) (A) (A) (A) (A) (A) (A)
                 (A) (A) (A) (A) (A) (A) (A) (A) (A) (A) (A) (A)
                 (A) (A) (A) (A) (A) (A) (A) (A) (A) (A) (A) (A)
                 (A) (A) (A) (A) (A) (A) (A) (A) (A) (A) (A) (A)
                 (A) (A) (A) (A) (A) (A) (A) (A) (A) (A) (A) (A)
                 (A) (A) (A) (A) (A) (A) (A) (A) (A) (A) (A) (A)
                 (A) (A) (A) (A) (A) (A) (A) (A) (A) (A) (A) (A)
                 (A) (A) (A) (A) (A) (A) (A) (A) (A) (A) (A) (A)
                 (A) (A) (A) (A) (A) (A) (A) (A) (A) (A) (A) (A)
                 (A) (A) (A) (A) (A) (A) (A) (A) (A) (A) (A) (A)
                 (A) (A) (A) (A) (A) (A) (A) (A) (A) (A) (A) (A)
                 (A) (A) (A) (A) (A) (A) (A) (A) (A) (A) (A) (A)
                 (A) (A) (A) (A) (A) (A) (A) (A) (A) (A) (A) (A)
                 (A) (A) (A) (A) (A) (A) (A) (A) (A) (A) (A) (A)
                 (A) (A) (A) (A) (A) (A) (A) (A) (A) (A) (A) (A)
                 (A) (A) (A) (A) (A) (A) (A) (A) (A) (A) (A) (A)
                 (A) (A) (A) (A) (A) (A) (A) (A) (A) (A) (A) (A)
                 (A) (A) (A) (A) (A) (A) (A) (A) (A) (A) (A) (A)
                 (A) (A) (A) (A) (A) (A) (A) (A) (A) (A) (A) (A)
                 (A) (A) (A) (A) (A) (A) (A) (A) (A) (A) (A) (A)
                 (A) (A) (A) (A) (A) (A) (A) (A) (A) (A) (A) (A)
                 (A) (A) (A) (A) (A) (A) (A) (A) (A) (A) (A) (A)
                 (A) (A) (A) (A) (A) (A) (A) (A) (A) (A) (A) (A)
                 (A) (A) (A) (A) (A) (A) (A) (A) (A) (A) (A) (A)
                 (A) (A) (A) (A) (A) (A) (A) (A) (A) (A) (A) (A)
                 (A) (A) (A) (A) (A)
 The electronic state is 1-A.
 Alpha  occ. eigenvalues --  -89.05566 -89.05473 -89.05246 -19.28843 -10.35878
 Alpha  occ. eigenvalues --  -10.34424 -10.34244 -10.32912 -10.32841 -10.32708
 Alpha  occ. eigenvalues --  -10.31013 -10.30917 -10.30882 -10.30320  -8.09622
 Alpha  occ. eigenvalues --   -8.09517  -8.09316  -6.04483  -6.04366  -6.04163
 Alpha  occ. eigenvalues --   -6.04112  -6.03992  -6.03778  -6.03654  -6.03580
 Alpha  occ. eigenvalues --   -6.03390  -1.17934  -1.02756  -0.99982  -0.95742
 Alpha  occ. eigenvalues --   -0.87662  -0.86455  -0.84373  -0.81443  -0.80412
 Alpha  occ. eigenvalues --   -0.72577  -0.68090  -0.67169  -0.64819  -0.63873
 Alpha  occ. eigenvalues --   -0.62191  -0.59022  -0.57122  -0.52590  -0.52522
 Alpha  occ. eigenvalues --   -0.52130  -0.51148  -0.49942  -0.48110  -0.47826
 Alpha  occ. eigenvalues --   -0.46397  -0.45922  -0.45601  -0.43539  -0.42584
 Alpha  occ. eigenvalues --   -0.42368  -0.37521  -0.34789  -0.31825  -0.31250
 Alpha  occ. eigenvalues --   -0.27473
 Alpha virt. eigenvalues --   -0.00378   0.04800   0.05435   0.05561   0.06021
 Alpha virt. eigenvalues --    0.06704   0.07502   0.07675   0.08361   0.08511
 Alpha virt. eigenvalues --    0.08974   0.09395   0.10041   0.10150   0.10273
 Alpha virt. eigenvalues --    0.10974   0.11627   0.11918   0.12641   0.12813
 Alpha virt. eigenvalues --    0.13498   0.13742   0.13977   0.14472   0.14802
 Alpha virt. eigenvalues --    0.15539   0.16210   0.16877   0.17368   0.17652
 Alpha virt. eigenvalues --    0.17940   0.18239   0.18777   0.18964   0.19317
 Alpha virt. eigenvalues --    0.19930   0.20612   0.21048   0.21486   0.21808
 Alpha virt. eigenvalues --    0.22494   0.22652   0.23131   0.23625   0.23840
 Alpha virt. eigenvalues --    0.24110   0.24728   0.24772   0.25639   0.26054
 Alpha virt. eigenvalues --    0.26215   0.26732   0.26899   0.27351   0.27906
 Alpha virt. eigenvalues --    0.28239   0.28659   0.29144   0.29552   0.29935
 Alpha virt. eigenvalues --    0.30664   0.31477   0.32373   0.33418   0.33917
 Alpha virt. eigenvalues --    0.34696   0.35127   0.35960   0.36805   0.37235
 Alpha virt. eigenvalues --    0.37468   0.39087   0.39463   0.40407   0.40415
 Alpha virt. eigenvalues --    0.40835   0.41542   0.41617   0.42511   0.43330
 Alpha virt. eigenvalues --    0.45299   0.46320   0.47374   0.48353   0.49612
 Alpha virt. eigenvalues --    0.50838   0.52589   0.53258   0.55066   0.55581
 Alpha virt. eigenvalues --    0.56832   0.60229   0.61460   0.62033   0.62249
 Alpha virt. eigenvalues --    0.63250   0.63576   0.63935   0.64295   0.65155
 Alpha virt. eigenvalues --    0.66893   0.68087   0.68536   0.69877   0.70362
 Alpha virt. eigenvalues --    0.70876   0.71368   0.72732   0.75898   0.76162
 Alpha virt. eigenvalues --    0.76713   0.78997   0.79493   0.79860   0.80581
 Alpha virt. eigenvalues --    0.81156   0.81811   0.83045   0.83477   0.84557
 Alpha virt. eigenvalues --    0.85798   0.86166   0.86920   0.87139   0.88253
 Alpha virt. eigenvalues --    0.90408   0.90507   0.91208   0.91647   0.92687
 Alpha virt. eigenvalues --    0.93118   0.93528   0.95713   0.96409   0.96618
 Alpha virt. eigenvalues --    0.97259   0.98663   0.99679   1.01001   1.02353
 Alpha virt. eigenvalues --    1.03806   1.04960   1.06210   1.07728   1.08694
 Alpha virt. eigenvalues --    1.10651   1.11479   1.11556   1.13105   1.13913
 Alpha virt. eigenvalues --    1.14729   1.15112   1.16142   1.17083   1.21070
 Alpha virt. eigenvalues --    1.22042   1.22440   1.23611   1.24549   1.26619
 Alpha virt. eigenvalues --    1.29113   1.29866   1.33972   1.35752   1.42637
 Alpha virt. eigenvalues --    1.43601   1.44730   1.46698   1.49352   1.50162
 Alpha virt. eigenvalues --    1.51669   1.60860   1.61476   1.63579   1.64671
 Alpha virt. eigenvalues --    1.65463   1.66999   1.68420   1.68651   1.69019
 Alpha virt. eigenvalues --    1.71522   1.74146   1.75610   1.77085   1.77625
 Alpha virt. eigenvalues --    1.78394   1.80804   1.81549   1.82530   1.84299
 Alpha virt. eigenvalues --    1.85438   1.87250   1.89214   1.90821   1.93855
 Alpha virt. eigenvalues --    1.94998   1.96045   1.97147   1.99664   2.01398
 Alpha virt. eigenvalues --    2.04769   2.05307   2.05867   2.07036   2.08190
 Alpha virt. eigenvalues --    2.09768   2.11349   2.13104   2.13861   2.14677
 Alpha virt. eigenvalues --    2.15883   2.16953   2.18399   2.19743   2.21481
 Alpha virt. eigenvalues --    2.21674   2.24094   2.26760   2.28629   2.29663
 Alpha virt. eigenvalues --    2.31447   2.38700   2.40336   2.45886   2.50252
 Alpha virt. eigenvalues --    2.51215   2.54387   2.59423   2.62648   2.68320
 Alpha virt. eigenvalues --    2.71698   2.76805   2.78062   2.78937   2.79757
 Alpha virt. eigenvalues --    2.80620   2.81372   2.82130   2.83669   2.84205
 Alpha virt. eigenvalues --    2.85597   2.87136   2.92221   2.94963   3.00002
 Alpha virt. eigenvalues --    3.01437   3.04006   3.04736   3.08097   3.12056
 Alpha virt. eigenvalues --    3.16790   3.17626   3.22553   3.24521   3.26985
 Alpha virt. eigenvalues --    3.29464   3.32722   3.37962   3.38542   3.40608
 Alpha virt. eigenvalues --    3.44566   3.47355   3.54011   3.56597   3.57936
 Alpha virt. eigenvalues --    3.66482   3.71725   3.74904   3.95095   3.97825
 Alpha virt. eigenvalues --    4.06825   4.18766   4.22037   4.31952   4.47523
 Alpha virt. eigenvalues --    4.67880   5.11045   5.54183   5.86523   8.09295
 Alpha virt. eigenvalues --    8.11598   8.12287  17.41202  17.42140  17.43150
 Alpha virt. eigenvalues --   17.59538  17.61977  17.64566  17.68084  17.69323
 Alpha virt. eigenvalues --   17.72108  23.60582  23.76443  23.88817  23.94073
 Alpha virt. eigenvalues --   23.98839  24.17291  24.23822  24.25880  24.27624
 Alpha virt. eigenvalues --   24.29593  50.08010 189.34176 189.36968 189.37582
          Condensed to atoms (all electrons):
               1          2          3          4          5          6
     1  C   10.615856  -3.344180   0.058726  -1.263096   0.629637   0.071785
     2  C   -3.344180  14.802641  -3.073224   1.102477  -2.933488  -0.045277
     3  C    0.058726  -3.073224   9.709255  -0.694800   0.772389   0.032692
     4  C   -1.263096   1.102477  -0.694800   7.184567  -0.452608   0.355267
     5  S    0.629637  -2.933488   0.772389  -0.452608  17.721874  -0.036022
     6  H    0.071785  -0.045277   0.032692   0.355267  -0.036022   0.441194
     7  C   -0.033295  -0.376226  -0.411238  -0.036930   0.788427  -0.002795
     8  S   -0.283128  -0.021473   0.457440   0.120779   0.078600  -0.000870
     9  C   -0.030869  -1.039043  -0.500016  -0.069809   0.287584  -0.000157
    10  C    0.037470   0.173886  -0.030851  -0.054838  -0.149129   0.000312
    11  C    0.173097  -0.300714  -0.829539  -0.277837  -0.178066   0.002350
    12  H   -0.004166   0.009360   0.031090   0.005041   0.005686   0.000001
    13  S   -0.002570   0.046272   0.008079   0.000574  -0.032716   0.000007
    14  C   -0.004268  -0.030782  -0.049526   0.000046   0.007700  -0.000000
    15  C    0.017665  -0.078221   0.253804  -0.002418   0.019009  -0.000007
    16  H    0.000000   0.000028   0.000062  -0.000000  -0.000006   0.000000
    17  H    0.000021  -0.000243  -0.000952  -0.000005   0.000021   0.000000
    18  H   -0.075317   0.257692   0.153543  -0.056907   0.020153  -0.000013
    19  O    0.196037   0.005184   0.047397  -0.251415   0.021707  -0.005294
    20  H   -0.011733  -0.059451  -0.015409   0.103332  -0.007073   0.000226
               7          8          9         10         11         12
     1  C   -0.033295  -0.283128  -0.030869   0.037470   0.173097  -0.004166
     2  C   -0.376226  -0.021473  -1.039043   0.173886  -0.300714   0.009360
     3  C   -0.411238   0.457440  -0.500016  -0.030851  -0.829539   0.031090
     4  C   -0.036930   0.120779  -0.069809  -0.054838  -0.277837   0.005041
     5  S    0.788427   0.078600   0.287584  -0.149129  -0.178066   0.005686
     6  H   -0.002795  -0.000870  -0.000157   0.000312   0.002350   0.000001
     7  C   10.590778   0.818478  -1.100659  -2.323731  -0.636669   0.056341
     8  S    0.818478  17.890676  -0.040023  -1.148227  -0.900433   0.014498
     9  C   -1.100659  -0.040023  15.745360  -4.785596   0.204971  -0.083636
    10  C   -2.323731  -1.148227  -4.785596  12.661487   0.716623  -0.064882
    11  C   -0.636669  -0.900433   0.204971   0.716623   8.409295   0.372805
    12  H    0.056341   0.014498  -0.083636  -0.064882   0.372805   0.477529
    13  S   -1.189834   0.012983   0.075641  -0.363730   0.165195   0.009575
    14  C   -0.239242  -0.055632   0.837807  -0.862117   0.095591  -0.003201
    15  C    0.093657  -0.346958  -3.747695   1.850355  -1.199353   0.005091
    16  H    0.005198  -0.000720   0.014094   0.028862  -0.000633  -0.000002
    17  H   -0.006649   0.014960   0.019127  -0.055803   0.000793   0.000002
    18  H    0.024033   0.020092   0.011376   0.001422  -0.002159   0.000031
    19  O   -0.004608   0.007135   0.001075  -0.001886  -0.002330  -0.000002
    20  H    0.001151   0.001896  -0.000235   0.000186  -0.000397   0.000000
              13         14         15         16         17         18
     1  C   -0.002570  -0.004268   0.017665   0.000000   0.000021  -0.075317
     2  C    0.046272  -0.030782  -0.078221   0.000028  -0.000243   0.257692
     3  C    0.008079  -0.049526   0.253804   0.000062  -0.000952   0.153543
     4  C    0.000574   0.000046  -0.002418  -0.000000  -0.000005  -0.056907
     5  S   -0.032716   0.007700   0.019009  -0.000006   0.000021   0.020153
     6  H    0.000007  -0.000000  -0.000007   0.000000   0.000000  -0.000013
     7  C   -1.189834  -0.239242   0.093657   0.005198  -0.006649   0.024033
     8  S    0.012983  -0.055632  -0.346958  -0.000720   0.014960   0.020092
     9  C    0.075641   0.837807  -3.747695   0.014094   0.019127   0.011376
    10  C   -0.363730  -0.862117   1.850355   0.028862  -0.055803   0.001422
    11  C    0.165195   0.095591  -1.199353  -0.000633   0.000793  -0.002159
    12  H    0.009575  -0.003201   0.005091  -0.000002   0.000002   0.000031
    13  S   17.750687   0.424712  -0.403465  -0.041302   0.007112  -0.000014
    14  C    0.424712   5.679417  -0.065645   0.388929   0.025695   0.000141
    15  C   -0.403465  -0.065645   9.575817  -0.026682   0.356034  -0.000482
    16  H   -0.041302   0.388929  -0.026682   0.440768  -0.003579  -0.000000
    17  H    0.007112   0.025695   0.356034  -0.003579   0.481158   0.000000
    18  H   -0.000014   0.000141  -0.000482  -0.000000   0.000000   0.499630
    19  O   -0.000050   0.000004   0.000053   0.000000   0.000000  -0.002897
    20  H    0.000001   0.000000   0.000008   0.000000  -0.000000   0.002586
              19         20
     1  C    0.196037  -0.011733
     2  C    0.005184  -0.059451
     3  C    0.047397  -0.015409
     4  C   -0.251415   0.103332
     5  S    0.021707  -0.007073
     6  H   -0.005294   0.000226
     7  C   -0.004608   0.001151
     8  S    0.007135   0.001896
     9  C    0.001075  -0.000235
    10  C   -0.001886   0.000186
    11  C   -0.002330  -0.000397
    12  H   -0.000002   0.000000
    13  S   -0.000050   0.000001
    14  C    0.000004   0.000000
    15  C    0.000053   0.000008
    16  H    0.000000   0.000000
    17  H    0.000000  -0.000000
    18  H   -0.002897   0.002586
    19  O    7.994969   0.267540
    20  H    0.267540   0.452358
 Mulliken charges:
               1
     1  C   -0.747672
     2  C    0.904783
     3  C    0.081079
     4  C    0.288581
     5  S   -0.563677
     6  H    0.186602
     7  C   -0.016187
     8  S   -0.640072
     9  C    0.200704
    10  C    0.370186
    11  C    0.187412
    12  H    0.168842
    13  S   -0.467155
    14  C   -0.149629
    15  C   -0.300567
    16  H    0.194984
    17  H    0.162306
    18  H    0.147088
    19  O   -0.272619
    20  H    0.265013
 Sum of Mulliken charges =  -0.00000
 Mulliken charges with hydrogens summed into heavy atoms:
               1
     1  C   -0.747672
     2  C    1.051871
     3  C    0.081079
     4  C    0.475183
     5  S   -0.563677
     7  C   -0.016187
     8  S   -0.640072
     9  C    0.200704
    10  C    0.370186
    11  C    0.356254
    13  S   -0.467155
    14  C    0.045355
    15  C   -0.138262
    19  O   -0.007606
 Electronic spatial extent (au):  <R**2>=           4748.5516
 Charge=              0.0000 electrons
 Dipole moment (field-independent basis, Debye):
    X=              1.1562    Y=              1.5454    Z=              0.1814  Tot=              1.9386
 Quadrupole moment (field-independent basis, Debye-Ang):
   XX=            -96.1067   YY=            -90.3381   ZZ=           -108.1819
   XY=             -0.4024   XZ=             -0.5085   YZ=              0.4521
 Traceless Quadrupole moment (field-independent basis, Debye-Ang):
   XX=              2.1022   YY=              7.8708   ZZ=             -9.9730
   XY=             -0.4024   XZ=             -0.5085   YZ=              0.4521
 Octapole moment (field-independent basis, Debye-Ang**2):
  XXX=             78.0658  YYY=             21.8706  ZZZ=              0.6562  XYY=            -29.2700
  XXY=             23.2331  XXZ=             -0.5902  XZZ=             -7.9642  YZZ=              1.2244
  YYZ=              1.9024  XYZ=             -5.7978
 Hexadecapole moment (field-independent basis, Debye-Ang**3):
 XXXX=          -5232.3879 YYYY=           -862.0230 ZZZZ=           -141.2462 XXXY=             69.1596
 XXXZ=              3.8165 YYYX=            -63.1593 YYYZ=              3.9832 ZZZX=             -3.0606
 ZZZY=              1.4461 XXYY=           -883.3250 XXZZ=           -995.2899 YYZZ=           -191.8073
 XXYZ=             12.7040 YYXZ=            -10.7984 ZZXY=            -15.6542
 N-N= 1.110406439864D+03 E-N=-6.132001961448D+03  KE= 1.651140007228D+03
 Unable to Open any file for archive entry.
 1\1\GINC-CX3-6-1\FOpt\RwB97XD\6-311+G(d,p)\C10H6O1S3\NS5018\26-Oct-202
 1\0\\# opt=modredundant wb97xd/6-311+g(d,p)\\pg2T_TT_-10.pdb\\0,1\C,-4
 .2734869513,-1.3728093208,-0.415574513\C,-2.9222529168,-1.0054145414,-
 0.6770213528\C,-2.0543216935,-2.0568367472,-0.5603297176\C,-4.41933646
 44,-2.6904194773,-0.1080280091\S,-2.902943712,-3.5094117117,-0.1434526
 638\H,-5.3301081733,-3.2142260294,0.1337195627\C,-0.6149258727,-2.0610
 185865,-0.7651812325\S,0.170528141,-0.6602868824,-1.4725304689\C,1.721
 1035709,-1.4185227541,-1.3401085924\C,1.6071127291,-2.678546604,-0.787
 6631202\C,0.2769366586,-3.048030472,-0.4527041966\H,-0.0074173079,-3.9
 856267838,0.0055313551\S,3.1577689621,-3.4363324753,-0.6573688976\C,3.
 9261704285,-2.0419634421,-1.3511164791\C,3.0554821222,-1.0464871563,-1
 .6675687085\H,4.9973765497,-2.0433769492,-1.4863281503\H,3.3527700628,
 -0.1054901904,-2.1081747371\H,-2.6107739732,0.0025931952,-0.9247834859
 \O,-5.3295569995,-0.5192819284,-0.4546490072\H,-5.0281251602,0.3564888
 57,-0.6976675854\\Version=ES64L-G16RevC.01\State=1-A\HF=-1654.4119136\
 RMSD=8.151e-09\RMSF=3.482e-04\Dipole=0.4794007,0.5663659,-0.176331\Qua
 drupole=1.3194291,4.7793031,-6.0987322,-0.5722809,-1.3485157,-3.625229
 \PG=C01 [X(C10H6O1S3)]\\@
 The archive entry for this job was punched.


 REFRAIN FROM ILLUSIONS, INSIST ON WORK AND NOT WORDS,
 PATIENTLY SEEK DIVINE AND SCIENTIFIC TRUTH.
 LAST WORDS OF MARIA MENDELEEVA TO HER SON DMITRI, C. 1850
 Job cpu time:       0 days  4 hours 19 minutes 48.9 seconds.
 Elapsed time:       0 days  0 hours 32 minutes 43.0 seconds.
 File lengths (MBytes):  RWF=     86 Int=      0 D2E=      0 Chk=     11 Scr=      1
 Normal termination of Gaussian 16 at Tue Oct 26 23:39:38 2021.
