 Entering Gaussian System, Link 0=g16
 Input=pg2T_TT_-35.gjf
 Output=pg2T_TT_-35.log
 Initial command:
 /apps/gaussian/g16-c01-avx/g16/l1.exe "/tmp/pbs.4766238[140].pbs/Gau-1696323.inp" -scrdir="/tmp/pbs.4766238[140].pbs/"
 Entering Link 1 = /apps/gaussian/g16-c01-avx/g16/l1.exe PID=   1696324.
  
 Copyright (c) 1988-2019, Gaussian, Inc.  All Rights Reserved.
  
 This is part of the Gaussian(R) 16 program.  It is based on
 the Gaussian(R) 09 system (copyright 2009, Gaussian, Inc.),
 the Gaussian(R) 03 system (copyright 2003, Gaussian, Inc.),
 the Gaussian(R) 98 system (copyright 1998, Gaussian, Inc.),
 the Gaussian(R) 94 system (copyright 1995, Gaussian, Inc.),
 the Gaussian 92(TM) system (copyright 1992, Gaussian, Inc.),
 the Gaussian 90(TM) system (copyright 1990, Gaussian, Inc.),
 the Gaussian 88(TM) system (copyright 1988, Gaussian, Inc.),
 the Gaussian 86(TM) system (copyright 1986, Carnegie Mellon
 University), and the Gaussian 82(TM) system (copyright 1983,
 Carnegie Mellon University). Gaussian is a federally registered
 trademark of Gaussian, Inc.
  
 This software contains proprietary and confidential information,
 including trade secrets, belonging to Gaussian, Inc.
  
 This software is provided under written license and may be
 used, copied, transmitted, or stored only in accord with that
 written license.
  
 The following legend is applicable only to US Government
 contracts under FAR:
  
                    RESTRICTED RIGHTS LEGEND
  
 Use, reproduction and disclosure by the US Government is
 subject to restrictions as set forth in subparagraphs (a)
 and (c) of the Commercial Computer Software - Restricted
 Rights clause in FAR 52.227-19.
  
 Gaussian, Inc.
 340 Quinnipiac St., Bldg. 40, Wallingford CT 06492
  
  
 ---------------------------------------------------------------
 Warning -- This program may not be used in any manner that
 competes with the business of Gaussian, Inc. or will provide
 assistance to any competitor of Gaussian, Inc.  The licensee
 of this program is prohibited from giving any competitor of
 Gaussian, Inc. access to this program.  By using this program,
 the user acknowledges that Gaussian, Inc. is engaged in the
 business of creating and licensing software in the field of
 computational chemistry and represents and warrants to the
 licensee that it is not a competitor of Gaussian, Inc. and that
 it will not use this program in any manner prohibited above.
 ---------------------------------------------------------------
  

 Cite this work as:
 Gaussian 16, Revision C.01,
 M. J. Frisch, G. W. Trucks, H. B. Schlegel, G. E. Scuseria, 
 M. A. Robb, J. R. Cheeseman, G. Scalmani, V. Barone, 
 G. A. Petersson, H. Nakatsuji, X. Li, M. Caricato, A. V. Marenich, 
 J. Bloino, B. G. Janesko, R. Gomperts, B. Mennucci, H. P. Hratchian, 
 J. V. Ortiz, A. F. Izmaylov, J. L. Sonnenberg, D. Williams-Young, 
 F. Ding, F. Lipparini, F. Egidi, J. Goings, B. Peng, A. Petrone, 
 T. Henderson, D. Ranasinghe, V. G. Zakrzewski, J. Gao, N. Rega, 
 G. Zheng, W. Liang, M. Hada, M. Ehara, K. Toyota, R. Fukuda, 
 J. Hasegawa, M. Ishida, T. Nakajima, Y. Honda, O. Kitao, H. Nakai, 
 T. Vreven, K. Throssell, J. A. Montgomery, Jr., J. E. Peralta, 
 F. Ogliaro, M. J. Bearpark, J. J. Heyd, E. N. Brothers, K. N. Kudin, 
 V. N. Staroverov, T. A. Keith, R. Kobayashi, J. Normand, 
 K. Raghavachari, A. P. Rendell, J. C. Burant, S. S. Iyengar, 
 J. Tomasi, M. Cossi, J. M. Millam, M. Klene, C. Adamo, R. Cammi, 
 J. W. Ochterski, R. L. Martin, K. Morokuma, O. Farkas, 
 J. B. Foresman, and D. J. Fox, Gaussian, Inc., Wallingford CT, 2019.
 
 ******************************************
 Gaussian 16:  ES64L-G16RevC.01  3-Jul-2019
                26-Oct-2021 
 ******************************************
 %mem=10GB
 %nprocshared=8
 Will use up to    8 processors via shared memory.
 --------------------------------------
 # opt=modredundant wb97xd/6-311+g(d,p)
 --------------------------------------
 1/18=120,19=15,26=3,38=1/1,3;
 2/9=110,12=2,17=6,18=5,40=1/2;
 3/5=4,6=6,7=111,11=2,25=1,30=1,71=1,74=-58/1,2,3;
 4//1;
 5/5=2,38=5/2;
 6/7=2,8=2,9=2,10=2,28=1/1;
 7//1,2,3,16;
 1/18=20,19=15,26=3/3(2);
 2/9=110/2;
 99//99;
 2/9=110/2;
 3/5=4,6=6,7=111,11=2,25=1,30=1,71=1,74=-58/1,2,3;
 4/5=5,16=3,69=1/1;
 5/5=2,38=5/2;
 7//1,2,3,16;
 1/18=20,19=15,26=3/3(-5);
 2/9=110/2;
 6/7=2,8=2,9=2,10=2,19=2,28=1/1;
 99/9=1/99;
 ---------------
 pg2T_TT_-35.pdb
 ---------------
 Symbolic Z-matrix:
 Charge =  0 Multiplicity = 1
 C                    -4.25     -1.36     -0.21 
 C                    -2.93     -0.95     -0.61 
 C                    -1.97     -2.05     -0.62 
 C                    -4.33     -2.76      0.1 
 S                    -2.8      -3.56     -0.11 
 H                    -5.23     -3.27      0.41 
 C                    -0.56     -2.13     -0.97 
 S                     0.147    -1.147    -2.289 
 C                     1.729    -1.801    -2.041 
 C                     1.77     -2.744    -0.953 
 C                     0.491    -2.925    -0.332 
 H                     0.359    -3.462     0.595 
 S                     3.339    -2.861    -0.227 
 C                     3.993    -1.672    -1.357 
 C                     2.989    -1.173    -2.27 
 H                     4.978    -1.243    -1.24 
 H                     3.12     -0.259    -2.842 
 H                    -2.89      0.24     -0.97 
 O                    -5.6      -0.36     -0.4 
 H                    -5.76      0.85     -0.75 
 
 Add virtual bond connecting atoms H20        and O19        Dist= 2.40D+00.
 Add virtual bond connecting atoms O19        and C1         Dist= 3.20D+00.
 The following ModRedundant input section has been read:
 D       2       3       7       8 F                                           
 

 GradGradGradGradGradGradGradGradGradGradGradGradGradGradGradGradGradGrad
 Berny optimization.
 Initialization pass.
                           ----------------------------
                           !    Initial Parameters    !
                           ! (Angstroms and Degrees)  !
 --------------------------                            --------------------------
 ! Name  Definition              Value          Derivative Info.                !
 --------------------------------------------------------------------------------
 ! R1    R(1,2)                  1.4389         estimate D2E/DX2                !
 ! R2    R(1,4)                  1.4361         estimate D2E/DX2                !
 ! R3    R(1,19)                 1.6907         estimate D2E/DX2                !
 ! R4    R(2,3)                  1.46           estimate D2E/DX2                !
 ! R5    R(2,18)                 1.2439         estimate D2E/DX2                !
 ! R6    R(3,5)                  1.797          estimate D2E/DX2                !
 ! R7    R(3,7)                  1.455          estimate D2E/DX2                !
 ! R8    R(4,5)                  1.7393         estimate D2E/DX2                !
 ! R9    R(4,6)                  1.0799         estimate D2E/DX2                !
 ! R10   R(7,8)                  1.7905         estimate D2E/DX2                !
 ! R11   R(7,11)                 1.4641         estimate D2E/DX2                !
 ! R12   R(8,9)                  1.7297         estimate D2E/DX2                !
 ! R13   R(9,10)                 1.4404         estimate D2E/DX2                !
 ! R14   R(9,15)                 1.4263         estimate D2E/DX2                !
 ! R15   R(10,11)                1.4333         estimate D2E/DX2                !
 ! R16   R(10,13)                1.7328         estimate D2E/DX2                !
 ! R17   R(11,12)                1.0794         estimate D2E/DX2                !
 ! R18   R(13,14)                1.7659         estimate D2E/DX2                !
 ! R19   R(14,15)                1.4459         estimate D2E/DX2                !
 ! R20   R(14,16)                1.0807         estimate D2E/DX2                !
 ! R21   R(15,17)                1.0862         estimate D2E/DX2                !
 ! R22   R(19,20)                1.2697         estimate D2E/DX2                !
 ! A1    A(2,1,4)              112.8843         estimate D2E/DX2                !
 ! A2    A(2,1,19)             122.1887         estimate D2E/DX2                !
 ! A3    A(4,1,19)             123.8039         estimate D2E/DX2                !
 ! A4    A(1,2,3)              112.9799         estimate D2E/DX2                !
 ! A5    A(1,2,18)             112.491          estimate D2E/DX2                !
 ! A6    A(3,2,18)             134.2373         estimate D2E/DX2                !
 ! A7    A(2,3,5)              109.1138         estimate D2E/DX2                !
 ! A8    A(2,3,7)              132.8639         estimate D2E/DX2                !
 ! A9    A(5,3,7)              118.0132         estimate D2E/DX2                !
 ! A10   A(1,4,5)              111.9209         estimate D2E/DX2                !
 ! A11   A(1,4,6)              124.6643         estimate D2E/DX2                !
 ! A12   A(5,4,6)              123.4062         estimate D2E/DX2                !
 ! A13   A(3,5,4)               93.0997         estimate D2E/DX2                !
 ! A14   A(3,7,8)              121.9832         estimate D2E/DX2                !
 ! A15   A(3,7,11)             128.3651         estimate D2E/DX2                !
 ! A16   A(8,7,11)             109.6129         estimate D2E/DX2                !
 ! A17   A(7,8,9)               92.7479         estimate D2E/DX2                !
 ! A18   A(8,9,10)             112.4495         estimate D2E/DX2                !
 ! A19   A(8,9,15)             128.203          estimate D2E/DX2                !
 ! A20   A(10,9,15)            112.6054         estimate D2E/DX2                !
 ! A21   A(9,10,11)            112.6162         estimate D2E/DX2                !
 ! A22   A(9,10,13)            112.7345         estimate D2E/DX2                !
 ! A23   A(11,10,13)           128.1675         estimate D2E/DX2                !
 ! A24   A(7,11,10)            112.532          estimate D2E/DX2                !
 ! A25   A(7,11,12)            123.8194         estimate D2E/DX2                !
 ! A26   A(10,11,12)           122.96           estimate D2E/DX2                !
 ! A27   A(10,13,14)            91.2478         estimate D2E/DX2                !
 ! A28   A(13,14,15)           112.2887         estimate D2E/DX2                !
 ! A29   A(13,14,16)           122.3814         estimate D2E/DX2                !
 ! A30   A(15,14,16)           124.35           estimate D2E/DX2                !
 ! A31   A(9,15,14)            111.1049         estimate D2E/DX2                !
 ! A32   A(9,15,17)            124.1663         estimate D2E/DX2                !
 ! A33   A(14,15,17)           122.6294         estimate D2E/DX2                !
 ! A34   A(1,19,20)            134.0455         estimate D2E/DX2                !
 ! D1    D(4,1,2,3)              0.3915         estimate D2E/DX2                !
 ! D2    D(4,1,2,18)           175.0898         estimate D2E/DX2                !
 ! D3    D(19,1,2,3)          -167.9154         estimate D2E/DX2                !
 ! D4    D(19,1,2,18)            6.7829         estimate D2E/DX2                !
 ! D5    D(2,1,4,5)             -0.3845         estimate D2E/DX2                !
 ! D6    D(2,1,4,6)           -179.3471         estimate D2E/DX2                !
 ! D7    D(19,1,4,5)           167.7032         estimate D2E/DX2                !
 ! D8    D(19,1,4,6)           -11.2593         estimate D2E/DX2                !
 ! D9    D(2,1,19,20)           -7.6334         estimate D2E/DX2                !
 ! D10   D(4,1,19,20)         -174.6479         estimate D2E/DX2                !
 ! D11   D(1,2,3,5)             -0.2224         estimate D2E/DX2                !
 ! D12   D(1,2,3,7)            178.6265         estimate D2E/DX2                !
 ! D13   D(18,2,3,5)          -173.3787         estimate D2E/DX2                !
 ! D14   D(18,2,3,7)             5.4701         estimate D2E/DX2                !
 ! D15   D(2,3,5,4)              0.0033         estimate D2E/DX2                !
 ! D16   D(7,3,5,4)           -179.041          estimate D2E/DX2                !
 ! D17   D(2,3,7,8)            -35.0014         Frozen                          !
 ! D18   D(2,3,7,11)           142.4893         estimate D2E/DX2                !
 ! D19   D(5,3,7,8)            143.7666         estimate D2E/DX2                !
 ! D20   D(5,3,7,11)           -38.7427         estimate D2E/DX2                !
 ! D21   D(1,4,5,3)              0.2153         estimate D2E/DX2                !
 ! D22   D(6,4,5,3)            179.1932         estimate D2E/DX2                !
 ! D23   D(3,7,8,9)            179.7822         estimate D2E/DX2                !
 ! D24   D(11,7,8,9)             1.8706         estimate D2E/DX2                !
 ! D25   D(3,7,11,10)         -179.8272         estimate D2E/DX2                !
 ! D26   D(3,7,11,12)           -9.1078         estimate D2E/DX2                !
 ! D27   D(8,7,11,10)           -2.0865         estimate D2E/DX2                !
 ! D28   D(8,7,11,12)          168.6329         estimate D2E/DX2                !
 ! D29   D(7,8,9,10)            -1.2152         estimate D2E/DX2                !
 ! D30   D(7,8,9,15)          -149.9123         estimate D2E/DX2                !
 ! D31   D(8,9,10,11)            0.2048         estimate D2E/DX2                !
 ! D32   D(8,9,10,13)         -154.005          estimate D2E/DX2                !
 ! D33   D(15,9,10,11)         153.9566         estimate D2E/DX2                !
 ! D34   D(15,9,10,13)          -0.2533         estimate D2E/DX2                !
 ! D35   D(8,9,15,14)          149.7692         estimate D2E/DX2                !
 ! D36   D(8,9,15,17)          -14.0736         estimate D2E/DX2                !
 ! D37   D(10,9,15,14)           1.1114         estimate D2E/DX2                !
 ! D38   D(10,9,15,17)        -162.7314         estimate D2E/DX2                !
 ! D39   D(9,10,11,7)            1.2495         estimate D2E/DX2                !
 ! D40   D(9,10,11,12)        -169.562          estimate D2E/DX2                !
 ! D41   D(13,10,11,7)         150.5596         estimate D2E/DX2                !
 ! D42   D(13,10,11,12)        -20.2519         estimate D2E/DX2                !
 ! D43   D(9,10,13,14)          -0.5169         estimate D2E/DX2                !
 ! D44   D(11,10,13,14)       -149.7977         estimate D2E/DX2                !
 ! D45   D(10,13,14,15)          1.1546         estimate D2E/DX2                !
 ! D46   D(10,13,14,16)        170.278          estimate D2E/DX2                !
 ! D47   D(13,14,15,9)          -1.4952         estimate D2E/DX2                !
 ! D48   D(13,14,15,17)        162.6384         estimate D2E/DX2                !
 ! D49   D(16,14,15,9)        -170.3666         estimate D2E/DX2                !
 ! D50   D(16,14,15,17)         -6.233          estimate D2E/DX2                !
 --------------------------------------------------------------------------------
 Trust Radius=3.00D-01 FncErr=1.00D-07 GrdErr=1.00D-06 EigMax=2.50D+02 EigMin=1.00D-04
 Number of steps in this run=    116 maximum allowed number of steps=    120.
 GradGradGradGradGradGradGradGradGradGradGradGradGradGradGradGradGradGrad

                          Input orientation:                          
 ---------------------------------------------------------------------
 Center     Atomic      Atomic             Coordinates (Angstroms)
 Number     Number       Type             X           Y           Z
 ---------------------------------------------------------------------
      1          6           0       -4.250000   -1.360000   -0.210000
      2          6           0       -2.930000   -0.950000   -0.610000
      3          6           0       -1.970000   -2.050000   -0.620000
      4          6           0       -4.330000   -2.760000    0.100000
      5         16           0       -2.800000   -3.560000   -0.110000
      6          1           0       -5.230000   -3.270000    0.410000
      7          6           0       -0.560000   -2.130000   -0.970000
      8         16           0        0.147000   -1.147000   -2.289000
      9          6           0        1.729000   -1.801000   -2.041000
     10          6           0        1.770000   -2.744000   -0.953000
     11          6           0        0.491000   -2.925000   -0.332000
     12          1           0        0.359000   -3.462000    0.595000
     13         16           0        3.339000   -2.861000   -0.227000
     14          6           0        3.993000   -1.672000   -1.357000
     15          6           0        2.989000   -1.173000   -2.270000
     16          1           0        4.978000   -1.243000   -1.240000
     17          1           0        3.120000   -0.259000   -2.842000
     18          1           0       -2.890000    0.240000   -0.970000
     19          8           0       -5.600000   -0.360000   -0.400000
     20          1           0       -5.760000    0.850000   -0.750000
 ---------------------------------------------------------------------
                    Distance matrix (angstroms):
                    1          2          3          4          5
     1  C    0.000000
     2  C    1.438923   0.000000
     3  C    2.417147   1.460034   0.000000
     4  C    1.436141   2.395871   2.567509   0.000000
     5  S    2.636759   2.660639   1.796970   1.739253   0.000000
     6  H    2.234480   3.422397   3.630000   1.079907   2.501879
     7  C    3.845335   2.671872   1.454991   3.969219   2.793224
     8  S    4.868390   3.510809   2.843002   5.324718   4.388100
     9  C    6.268611   4.947549   3.970371   6.497310   5.228258
    10  C    6.221568   5.042428   3.818393   6.190239   4.718199
    11  C    4.994116   3.959943   2.627754   4.843128   3.359046
    12  H    5.129260   4.310416   2.982316   4.767027   3.238195
    13  S    7.736033   6.564981   5.384947   7.676633   6.179774
    14  C    8.328265   7.000516   6.020251   8.519326   7.159916
    15  C    7.528724   6.151414   5.299369   7.855140   6.623888
    16  H    9.286042   7.938464   7.022133   9.525532   8.194063
    17  H    7.902944   6.485507   5.835500   8.391237   7.307997
    18  H    2.233204   1.243905   2.492589   3.495497   3.897140
    19  O    1.690739   2.742462   4.010162   2.760960   4.261936
    20  H    2.730531   3.356859   4.773992   3.974858   5.349701
                    6          7          8          9         10
     6  H    0.000000
     7  C    5.001290   0.000000
     8  S    6.379958   1.790502   0.000000
     9  C    7.522835   2.548490   1.729724   0.000000
    10  C    7.150835   2.409603   2.639969   1.440373   0.000000
    11  C    5.779224   1.464128   2.666359   2.390962   1.433263
    12  H    5.595356   2.251224   3.704271   3.403574   2.214215
    13  S    8.602372   4.035915   4.168753   2.646941   1.732780
    14  C    9.525735   4.592313   3.991988   2.368585   2.500826
    15  C    8.895604   3.898878   2.842182   1.426333   2.385056
    16  H   10.537291   5.615079   4.944510   3.392487   3.553398
    17  H    9.453260   4.532927   3.151679   2.225814   3.400889
    18  H    4.438479   3.323522   3.589833   5.162159   5.533547
    19  O    3.043206   5.372095   6.100467   7.647457   7.765704
    20  H    4.312876   5.997399   6.422552   8.048578   8.346193
                   11         12         13         14         15
    11  C    0.000000
    12  H    1.079408   0.000000
    13  S    2.850653   3.149172   0.000000
    14  C    3.858061   4.496705   1.765881   0.000000
    15  C    3.614603   4.512720   2.673143   1.445886   0.000000
    16  H    4.877167   5.443009   2.516031   1.080720   2.240964
    17  H    4.507693   5.449339   3.695482   2.227986   1.086159
    18  H    4.674979   5.168175   6.997763   7.154104   6.184595
    19  O    6.609397   6.791326   9.283892   9.729483   8.827728
    20  H    7.314393   7.605559   9.840572  10.092073   9.107575
                   16         17         18         19         20
    16  H    0.000000
    17  H    2.643260   0.000000
    18  H    8.011093   6.314546   0.000000
    19  O   10.647975   9.056046   2.833549   0.000000
    20  H   10.951045   9.190253   2.942346   1.269724   0.000000
 Stoichiometry    C10H6OS3
 Framework group  C1[X(C10H6OS3)]
 Deg. of freedom    54
 Full point group                 C1      NOp   1
 Largest Abelian subgroup         C1      NOp   1
 Largest concise Abelian subgroup C1      NOp   1
                         Standard orientation:                         
 ---------------------------------------------------------------------
 Center     Atomic      Atomic             Coordinates (Angstroms)
 Number     Number       Type             X           Y           Z
 ---------------------------------------------------------------------
      1          6           0       -3.858330    0.309931    0.417126
      2          6           0       -2.520053    0.833588    0.489902
      3          6           0       -1.513975   -0.102833   -0.002667
      4          6           0       -3.908385   -1.022644   -0.116014
      5         16           0       -2.326975   -1.615672   -0.531297
      6          1           0       -4.814308   -1.591777   -0.262959
      7          6           0       -0.068936   -0.016542   -0.149009
      8         16           0        0.749641    1.512583   -0.593540
      9          6           0        2.317844    0.784361   -0.544784
     10          6           0        2.267540   -0.605311   -0.169346
     11          6           0        0.930927   -1.063031    0.071904
     12          1           0        0.709678   -2.020839    0.517746
     13         16           0        3.736563   -1.153263    0.568386
     14          6           0        4.468810    0.443313    0.386464
     15          6           0        3.564536    1.395659   -0.218441
     16          1           0        5.409184    0.705035    0.850312
     17          1           0        3.721765    2.468976   -0.163569
     18          1           0       -2.493110    2.020813    0.860134
     19          8           0       -5.220809    1.286248    0.638611
     20          1           0       -5.394270    2.490480    1.001844
 ---------------------------------------------------------------------
 Rotational constants (GHZ):           1.3507801           0.2274065           0.2027006
 Standard basis: 6-311+G(d,p) (5D, 7F)
 There are   382 symmetry adapted cartesian basis functions of A   symmetry.
 There are   368 symmetry adapted basis functions of A   symmetry.
   368 basis functions,   594 primitive gaussians,   382 cartesian basis functions
    61 alpha electrons       61 beta electrons
       nuclear repulsion energy      1075.9929543804 Hartrees.
 NAtoms=   20 NActive=   20 NUniq=   20 SFac= 1.00D+00 NAtFMM=   60 NAOKFM=F Big=F
 Integral buffers will be    131072 words long.
 Raffenetti 2 integral format.
 Two-electron integral symmetry is turned on.
 Nuclear repulsion after empirical dispersion term =     1075.9831628965 Hartrees.
 One-electron integrals computed using PRISM.
 NBasis=   368 RedAO= T EigKep=  2.90D-06  NBF=   368
 NBsUse=   367 1.00D-06 EigRej=  5.45D-07 NBFU=   367
 ExpMin= 4.05D-02 ExpMax= 9.34D+04 ExpMxC= 3.17D+03 IAcc=3 IRadAn=         5 AccDes= 0.00D+00
 Harris functional with IExCor= 4639 and IRadAn=       5 diagonalized for initial guess.
 HarFok:  IExCor= 4639 AccDes= 0.00D+00 IRadAn=         5 IDoV= 1 UseB2=F ITyADJ=14
 ICtDFT=  3500011 ScaDFX=  1.000000  1.000000  1.000000  1.000000
 FoFCou: FMM=F IPFlag=           0 FMFlag=      100000 FMFlg1=           0
         NFxFlg=           0 DoJE=T BraDBF=F KetDBF=T FulRan=T
         wScrn=  0.000000 ICntrl=       500 IOpCl=  0 I1Cent=   200000004 NGrid=           0
         NMat0=    1 NMatS0=      1 NMatT0=    0 NMatD0=    1 NMtDS0=    0 NMtDT0=    0
 Petite list used in FoFCou.
 Requested convergence on RMS density matrix=1.00D-08 within 128 cycles.
 Requested convergence on MAX density matrix=1.00D-06.
 Requested convergence on             energy=1.00D-06.
 No special actions if energy rises.
 SCF Done:  E(RwB97XD) =  -1654.22671995     A.U. after   19 cycles
            NFock= 19  Conv=0.34D-08     -V/T= 2.0032

 **********************************************************************

            Population analysis using the SCF Density.

 **********************************************************************

 Orbital symmetries:
       Occupied  (A) (A) (A) (A) (A) (A) (A) (A) (A) (A) (A) (A)
                 (A) (A) (A) (A) (A) (A) (A) (A) (A) (A) (A) (A)
                 (A) (A) (A) (A) (A) (A) (A) (A) (A) (A) (A) (A)
                 (A) (A) (A) (A) (A) (A) (A) (A) (A) (A) (A) (A)
                 (A) (A) (A) (A) (A) (A) (A) (A) (A) (A) (A) (A)
                 (A)
       Virtual   (A) (A) (A) (A) (A) (A) (A) (A) (A) (A) (A) (A)
                 (A) (A) (A) (A) (A) (A) (A) (A) (A) (A) (A) (A)
                 (A) (A) (A) (A) (A) (A) (A) (A) (A) (A) (A) (A)
                 (A) (A) (A) (A) (A) (A) (A) (A) (A) (A) (A) (A)
                 (A) (A) (A) (A) (A) (A) (A) (A) (A) (A) (A) (A)
                 (A) (A) (A) (A) (A) (A) (A) (A) (A) (A) (A) (A)
                 (A) (A) (A) (A) (A) (A) (A) (A) (A) (A) (A) (A)
                 (A) (A) (A) (A) (A) (A) (A) (A) (A) (A) (A) (A)
                 (A) (A) (A) (A) (A) (A) (A) (A) (A) (A) (A) (A)
                 (A) (A) (A) (A) (A) (A) (A) (A) (A) (A) (A) (A)
                 (A) (A) (A) (A) (A) (A) (A) (A) (A) (A) (A) (A)
                 (A) (A) (A) (A) (A) (A) (A) (A) (A) (A) (A) (A)
                 (A) (A) (A) (A) (A) (A) (A) (A) (A) (A) (A) (A)
                 (A) (A) (A) (A) (A) (A) (A) (A) (A) (A) (A) (A)
                 (A) (A) (A) (A) (A) (A) (A) (A) (A) (A) (A) (A)
                 (A) (A) (A) (A) (A) (A) (A) (A) (A) (A) (A) (A)
                 (A) (A) (A) (A) (A) (A) (A) (A) (A) (A) (A) (A)
                 (A) (A) (A) (A) (A) (A) (A) (A) (A) (A) (A) (A)
                 (A) (A) (A) (A) (A) (A) (A) (A) (A) (A) (A) (A)
                 (A) (A) (A) (A) (A) (A) (A) (A) (A) (A) (A) (A)
                 (A) (A) (A) (A) (A) (A) (A) (A) (A) (A) (A) (A)
                 (A) (A) (A) (A) (A) (A) (A) (A) (A) (A) (A) (A)
                 (A) (A) (A) (A) (A) (A) (A) (A) (A) (A) (A) (A)
                 (A) (A) (A) (A) (A) (A) (A) (A) (A) (A) (A) (A)
                 (A) (A) (A) (A) (A) (A) (A) (A) (A) (A) (A) (A)
                 (A) (A) (A) (A) (A) (A)
 The electronic state is 1-A.
 Alpha  occ. eigenvalues --  -89.07474 -89.06418 -89.06217 -19.27811 -10.39017
 Alpha  occ. eigenvalues --  -10.36762 -10.36194 -10.34344 -10.34204 -10.34154
 Alpha  occ. eigenvalues --  -10.34111 -10.34028 -10.32699 -10.32216  -8.11305
 Alpha  occ. eigenvalues --   -8.10356  -8.10157  -6.06156  -6.05788  -6.05395
 Alpha  occ. eigenvalues --   -6.05209  -6.05024  -6.04844  -6.04649  -6.04422
 Alpha  occ. eigenvalues --   -6.04202  -1.03400  -1.01347  -0.98447  -0.94179
 Alpha  occ. eigenvalues --   -0.87884  -0.85469  -0.84334  -0.81173  -0.78732
 Alpha  occ. eigenvalues --   -0.71766  -0.67398  -0.65164  -0.63110  -0.62410
 Alpha  occ. eigenvalues --   -0.59031  -0.58305  -0.53995  -0.52313  -0.51008
 Alpha  occ. eigenvalues --   -0.49990  -0.48662  -0.48214  -0.48097  -0.47750
 Alpha  occ. eigenvalues --   -0.46139  -0.44517  -0.43142  -0.42476  -0.40550
 Alpha  occ. eigenvalues --   -0.40024  -0.37754  -0.34440  -0.32842  -0.31158
 Alpha  occ. eigenvalues --   -0.27508
 Alpha virt. eigenvalues --   -0.02105  -0.00656   0.02958   0.04787   0.05407
 Alpha virt. eigenvalues --    0.05470   0.06401   0.06537   0.06918   0.07411
 Alpha virt. eigenvalues --    0.07966   0.08516   0.08949   0.09175   0.09816
 Alpha virt. eigenvalues --    0.09988   0.10672   0.11145   0.11291   0.11705
 Alpha virt. eigenvalues --    0.12334   0.12704   0.13249   0.14004   0.14275
 Alpha virt. eigenvalues --    0.15052   0.15490   0.15648   0.16268   0.16851
 Alpha virt. eigenvalues --    0.17152   0.17448   0.17693   0.18501   0.18970
 Alpha virt. eigenvalues --    0.19142   0.19318   0.20153   0.20543   0.21013
 Alpha virt. eigenvalues --    0.21418   0.21668   0.22701   0.22951   0.23059
 Alpha virt. eigenvalues --    0.23602   0.23828   0.23984   0.24752   0.24977
 Alpha virt. eigenvalues --    0.25223   0.26069   0.26188   0.26513   0.26719
 Alpha virt. eigenvalues --    0.27037   0.27551   0.27615   0.28125   0.28313
 Alpha virt. eigenvalues --    0.29327   0.29791   0.30415   0.30812   0.31079
 Alpha virt. eigenvalues --    0.31259   0.31761   0.32994   0.33376   0.34450
 Alpha virt. eigenvalues --    0.34725   0.35263   0.35884   0.37312   0.37964
 Alpha virt. eigenvalues --    0.38397   0.39423   0.40226   0.40879   0.41356
 Alpha virt. eigenvalues --    0.41890   0.42881   0.43413   0.44115   0.45296
 Alpha virt. eigenvalues --    0.46754   0.47751   0.48354   0.49899   0.50058
 Alpha virt. eigenvalues --    0.51654   0.52748   0.56163   0.57349   0.60430
 Alpha virt. eigenvalues --    0.60882   0.61881   0.63057   0.63239   0.63473
 Alpha virt. eigenvalues --    0.64073   0.65114   0.65502   0.66944   0.68104
 Alpha virt. eigenvalues --    0.69149   0.69699   0.70591   0.71332   0.71865
 Alpha virt. eigenvalues --    0.73704   0.74386   0.75424   0.76445   0.76982
 Alpha virt. eigenvalues --    0.78236   0.78601   0.79040   0.80102   0.81167
 Alpha virt. eigenvalues --    0.81561   0.82109   0.83022   0.83557   0.84112
 Alpha virt. eigenvalues --    0.85733   0.86390   0.87060   0.88139   0.89355
 Alpha virt. eigenvalues --    0.90105   0.90959   0.92156   0.93087   0.93998
 Alpha virt. eigenvalues --    0.94488   0.95605   0.96565   0.97734   0.98172
 Alpha virt. eigenvalues --    0.99913   1.00627   1.01307   1.02102   1.02918
 Alpha virt. eigenvalues --    1.04289   1.05819   1.06109   1.08076   1.09006
 Alpha virt. eigenvalues --    1.10010   1.12958   1.13807   1.14493   1.15405
 Alpha virt. eigenvalues --    1.18764   1.19422   1.22380   1.22843   1.26356
 Alpha virt. eigenvalues --    1.29090   1.30198   1.32675   1.33243   1.36718
 Alpha virt. eigenvalues --    1.42581   1.43053   1.44236   1.45782   1.46882
 Alpha virt. eigenvalues --    1.49815   1.53264   1.54841   1.57518   1.58919
 Alpha virt. eigenvalues --    1.59016   1.60817   1.64812   1.64967   1.66912
 Alpha virt. eigenvalues --    1.68747   1.68803   1.70693   1.71221   1.72561
 Alpha virt. eigenvalues --    1.74127   1.75068   1.76937   1.77007   1.77376
 Alpha virt. eigenvalues --    1.78535   1.81993   1.82243   1.83588   1.85935
 Alpha virt. eigenvalues --    1.86873   1.87313   1.89536   1.91236   1.92268
 Alpha virt. eigenvalues --    1.94426   1.94982   1.98431   1.99467   2.00131
 Alpha virt. eigenvalues --    2.02346   2.03177   2.03532   2.06013   2.07750
 Alpha virt. eigenvalues --    2.08194   2.09144   2.09764   2.11087   2.13928
 Alpha virt. eigenvalues --    2.14531   2.16421   2.19077   2.20263   2.22277
 Alpha virt. eigenvalues --    2.22675   2.27436   2.28165   2.31361   2.38540
 Alpha virt. eigenvalues --    2.41691   2.43057   2.45048   2.50419   2.55277
 Alpha virt. eigenvalues --    2.57776   2.61737   2.64351   2.67025   2.70944
 Alpha virt. eigenvalues --    2.73652   2.75917   2.77423   2.79675   2.80705
 Alpha virt. eigenvalues --    2.81915   2.83630   2.84989   2.86520   2.88957
 Alpha virt. eigenvalues --    2.90642   2.94493   2.96446   3.00025   3.01681
 Alpha virt. eigenvalues --    3.02739   3.04352   3.05147   3.07228   3.10551
 Alpha virt. eigenvalues --    3.11719   3.13164   3.13895   3.18078   3.28826
 Alpha virt. eigenvalues --    3.29686   3.33776   3.35591   3.40421   3.45608
 Alpha virt. eigenvalues --    3.48942   3.56282   3.58226   3.66940   3.69651
 Alpha virt. eigenvalues --    3.87791   3.92737   4.02486   4.12918   4.21723
 Alpha virt. eigenvalues --    4.39821   4.54141   5.13195   5.23505   5.36481
 Alpha virt. eigenvalues --    8.03047   8.05998   8.07809  17.40549  17.41795
 Alpha virt. eigenvalues --   17.43191  17.55788  17.57279  17.60083  17.60192
 Alpha virt. eigenvalues --   17.62772  17.64074  23.54022  23.68798  23.80003
 Alpha virt. eigenvalues --   23.88414  23.92596  23.97852  23.98752  24.00834
 Alpha virt. eigenvalues --   24.06409  24.08466  49.98359 189.27194 189.30737
 Alpha virt. eigenvalues --  189.32776
          Condensed to atoms (all electrons):
               1          2          3          4          5          6
     1  C    6.892100  -0.750678   0.045889  -0.994222   0.889825   0.039267
     2  C   -0.750678  11.788146  -3.151352  -0.025559  -2.125033  -0.030682
     3  C    0.045889  -3.151352   9.136473   0.053219   0.603663   0.023022
     4  C   -0.994222  -0.025559   0.053219   7.405073  -0.647184   0.364996
     5  S    0.889825  -2.125033   0.603663  -0.647184  17.175138  -0.025482
     6  H    0.039267  -0.030682   0.023022   0.364996  -0.025482   0.422205
     7  C    0.074683  -0.578394  -0.144105  -0.148231   0.480198  -0.002267
     8  S    0.087757  -0.291130   0.607439   0.068683   0.075755  -0.000547
     9  C   -0.027670   0.140528  -0.579694  -0.011650  -0.000770   0.000056
    10  C    0.022762  -0.490435   0.726720   0.007546   0.096143  -0.000158
    11  C   -0.135274   0.722668  -1.249884  -0.153811  -0.134223   0.000556
    12  H   -0.002407   0.001045   0.027321   0.002362  -0.006098   0.000001
    13  S   -0.001392   0.016971   0.006354  -0.001197  -0.004182  -0.000000
    14  C    0.000140   0.016362  -0.014740   0.000985  -0.002868  -0.000000
    15  C   -0.017618  -0.003960  -0.046763   0.001912  -0.013996  -0.000002
    16  H   -0.000001  -0.000080  -0.000109  -0.000001   0.000021   0.000000
    17  H    0.000037  -0.000015  -0.000365  -0.000004   0.000016  -0.000000
    18  H   -0.065087   0.301740   0.095795  -0.029302   0.005734  -0.000043
    19  O    0.334258  -0.032064  -0.014606  -0.139624   0.012493  -0.000140
    20  H   -0.055109  -0.031127   0.030637   0.055895  -0.003477  -0.000137
               7          8          9         10         11         12
     1  C    0.074683   0.087757  -0.027670   0.022762  -0.135274  -0.002407
     2  C   -0.578394  -0.291130   0.140528  -0.490435   0.722668   0.001045
     3  C   -0.144105   0.607439  -0.579694   0.726720  -1.249884   0.027321
     4  C   -0.148231   0.068683  -0.011650   0.007546  -0.153811   0.002362
     5  S    0.480198   0.075755  -0.000770   0.096143  -0.134223  -0.006098
     6  H   -0.002267  -0.000547   0.000056  -0.000158   0.000556   0.000001
     7  C    9.590127   0.435325  -0.397872   1.301833  -3.945757   0.101384
     8  S    0.435325  17.761742  -1.148460   1.529330  -2.513932   0.008169
     9  C   -0.397872  -1.148460  13.699191  -6.128995   2.137873  -0.041897
    10  C    1.301833   1.529330  -6.128995  17.209466  -7.549366   0.100994
    11  C   -3.945757  -2.513932   2.137873  -7.549366  17.114051   0.168680
    12  H    0.101384   0.008169  -0.041897   0.100994   0.168680   0.467704
    13  S   -0.443283   0.081189   0.456082  -1.137394   0.602455   0.002317
    14  C    0.208853  -0.032455   0.837356  -0.496808  -0.282020   0.001725
    15  C   -0.511765  -0.168990  -3.057582   0.636100   1.026505  -0.010739
    16  H   -0.003245   0.000897  -0.026785   0.015181   0.009695  -0.000002
    17  H    0.005009   0.011614   0.015545  -0.029536  -0.003809   0.000009
    18  H    0.017730   0.005062   0.001519  -0.000590  -0.001103   0.000006
    19  O    0.012369   0.000706  -0.000551   0.000516  -0.000732   0.000002
    20  H   -0.001702   0.000785  -0.000133   0.000127  -0.000383   0.000000
              13         14         15         16         17         18
     1  C   -0.001392   0.000140  -0.017618  -0.000001   0.000037  -0.065087
     2  C    0.016971   0.016362  -0.003960  -0.000080  -0.000015   0.301740
     3  C    0.006354  -0.014740  -0.046763  -0.000109  -0.000365   0.095795
     4  C   -0.001197   0.000985   0.001912  -0.000001  -0.000004  -0.029302
     5  S   -0.004182  -0.002868  -0.013996   0.000021   0.000016   0.005734
     6  H   -0.000000  -0.000000  -0.000002   0.000000  -0.000000  -0.000043
     7  C   -0.443283   0.208853  -0.511765  -0.003245   0.005009   0.017730
     8  S    0.081189  -0.032455  -0.168990   0.000897   0.011614   0.005062
     9  C    0.456082   0.837356  -3.057582  -0.026785   0.015545   0.001519
    10  C   -1.137394  -0.496808   0.636100   0.015181  -0.029536  -0.000590
    11  C    0.602455  -0.282020   1.026505   0.009695  -0.003809  -0.001103
    12  H    0.002317   0.001725  -0.010739  -0.000002   0.000009   0.000006
    13  S   16.616388   0.303537  -0.287112  -0.024803  -0.000650  -0.000055
    14  C    0.303537   5.575233  -0.181648   0.371373   0.010900  -0.000008
    15  C   -0.287112  -0.181648   8.324010   0.021006   0.349880  -0.000102
    16  H   -0.024803   0.371373   0.021006   0.436429  -0.002631  -0.000000
    17  H   -0.000650   0.010900   0.349880  -0.002631   0.473731  -0.000000
    18  H   -0.000055  -0.000008  -0.000102  -0.000000  -0.000000   0.494199
    19  O   -0.000005   0.000002  -0.000005   0.000000   0.000000  -0.000692
    20  H    0.000000  -0.000000  -0.000004  -0.000000   0.000000   0.000599
              19         20
     1  C    0.334258  -0.055109
     2  C   -0.032064  -0.031127
     3  C   -0.014606   0.030637
     4  C   -0.139624   0.055895
     5  S    0.012493  -0.003477
     6  H   -0.000140  -0.000137
     7  C    0.012369  -0.001702
     8  S    0.000706   0.000785
     9  C   -0.000551  -0.000133
    10  C    0.000516   0.000127
    11  C   -0.000732  -0.000383
    12  H    0.000002   0.000000
    13  S   -0.000005   0.000000
    14  C    0.000002  -0.000000
    15  C   -0.000005  -0.000004
    16  H    0.000000  -0.000000
    17  H    0.000000   0.000000
    18  H   -0.000692   0.000599
    19  O    8.085701   0.207007
    20  H    0.207007   0.492596
 Mulliken charges:
               1
     1  C   -0.337262
     2  C    0.523052
     3  C   -0.154913
     4  C    0.190114
     5  S   -0.375674
     6  H    0.209357
     7  C   -0.050889
     8  S   -0.518938
     9  C    0.133909
    10  C    0.186563
    11  C    0.187812
    12  H    0.179423
    13  S   -0.185221
    14  C   -0.315920
    15  C   -0.059127
    16  H    0.203056
    17  H    0.170269
    18  H    0.174597
    19  O   -0.464635
    20  H    0.304424
 Sum of Mulliken charges =  -0.00000
 Mulliken charges with hydrogens summed into heavy atoms:
               1
     1  C   -0.337262
     2  C    0.697649
     3  C   -0.154913
     4  C    0.399471
     5  S   -0.375674
     7  C   -0.050889
     8  S   -0.518938
     9  C    0.133909
    10  C    0.186563
    11  C    0.367236
    13  S   -0.185221
    14  C   -0.112863
    15  C    0.111143
    19  O   -0.160211
 Electronic spatial extent (au):  <R**2>=           4994.1324
 Charge=             -0.0000 electrons
 Dipole moment (field-independent basis, Debye):
    X=              1.3762    Y=              1.2032    Z=              1.2232  Tot=              2.1995
 Quadrupole moment (field-independent basis, Debye-Ang):
   XX=           -100.5195   YY=            -88.7099   ZZ=           -107.7710
   XY=             -0.0565   XZ=              3.3062   YZ=              3.3574
 Traceless Quadrupole moment (field-independent basis, Debye-Ang):
   XX=             -1.5193   YY=             10.2902   ZZ=             -8.7709
   XY=             -0.0565   XZ=              3.3062   YZ=              3.3574
 Octapole moment (field-independent basis, Debye-Ang**2):
  XXX=             66.2617  YYY=             28.4213  ZZZ=              2.5149  XYY=            -42.8462
  XXY=             38.1566  XXZ=             27.9251  XZZ=             -4.5672  YZZ=              2.2925
  YYZ=             11.7373  XYZ=            -20.7132
 Hexadecapole moment (field-independent basis, Debye-Ang**3):
 XXXX=          -5636.3154 YYYY=           -833.0198 ZZZZ=           -273.5476 XXXY=            -35.6661
 XXXZ=            122.7575 YYYX=           -107.9306 YYYZ=             30.6445 ZZZX=              7.8031
 ZZZY=              6.1960 XXYY=           -818.8817 XXZZ=          -1026.4926 YYZZ=           -196.4053
 XXYZ=            104.4774 YYXZ=            -42.8949 ZZXY=            -27.4579
 N-N= 1.075983162897D+03 E-N=-6.061136912932D+03  KE= 1.648888451908D+03
 Calling FoFJK, ICntrl=      2127 FMM=F ISym2X=0 I1Cent= 0 IOpClX= 0 NMat=1 NMatS=1 NMatT=0.
 ***** Axes restored to original set *****
 -------------------------------------------------------------------
 Center     Atomic                   Forces (Hartrees/Bohr)
 Number     Number              X              Y              Z
 -------------------------------------------------------------------
      1        6          -0.018429277    0.007735390   -0.021236258
      2        6           0.005893408    0.020729961   -0.017802123
      3        6          -0.046315023    0.026425591    0.005893493
      4        6          -0.007735791    0.059908229   -0.010203180
      5       16          -0.005022397    0.036900156   -0.003977483
      6        1           0.002567306   -0.003509924   -0.000342031
      7        6           0.054072618   -0.021424905    0.019186998
      8       16          -0.010985616   -0.017734357    0.008464720
      9        6           0.013515814   -0.009661245    0.036700211
     10        6          -0.025968187    0.031224365   -0.013503631
     11        6          -0.034952241    0.035280281   -0.035096208
     12        1          -0.005305194   -0.003048944   -0.000658593
     13       16           0.007582364    0.009312198   -0.020951663
     14        6          -0.053838967    0.018842525   -0.033113825
     15        6           0.037309436   -0.020364583    0.047484508
     16        1           0.002208984   -0.006909850   -0.000587983
     17        1           0.003616201   -0.007435265   -0.004261133
     18        1           0.014399957   -0.070695758    0.019513215
     19        8           0.023395898    0.026593527   -0.007080143
     20        1           0.043990708   -0.112167393    0.031571110
 -------------------------------------------------------------------
 Cartesian Forces:  Max     0.112167393 RMS     0.029628684

 GradGradGradGradGradGradGradGradGradGradGradGradGradGradGradGradGradGrad
 Berny optimization.
 FormGI is forming the generalized inverse of G from B-inverse, IUseBI=4.
 Internal  Forces:  Max     0.121137354 RMS     0.024613986
 Search for a local minimum.
 Step number   1 out of a maximum of  116
 All quantities printed in internal units (Hartrees-Bohrs-Radians)
 Mixed Optimization -- RFO/linear search
 Second derivative matrix not updated -- first step.
 ITU=  0
     Eigenvalues ---    0.00230   0.00983   0.01057   0.01222   0.01270
     Eigenvalues ---    0.01293   0.01386   0.01414   0.01417   0.01464
     Eigenvalues ---    0.01491   0.01554   0.01593   0.01763   0.02198
     Eigenvalues ---    0.02652   0.15078   0.15682   0.15737   0.15872
     Eigenvalues ---    0.15997   0.16000   0.18000   0.18458   0.20203
     Eigenvalues ---    0.21719   0.22444   0.23320   0.23380   0.23776
     Eigenvalues ---    0.23976   0.24292   0.24979   0.24995   0.26219
     Eigenvalues ---    0.26536   0.28332   0.30834   0.31276   0.31600
     Eigenvalues ---    0.34852   0.35260   0.35849   0.35908   0.36006
     Eigenvalues ---    0.36066   0.36331   0.37598   0.38215   0.38494
     Eigenvalues ---    0.39449   0.39620   0.405901000.000001000.00000
     Eigenvalues --- 1000.000001000.000001000.000001000.000001000.00000
     Eigenvalues --- 1000.000001000.000001000.000001000.000001000.00000
     Eigenvalues --- 1000.000001000.000001000.000001000.000001000.00000
     Eigenvalues --- 1000.000001000.000001000.000001000.000001000.00000
     Eigenvalues --- 1000.000001000.000001000.000001000.000001000.00000
     Eigenvalues --- 1000.000001000.000001000.000001000.000001000.00000
     Eigenvalues --- 1000.000001000.000001000.000001000.000001000.00000
     Eigenvalues --- 1000.000001000.000001000.000001000.000001000.00000
     Eigenvalues --- 1000.000001000.000001000.000001000.000001000.00000
     Eigenvalues --- 1000.000001000.000001000.000001000.000001000.00000
     Eigenvalues --- 1000.00000
 RFO step:  Lambda=-1.60022440D-01 EMin= 2.30000000D-03
 Linear search not attempted -- first point.
 Maximum step size (   0.300) exceeded in Quadratic search.
    -- Step size scaled by   0.473
 Iteration  1 RMS(Cart)=  0.06018280 RMS(Int)=  0.00135541
 Iteration  2 RMS(Cart)=  0.00158825 RMS(Int)=  0.00005993
 Iteration  3 RMS(Cart)=  0.00000794 RMS(Int)=  0.00005971
 Iteration  4 RMS(Cart)=  0.00000000 RMS(Int)=  0.00005971
 Iteration  1 RMS(Cart)=  0.00000014 RMS(Int)=  0.00000007
 Variable       Old X    -DE/DX   Delta X   Delta X   Delta X     New X
                                 (Linear)    (Quad)   (Total)
    R1        2.71917  -0.02419   0.00000  -0.02154  -0.02148   2.69770
    R2        2.71391  -0.06924   0.00000  -0.05890  -0.05888   2.65504
    R3        3.19503  -0.10717   0.00000  -0.14725  -0.14725   3.04779
    R4        2.75906  -0.07442   0.00000  -0.06683  -0.06681   2.69226
    R5        2.35064  -0.07282   0.00000  -0.09139  -0.09139   2.25925
    R6        3.39578  -0.02634   0.00000  -0.02838  -0.02843   3.36735
    R7        2.74954  -0.01368   0.00000  -0.01208  -0.01208   2.73745
    R8        3.28671  -0.02138   0.00000  -0.02055  -0.02060   3.26611
    R9        2.04073  -0.00058   0.00000  -0.00053  -0.00053   2.04020
   R10        3.38356  -0.01938   0.00000  -0.02050  -0.02053   3.36303
   R11        2.76680  -0.07107   0.00000  -0.06439  -0.06440   2.70240
   R12        3.26870  -0.00533   0.00000  -0.00460  -0.00460   3.26410
   R13        2.72191  -0.03884   0.00000  -0.03367  -0.03360   2.68831
   R14        2.69538  -0.00330   0.00000  -0.00346  -0.00342   2.69196
   R15        2.70847  -0.01407   0.00000  -0.01262  -0.01260   2.69588
   R16        3.27448  -0.00501   0.00000  -0.00415  -0.00416   3.27032
   R17        2.03979   0.00160   0.00000   0.00146   0.00146   2.04124
   R18        3.33703  -0.01825   0.00000  -0.01866  -0.01871   3.31832
   R19        2.73233  -0.06623   0.00000  -0.05768  -0.05769   2.67464
   R20        2.04226  -0.00079   0.00000  -0.00072  -0.00072   2.04154
   R21        2.05254  -0.00358   0.00000  -0.00330  -0.00330   2.04924
   R22        2.39943  -0.12114   0.00000  -0.15841  -0.15841   2.24102
    A1        1.97020   0.01987   0.00000   0.02149   0.02158   1.99178
    A2        2.13260   0.00492   0.00000   0.00716   0.00712   2.13972
    A3        2.16079  -0.02413   0.00000  -0.02694  -0.02702   2.13377
    A4        1.97187  -0.00408   0.00000  -0.00673  -0.00664   1.96523
    A5        1.96334   0.02151   0.00000   0.03236   0.03231   1.99565
    A6        2.34288  -0.01723   0.00000  -0.02498  -0.02504   2.31784
    A7        1.90440   0.00161   0.00000   0.00261   0.00260   1.90700
    A8        2.31891  -0.00911   0.00000  -0.01090  -0.01090   2.30802
    A9        2.05972   0.00751   0.00000   0.00830   0.00831   2.06802
   A10        1.95339  -0.01479   0.00000  -0.01817  -0.01819   1.93520
   A11        2.17580   0.01177   0.00000   0.01558   0.01558   2.19138
   A12        2.15384   0.00305   0.00000   0.00265   0.00265   2.15650
   A13        1.62490  -0.00261   0.00000   0.00081   0.00065   1.62555
   A14        2.12901  -0.00473   0.00000  -0.00531  -0.00532   2.12369
   A15        2.24039  -0.00501   0.00000  -0.00564  -0.00566   2.23474
   A16        1.91311   0.00981   0.00000   0.01111   0.01113   1.92424
   A17        1.61876  -0.00774   0.00000  -0.00703  -0.00701   1.61175
   A18        1.96261  -0.01024   0.00000  -0.01035  -0.01047   1.95214
   A19        2.23757   0.00839   0.00000   0.01328   0.01316   2.25072
   A20        1.96534   0.00571   0.00000   0.00637   0.00641   1.97174
   A21        1.96552   0.00778   0.00000   0.00814   0.00815   1.97367
   A22        1.96759  -0.01304   0.00000  -0.01353  -0.01359   1.95400
   A23        2.23694   0.00862   0.00000   0.01328   0.01317   2.25012
   A24        1.96405   0.00041   0.00000  -0.00179  -0.00173   1.96232
   A25        2.16106  -0.00412   0.00000  -0.00455  -0.00460   2.15646
   A26        2.14606   0.00424   0.00000   0.00778   0.00773   2.15379
   A27        1.59257   0.00042   0.00000   0.00181   0.00179   1.59437
   A28        1.95981   0.00214   0.00000   0.00179   0.00177   1.96158
   A29        2.13596  -0.00477   0.00000  -0.00583  -0.00589   2.13007
   A30        2.17032   0.00370   0.00000   0.00684   0.00680   2.17712
   A31        1.93915   0.00477   0.00000   0.00356   0.00361   1.94276
   A32        2.16711   0.00032   0.00000   0.00334   0.00323   2.17035
   A33        2.14029  -0.00318   0.00000  -0.00197  -0.00209   2.13820
   A34        2.33954  -0.06942   0.00000  -0.10271  -0.10271   2.23683
    D1        0.00683  -0.00098   0.00000  -0.00254  -0.00255   0.00428
    D2        3.05589  -0.00024   0.00000   0.00166   0.00181   3.05771
    D3       -2.93068  -0.00151   0.00000  -0.00816  -0.00835  -2.93902
    D4        0.11838  -0.00077   0.00000  -0.00395  -0.00398   0.11440
    D5       -0.00671   0.00046   0.00000   0.00102   0.00103  -0.00568
    D6       -3.13020  -0.00103   0.00000  -0.00224  -0.00222  -3.13242
    D7        2.92697   0.00507   0.00000   0.01150   0.01141   2.93839
    D8       -0.19651   0.00357   0.00000   0.00824   0.00816  -0.18835
    D9       -0.13323   0.00189   0.00000   0.00265   0.00260  -0.13063
   D10       -3.04818  -0.00436   0.00000  -0.00986  -0.00981  -3.05799
   D11       -0.00388   0.00118   0.00000   0.00300   0.00296  -0.00092
   D12        3.11762   0.00196   0.00000   0.00388   0.00383   3.12145
   D13       -3.02603  -0.00286   0.00000  -0.00697  -0.00692  -3.03295
   D14        0.09547  -0.00207   0.00000  -0.00609  -0.00605   0.08943
   D15        0.00006  -0.00072   0.00000  -0.00200  -0.00199  -0.00193
   D16       -3.12486  -0.00116   0.00000  -0.00249  -0.00248  -3.12734
   D17       -0.61089  -0.00118   0.00000   0.00000  -0.00000  -0.61089
   D18        2.48691   0.00143   0.00000   0.00553   0.00553   2.49244
   D19        2.50920  -0.00042   0.00000   0.00086   0.00086   2.51006
   D20       -0.67619   0.00219   0.00000   0.00639   0.00639  -0.66979
   D21        0.00376   0.00015   0.00000   0.00057   0.00055   0.00430
   D22        3.12751   0.00173   0.00000   0.00395   0.00389   3.13140
   D23        3.13779   0.00089   0.00000   0.00197   0.00197   3.13977
   D24        0.03265  -0.00101   0.00000  -0.00233  -0.00236   0.03029
   D25       -3.13858  -0.00192   0.00000  -0.00409  -0.00407   3.14054
   D26       -0.15896   0.00208   0.00000   0.00632   0.00632  -0.15265
   D27       -0.03642   0.00018   0.00000   0.00061   0.00066  -0.03576
   D28        2.94320   0.00418   0.00000   0.01102   0.01104   2.95424
   D29       -0.02121   0.00204   0.00000   0.00397   0.00394  -0.01727
   D30       -2.61646  -0.00700   0.00000  -0.01664  -0.01666  -2.63312
   D31        0.00357  -0.00187   0.00000  -0.00394  -0.00391  -0.00034
   D32       -2.68790  -0.01058   0.00000  -0.02229  -0.02210  -2.71000
   D33        2.68705   0.00754   0.00000   0.01662   0.01650   2.70355
   D34       -0.00442  -0.00117   0.00000  -0.00173  -0.00169  -0.00611
   D35        2.61397   0.00603   0.00000   0.01786   0.01800   2.63196
   D36       -0.24563  -0.00067   0.00000  -0.00027  -0.00020  -0.24583
   D37        0.01940   0.00100   0.00000   0.00145   0.00142   0.02082
   D38       -2.84020  -0.00569   0.00000  -0.01668  -0.01678  -2.85698
   D39        0.02181   0.00107   0.00000   0.00203   0.00201   0.02382
   D40       -2.95942  -0.00200   0.00000  -0.00696  -0.00703  -2.96645
   D41        2.62776   0.00450   0.00000   0.01501   0.01515   2.64291
   D42       -0.35346   0.00144   0.00000   0.00602   0.00610  -0.34736
   D43       -0.00902   0.00106   0.00000   0.00141   0.00139  -0.00763
   D44       -2.61446  -0.00755   0.00000  -0.01697  -0.01693  -2.63139
   D45        0.02015  -0.00035   0.00000  -0.00046  -0.00046   0.01969
   D46        2.97191   0.00606   0.00000   0.01579   0.01572   2.98763
   D47       -0.02610  -0.00019   0.00000  -0.00036  -0.00033  -0.02643
   D48        2.83858   0.00702   0.00000   0.01843   0.01846   2.85703
   D49       -2.97346  -0.00566   0.00000  -0.01535  -0.01539  -2.98884
   D50       -0.10879   0.00155   0.00000   0.00344   0.00341  -0.10538
         Item               Value     Threshold  Converged?
 Maximum Force            0.121137     0.000450     NO 
 RMS     Force            0.024730     0.000300     NO 
 Maximum Displacement     0.394230     0.001800     NO 
 RMS     Displacement     0.059767     0.001200     NO 
 Predicted change in Energy=-6.533984D-02
 GradGradGradGradGradGradGradGradGradGradGradGradGradGradGradGradGradGrad

                          Input orientation:                          
 ---------------------------------------------------------------------
 Center     Atomic      Atomic             Coordinates (Angstroms)
 Number     Number       Type             X           Y           Z
 ---------------------------------------------------------------------
      1          6           0       -4.222199   -1.366633   -0.224663
      2          6           0       -2.912184   -0.959982   -0.620164
      3          6           0       -1.980817   -2.038069   -0.619822
      4          6           0       -4.329633   -2.732201    0.087853
      5         16           0       -2.810458   -3.531496   -0.113232
      6          1           0       -5.232455   -3.235914    0.398950
      7          6           0       -0.575098   -2.110629   -0.962064
      8         16           0        0.119670   -1.127340   -2.272620
      9          6           0        1.700080   -1.775980   -2.017478
     10          6           0        1.722610   -2.708476   -0.943369
     11          6           0        0.446174   -2.888744   -0.332312
     12          1           0        0.299656   -3.432221    0.589615
     13         16           0        3.295815   -2.841213   -0.234631
     14          6           0        3.949819   -1.667833   -1.365524
     15          6           0        2.966572   -1.167564   -2.252198
     16          1           0        4.946698   -1.264828   -1.260899
     17          1           0        3.113411   -0.266039   -2.836697
     18          1           0       -2.835613    0.179557   -0.973585
     19          8           0       -5.515665   -0.419055   -0.398538
     20          1           0       -5.551383    0.717661   -0.734622
 ---------------------------------------------------------------------
                    Distance matrix (angstroms):
                    1          2          3          4          5
     1  C    0.000000
     2  C    1.427559   0.000000
     3  C    2.372924   1.424681   0.000000
     4  C    1.404985   2.377227   2.549424   0.000000
     5  S    2.586902   2.622978   1.781927   1.728352   0.000000
     6  H    2.214435   3.406188   3.611908   1.079628   2.493144
     7  C    3.794553   2.627328   1.448599   3.947810   2.781405
     8  S    4.806580   3.456987   2.823687   5.286180   4.362176
     9  C    6.201220   4.887874   3.946027   6.457880   5.201245
    10  C    6.136598   4.964173   3.777499   6.139514   4.681368
    11  C    4.911426   3.883497   2.587777   4.796809   3.326677
    12  H    5.037546   4.229828   2.933761   4.708727   3.190087
    13  S    7.661267   6.498224   5.351285   7.633042   6.146365
    14  C    8.256764   6.938566   5.988788   8.473164   7.123400
    15  C    7.471877   6.104621   5.281958   7.820392   6.598290
    16  H    9.227828   7.890849   6.999953   9.488026   8.162622
    17  H    7.864171   6.457737   5.831447   8.368623   7.291961
    18  H    2.207761   1.195541   2.402851   3.440506   3.809562
    19  O    1.612821   2.668302   3.894268   2.644596   4.133622
    20  H    2.524098   3.129370   4.511782   3.751091   5.094520
                    6          7          8          9         10
     6  H    0.000000
     7  C    4.980923   0.000000
     8  S    6.342603   1.779640   0.000000
     9  C    7.485357   2.530281   1.727289   0.000000
    10  C    7.103024   2.374286   2.614635   1.422592   0.000000
    11  C    5.736035   1.430051   2.640823   2.377038   1.426597
    12  H    5.538875   2.217996   3.679302   3.391351   2.213289
    13  S    8.560876   4.005856   4.144715   2.619091   1.730578
    14  C    9.480844   4.564397   3.973034   2.344796   2.494315
    15  C    8.861755   3.885517   2.847259   1.424523   2.373791
    16  H   10.500259   5.594186   4.933830   3.372569   3.546785
    17  H    9.430962   4.530106   3.165834   2.224533   3.388881
    18  H    4.392511   3.217921   3.482695   5.048400   5.396207
    19  O    2.941239   5.252445   5.980873   7.518589   7.611236
    20  H    4.125222   5.728383   6.158758   7.774810   8.043194
                   11         12         13         14         15
    11  C    0.000000
    12  H    1.080178   0.000000
    13  S    2.851711   3.163170   0.000000
    14  C    3.851452   4.501036   1.755979   0.000000
    15  C    3.605667   4.507441   2.641985   1.415357   0.000000
    16  H    4.873818   5.451330   2.502725   1.080337   2.216537
    17  H    4.501631   5.448077   3.665452   2.197488   1.084411
    18  H    4.538263   5.031744   6.874992   7.043334   6.092202
    19  O    6.453469   6.623713   9.139797   9.596348   8.714623
    20  H    7.009900   7.294503   9.549266   9.816387   8.855092
                   16         17         18         19         20
    16  H    0.000000
    17  H    2.615656   0.000000
    18  H    7.920427   6.249850   0.000000
    19  O   10.531858   8.968221   2.805654   0.000000
    20  H   10.696585   8.970231   2.778861   1.185898   0.000000
 Stoichiometry    C10H6OS3
 Framework group  C1[X(C10H6OS3)]
 Deg. of freedom    54
 Full point group                 C1      NOp   1
 Largest Abelian subgroup         C1      NOp   1
 Largest concise Abelian subgroup C1      NOp   1
                         Standard orientation:                         
 ---------------------------------------------------------------------
 Center     Atomic      Atomic             Coordinates (Angstroms)
 Number     Number       Type             X           Y           Z
 ---------------------------------------------------------------------
      1          6           0       -3.813387    0.321866    0.410116
      2          6           0       -2.482372    0.832730    0.483201
      3          6           0       -1.513299   -0.093100    0.000032
      4          6           0       -3.901082   -0.979310   -0.112604
      5         16           0       -2.335859   -1.582781   -0.528656
      6          1           0       -4.813703   -1.537874   -0.256562
      7          6           0       -0.073693   -0.012049   -0.139268
      8         16           0        0.739142    1.510939   -0.571614
      9          6           0        2.300663    0.774245   -0.522020
     10          6           0        2.226508   -0.600083   -0.162169
     11          6           0        0.891704   -1.045641    0.072255
     12          1           0        0.652698   -2.006700    0.503563
     13         16           0        3.701203   -1.163841    0.546601
     14          6           0        4.442689    0.417221    0.362471
     15          6           0        3.559493    1.363523   -0.209990
     16          1           0        5.400038    0.656090    0.802416
     17          1           0        3.740641    2.431734   -0.164614
     18          1           0       -2.410392    1.970919    0.841899
     19          8           0       -5.113669    1.250018    0.631450
     20          1           0       -5.155046    2.380206    0.988266
 ---------------------------------------------------------------------
 Rotational constants (GHZ):           1.3924887           0.2321461           0.2069411
 Standard basis: 6-311+G(d,p) (5D, 7F)
 There are   382 symmetry adapted cartesian basis functions of A   symmetry.
 There are   368 symmetry adapted basis functions of A   symmetry.
   368 basis functions,   594 primitive gaussians,   382 cartesian basis functions
    61 alpha electrons       61 beta electrons
       nuclear repulsion energy      1087.7374048713 Hartrees.
 NAtoms=   20 NActive=   20 NUniq=   20 SFac= 1.00D+00 NAtFMM=   60 NAOKFM=F Big=F
 Integral buffers will be    131072 words long.
 Raffenetti 2 integral format.
 Two-electron integral symmetry is turned on.
 Nuclear repulsion after empirical dispersion term =     1087.7274793675 Hartrees.
 One-electron integrals computed using PRISM.
 NBasis=   368 RedAO= T EigKep=  2.56D-06  NBF=   368
 NBsUse=   367 1.00D-06 EigRej=  4.89D-07 NBFU=   367
 Initial guess from the checkpoint file:  "/tmp/pbs.4766238[140].pbs/Gau-1696324.chk"
 B after Tr=     0.000000   -0.000000   -0.000000
         Rot=    0.999990   -0.003676   -0.000797    0.002357 Ang=  -0.51 deg.
 ExpMin= 4.05D-02 ExpMax= 9.34D+04 ExpMxC= 3.17D+03 IAcc=3 IRadAn=         5 AccDes= 0.00D+00
 Harris functional with IExCor= 4639 and IRadAn=       5 diagonalized for initial guess.
 HarFok:  IExCor= 4639 AccDes= 0.00D+00 IRadAn=         5 IDoV= 1 UseB2=F ITyADJ=14
 ICtDFT=  3500011 ScaDFX=  1.000000  1.000000  1.000000  1.000000
 FoFCou: FMM=F IPFlag=           0 FMFlag=      100000 FMFlg1=           0
         NFxFlg=           0 DoJE=T BraDBF=F KetDBF=T FulRan=T
         wScrn=  0.000000 ICntrl=       500 IOpCl=  0 I1Cent=   200000004 NGrid=           0
         NMat0=    1 NMatS0=      1 NMatT0=    0 NMatD0=    1 NMtDS0=    0 NMtDT0=    0
 Petite list used in FoFCou.
 Requested convergence on RMS density matrix=1.00D-08 within 128 cycles.
 Requested convergence on MAX density matrix=1.00D-06.
 Requested convergence on             energy=1.00D-06.
 No special actions if energy rises.
 SCF Done:  E(RwB97XD) =  -1654.29688934     A.U. after   15 cycles
            NFock= 15  Conv=0.73D-08     -V/T= 2.0029
 Calling FoFJK, ICntrl=      2127 FMM=F ISym2X=0 I1Cent= 0 IOpClX= 0 NMat=1 NMatS=1 NMatT=0.
 ***** Axes restored to original set *****
 -------------------------------------------------------------------
 Center     Atomic                   Forces (Hartrees/Bohr)
 Number     Number              X              Y              Z
 -------------------------------------------------------------------
      1        6          -0.037873726    0.024793548   -0.021497356
      2        6           0.004980369    0.022271807   -0.016018649
      3        6          -0.036700204    0.017085663    0.005383536
      4        6          -0.005715575    0.044103633   -0.006190838
      5       16           0.000274845    0.024021210   -0.002552969
      6        1           0.002236634   -0.002919763   -0.000688542
      7        6           0.043183073   -0.015412703    0.013453013
      8       16          -0.010587102   -0.013343460    0.004012079
      9        6           0.008964366   -0.005914588    0.028978724
     10        6          -0.015879656    0.025630746   -0.009750136
     11        6          -0.027584562    0.024634441   -0.024485817
     12        1          -0.004065704   -0.003047230   -0.001154226
     13       16           0.007946633    0.004012125   -0.014488581
     14        6          -0.039376489    0.014927453   -0.023442080
     15        6           0.027865104   -0.012848618    0.034321237
     16        1           0.002116746   -0.006403876   -0.000476976
     17        1           0.002647148   -0.006355263   -0.004967257
     18        1           0.011588119   -0.056345166    0.016216588
     19        8           0.036079496    0.030768232   -0.008245766
     20        1           0.029900484   -0.109658193    0.031594016
 -------------------------------------------------------------------
 Cartesian Forces:  Max     0.109658193 RMS     0.025419299

 GradGradGradGradGradGradGradGradGradGradGradGradGradGradGradGradGradGrad
 Berny optimization.
 Using GEDIIS/GDIIS optimizer.
 FormGI is forming the generalized inverse of G from B-inverse, IUseBI=4.
 Internal  Forces:  Max     0.114964888 RMS     0.020412476
 Search for a local minimum.
 Step number   2 out of a maximum of  116
 All quantities printed in internal units (Hartrees-Bohrs-Radians)
 Mixed Optimization -- RFO/linear search
 Update second derivatives using D2CorX and points    1    2
 DE= -7.02D-02 DEPred=-6.53D-02 R= 1.07D+00
 TightC=F SS=  1.41D+00  RLast= 3.06D-01 DXNew= 5.0454D-01 9.1920D-01
 Trust test= 1.07D+00 RLast= 3.06D-01 DXMaxT set to 5.05D-01
 ITU=  1  0
 Use linear search instead of GDIIS.
 Linear search step of   0.600 exceeds DXMaxT=   0.505 but not scaled.
 Quartic linear search produced a step of  2.00000.
 Iteration  1 RMS(Cart)=  0.10380254 RMS(Int)=  0.01806838
 Iteration  2 RMS(Cart)=  0.02034776 RMS(Int)=  0.00036631
 Iteration  3 RMS(Cart)=  0.00010881 RMS(Int)=  0.00035860
 Iteration  4 RMS(Cart)=  0.00000003 RMS(Int)=  0.00035860
 Iteration  1 RMS(Cart)=  0.00000032 RMS(Int)=  0.00000017
 Variable       Old X    -DE/DX   Delta X   Delta X   Delta X     New X
                                 (Linear)    (Quad)   (Total)
    R1        2.69770  -0.01321  -0.04295   0.00000  -0.04254   2.65515
    R2        2.65504  -0.04717  -0.11775   0.00000  -0.11758   2.53745
    R3        3.04779  -0.10178  -0.29449   0.00000  -0.29449   2.75330
    R4        2.69226  -0.05086  -0.13361   0.00000  -0.13345   2.55881
    R5        2.25925  -0.05776  -0.18279   0.00000  -0.18279   2.07646
    R6        3.36735  -0.01986  -0.05685   0.00000  -0.05715   3.31021
    R7        2.73745  -0.00540  -0.02416   0.00000  -0.02416   2.71329
    R8        3.26611  -0.01184  -0.04120   0.00000  -0.04150   3.22462
    R9        2.04020  -0.00071  -0.00106   0.00000  -0.00106   2.03914
   R10        3.36303  -0.01396  -0.04105   0.00000  -0.04123   3.32180
   R11        2.70240  -0.05083  -0.12879   0.00000  -0.12882   2.57358
   R12        3.26410  -0.00165  -0.00920   0.00000  -0.00924   3.25486
   R13        2.68831  -0.02720  -0.06720   0.00000  -0.06682   2.62149
   R14        2.69196  -0.00062  -0.00684   0.00000  -0.00656   2.68540
   R15        2.69588  -0.00696  -0.02519   0.00000  -0.02505   2.67083
   R16        3.27032  -0.00173  -0.00832   0.00000  -0.00842   3.26190
   R17        2.04124   0.00110   0.00291   0.00000   0.00291   2.04415
   R18        3.31832  -0.01271  -0.03743   0.00000  -0.03772   3.28060
   R19        2.67464  -0.04647  -0.11538   0.00000  -0.11541   2.55923
   R20        2.04154  -0.00048  -0.00145   0.00000  -0.00145   2.04009
   R21        2.04924  -0.00225  -0.00661   0.00000  -0.00661   2.04263
   R22        2.24102  -0.11496  -0.31682   0.00000  -0.31682   1.92420
    A1        1.99178   0.01140   0.04316   0.00000   0.04369   2.03547
    A2        2.13972   0.00626   0.01425   0.00000   0.01401   2.15373
    A3        2.13377  -0.01698  -0.05404   0.00000  -0.05452   2.07925
    A4        1.96523  -0.00248  -0.01329   0.00000  -0.01272   1.95251
    A5        1.99565   0.01823   0.06462   0.00000   0.06433   2.05998
    A6        2.31784  -0.01554  -0.05008   0.00000  -0.05044   2.26740
    A7        1.90700   0.00275   0.00520   0.00000   0.00516   1.91216
    A8        2.30802  -0.00813  -0.02179   0.00000  -0.02177   2.28625
    A9        2.06802   0.00539   0.01661   0.00000   0.01663   2.08466
   A10        1.93520  -0.00845  -0.03637   0.00000  -0.03645   1.89876
   A11        2.19138   0.00788   0.03116   0.00000   0.03118   2.22257
   A12        2.15650   0.00058   0.00531   0.00000   0.00533   2.16183
   A13        1.62555  -0.00322   0.00131   0.00000   0.00031   1.62586
   A14        2.12369  -0.00443  -0.01064   0.00000  -0.01074   2.11295
   A15        2.23474  -0.00306  -0.01131   0.00000  -0.01141   2.22333
   A16        1.92424   0.00755   0.02227   0.00000   0.02240   1.94664
   A17        1.61175  -0.00554  -0.01402   0.00000  -0.01391   1.59783
   A18        1.95214  -0.00724  -0.02094   0.00000  -0.02163   1.93051
   A19        2.25072   0.00700   0.02632   0.00000   0.02561   2.27634
   A20        1.97174   0.00369   0.01281   0.00000   0.01302   1.98476
   A21        1.97367   0.00471   0.01630   0.00000   0.01633   1.99000
   A22        1.95400  -0.00874  -0.02718   0.00000  -0.02753   1.92647
   A23        2.25012   0.00712   0.02635   0.00000   0.02573   2.27585
   A24        1.96232   0.00055  -0.00346   0.00000  -0.00310   1.95923
   A25        2.15646  -0.00300  -0.00920   0.00000  -0.00950   2.14696
   A26        2.15379   0.00292   0.01546   0.00000   0.01515   2.16893
   A27        1.59437  -0.00045   0.00359   0.00000   0.00348   1.59785
   A28        1.96158   0.00245   0.00354   0.00000   0.00344   1.96502
   A29        2.13007  -0.00477  -0.01177   0.00000  -0.01212   2.11796
   A30        2.17712   0.00326   0.01360   0.00000   0.01335   2.19047
   A31        1.94276   0.00305   0.00723   0.00000   0.00756   1.95032
   A32        2.17035   0.00009   0.00647   0.00000   0.00583   2.17618
   A33        2.13820  -0.00150  -0.00417   0.00000  -0.00485   2.13335
   A34        2.23683  -0.05923  -0.20542   0.00000  -0.20542   2.03141
    D1        0.00428  -0.00072  -0.00510   0.00000  -0.00514  -0.00086
    D2        3.05771   0.00037   0.00363   0.00000   0.00453   3.06223
    D3       -2.93902  -0.00246  -0.01670   0.00000  -0.01780  -2.95683
    D4        0.11440  -0.00137  -0.00797   0.00000  -0.00814   0.10626
    D5       -0.00568   0.00029   0.00206   0.00000   0.00213  -0.00355
    D6       -3.13242  -0.00098  -0.00445   0.00000  -0.00435  -3.13677
    D7        2.93839   0.00497   0.02283   0.00000   0.02233   2.96072
    D8       -0.18835   0.00369   0.01632   0.00000   0.01586  -0.17249
    D9       -0.13063   0.00149   0.00520   0.00000   0.00489  -0.12573
   D10       -3.05799  -0.00384  -0.01962   0.00000  -0.01931  -3.07730
   D11       -0.00092   0.00086   0.00591   0.00000   0.00566   0.00474
   D12        3.12145   0.00168   0.00767   0.00000   0.00740   3.12885
   D13       -3.03295  -0.00299  -0.01385   0.00000  -0.01353  -3.04649
   D14        0.08943  -0.00217  -0.01209   0.00000  -0.01179   0.07763
   D15       -0.00193  -0.00057  -0.00397   0.00000  -0.00388  -0.00581
   D16       -3.12734  -0.00109  -0.00496   0.00000  -0.00492  -3.13226
   D17       -0.61089  -0.00123  -0.00000   0.00000   0.00000  -0.61089
   D18        2.49244   0.00127   0.01106   0.00000   0.01106   2.50349
   D19        2.51006  -0.00039   0.00173   0.00000   0.00173   2.51180
   D20       -0.66979   0.00211   0.01279   0.00000   0.01279  -0.65701
   D21        0.00430   0.00015   0.00109   0.00000   0.00092   0.00523
   D22        3.13140   0.00147   0.00777   0.00000   0.00740   3.13880
   D23        3.13977   0.00081   0.00395   0.00000   0.00400  -3.13942
   D24        0.03029  -0.00112  -0.00471   0.00000  -0.00488   0.02542
   D25        3.14054  -0.00155  -0.00814   0.00000  -0.00804   3.13250
   D26       -0.15265   0.00212   0.01263   0.00000   0.01257  -0.14008
   D27       -0.03576   0.00052   0.00131   0.00000   0.00161  -0.03415
   D28        2.95424   0.00419   0.02208   0.00000   0.02222   2.97646
   D29       -0.01727   0.00173   0.00788   0.00000   0.00772  -0.00955
   D30       -2.63312  -0.00635  -0.03332   0.00000  -0.03343  -2.66655
   D31       -0.00034  -0.00146  -0.00782   0.00000  -0.00765  -0.00799
   D32       -2.71000  -0.00929  -0.04420   0.00000  -0.04308  -2.75308
   D33        2.70355   0.00698   0.03300   0.00000   0.03230   2.73585
   D34       -0.00611  -0.00086  -0.00338   0.00000  -0.00313  -0.00924
   D35        2.63196   0.00616   0.03599   0.00000   0.03677   2.66873
   D36       -0.24583  -0.00032  -0.00041   0.00000  -0.00006  -0.24589
   D37        0.02082   0.00061   0.00285   0.00000   0.00271   0.02353
   D38       -2.85698  -0.00587  -0.03356   0.00000  -0.03411  -2.89109
   D39        0.02382   0.00060   0.00403   0.00000   0.00391   0.02774
   D40       -2.96645  -0.00247  -0.01406   0.00000  -0.01448  -2.98093
   D41        2.64291   0.00505   0.03029   0.00000   0.03105   2.67395
   D42       -0.34736   0.00198   0.01220   0.00000   0.01265  -0.33471
   D43       -0.00763   0.00088   0.00278   0.00000   0.00264  -0.00499
   D44       -2.63139  -0.00667  -0.03385   0.00000  -0.03360  -2.66499
   D45        0.01969  -0.00044  -0.00092   0.00000  -0.00093   0.01876
   D46        2.98763   0.00560   0.03144   0.00000   0.03101   3.01864
   D47       -0.02643   0.00007  -0.00067   0.00000  -0.00053  -0.02696
   D48        2.85703   0.00668   0.03692   0.00000   0.03707   2.89410
   D49       -2.98884  -0.00522  -0.03077   0.00000  -0.03100  -3.01985
   D50       -0.10538   0.00138   0.00682   0.00000   0.00660  -0.09878
         Item               Value     Threshold  Converged?
 Maximum Force            0.114965     0.000450     NO 
 RMS     Force            0.020509     0.000300     NO 
 Maximum Displacement     0.711884     0.001800     NO 
 RMS     Displacement     0.116535     0.001200     NO 
 Predicted change in Energy=-1.034419D-01
 GradGradGradGradGradGradGradGradGradGradGradGradGradGradGradGradGradGrad

                          Input orientation:                          
 ---------------------------------------------------------------------
 Center     Atomic      Atomic             Coordinates (Angstroms)
 Number     Number       Type             X           Y           Z
 ---------------------------------------------------------------------
      1          6           0       -4.164265   -1.375353   -0.254336
      2          6           0       -2.873260   -0.977387   -0.640450
      3          6           0       -1.999500   -2.011619   -0.620440
      4          6           0       -4.325449   -2.670436    0.061565
      5         16           0       -2.829541   -3.470953   -0.120664
      6          1           0       -5.235045   -3.159638    0.374147
      7          6           0       -0.602571   -2.070850   -0.946999
      8         16           0        0.068800   -1.088745   -2.241090
      9          6           0        1.645346   -1.727845   -1.971446
     10          6           0        1.630674   -2.638645   -0.925193
     11          6           0        0.358999   -2.815723   -0.334408
     12          1           0        0.182696   -3.371493    0.576718
     13         16           0        3.210640   -2.804009   -0.250020
     14          6           0        3.864964   -1.661248   -1.381265
     15          6           0        2.924450   -1.159306   -2.216476
     16          1           0        4.883097   -1.311371   -1.300858
     17          1           0        3.102175   -0.284121   -2.825444
     18          1           0       -2.731408    0.058986   -0.976903
     19          8           0       -5.341131   -0.528485   -0.397862
     20          1           0       -5.174670    0.431240   -0.694576
 ---------------------------------------------------------------------
                    Distance matrix (angstroms):
                    1          2          3          4          5
     1  C    0.000000
     2  C    1.405046   0.000000
     3  C    2.285841   1.354064   0.000000
     4  C    1.342763   2.338395   2.511814   0.000000
     5  S    2.488151   2.547540   1.751685   1.706393   0.000000
     6  H    2.173760   3.371891   3.574339   1.079069   2.475520
     7  C    3.694477   2.538831   1.435814   3.903399   2.757266
     8  S    4.684888   3.351144   2.784972   5.207052   4.309467
     9  C    6.068302   4.769962   3.897518   6.377461   5.146692
    10  C    5.968858   4.808978   3.696512   6.037392   4.607985
    11  C    4.747736   3.731037   2.508171   4.703399   3.262178
    12  H    4.855028   4.068428   2.836270   4.591322   3.093511
    13  S    7.512010   6.364182   5.283053   7.543710   6.078268
    14  C    8.112967   6.813233   5.923982   8.377535   7.048443
    15  C    7.358433   6.010856   5.245860   7.748162   6.545575
    16  H    9.107912   7.791583   6.951508   9.407475   8.095767
    17  H    7.784763   6.400050   5.820084   8.318589   7.256514
    18  H    2.152327   1.098814   2.224895   3.327030   3.633627
    19  O    1.456983   2.520070   3.662748   2.414671   3.878536
    20  H    2.116249   2.698824   4.006839   3.303531   4.588695
                    6          7          8          9         10
     6  H    0.000000
     7  C    4.938694   0.000000
     8  S    6.265687   1.757823   0.000000
     9  C    7.408887   2.494048   1.722398   0.000000
    10  C    7.006983   2.304398   2.563830   1.387234   0.000000
    11  C    5.649217   1.361882   2.588842   2.349055   1.413343
    12  H    5.425664   2.151751   3.628216   3.366610   2.211208
    13  S    8.476181   3.945108   4.096052   2.563509   1.726121
    14  C    9.388120   4.507242   3.934199   2.297707   2.481000
    15  C    8.791473   3.857766   2.856627   1.421050   2.351534
    16  H   10.421062   5.549287   4.910301   3.332593   3.532851
    17  H    9.381642   4.521736   3.192217   2.221712   3.364528
    18  H    4.295704   3.011485   3.279729   4.830927   5.129098
    19  O    2.744124   5.013421   5.742712   7.261232   7.303213
    20  H    3.747028   5.218071   5.674155   7.266682   7.469276
                   11         12         13         14         15
    11  C    0.000000
    12  H    1.081718   0.000000
    13  S    2.852913   3.189667   0.000000
    14  C    3.836732   4.507520   1.736017   0.000000
    15  C    3.587120   4.495878   2.579515   1.354286   0.000000
    16  H    4.864624   5.464720   2.475751   1.079571   2.167436
    17  H    4.487681   5.443338   3.604775   2.136347   1.080915
    18  H    4.269352   4.761715   6.635739   6.828971   5.916883
    19  O    6.142229   6.288495   8.850574   9.327509   8.486761
    20  H    6.426040   6.691662   8.998771   9.304034   8.392958
                   16         17         18         19         20
    16  H    0.000000
    17  H    2.559549   0.000000
    18  H    7.743611   6.129072   0.000000
    19  O   10.293841   8.788759   2.736981   0.000000
    20  H   10.225603   8.576625   2.487531   1.018244   0.000000
 Stoichiometry    C10H6OS3
 Framework group  C1[X(C10H6OS3)]
 Deg. of freedom    54
 Full point group                 C1      NOp   1
 Largest Abelian subgroup         C1      NOp   1
 Largest concise Abelian subgroup C1      NOp   1
                         Standard orientation:                         
 ---------------------------------------------------------------------
 Center     Atomic      Atomic             Coordinates (Angstroms)
 Number     Number       Type             X           Y           Z
 ---------------------------------------------------------------------
      1          6           0       -3.724267    0.343206    0.396474
      2          6           0       -2.407659    0.828255    0.470137
      3          6           0       -1.511035   -0.073873    0.005680
      4          6           0       -3.883218   -0.892234   -0.104959
      5         16           0       -2.351366   -1.516987   -0.523156
      6          1           0       -4.809381   -1.428499   -0.242918
      7          6           0       -0.082451   -0.003145   -0.119643
      8         16           0        0.718556    1.507425   -0.527697
      9          6           0        2.266774    0.754372   -0.476833
     10          6           0        2.146345   -0.587886   -0.147809
     11          6           0        0.815363   -1.008888    0.073055
     12          1           0        0.540791   -1.975088    0.474531
[...]
 Framework group  C1[X(C10H6OS3)]
 Deg. of freedom    54
 Full point group                 C1      NOp   1
 Largest Abelian subgroup         C1      NOp   1
 Largest concise Abelian subgroup C1      NOp   1
                         Standard orientation:                         
 ---------------------------------------------------------------------
 Center     Atomic      Atomic             Coordinates (Angstroms)
 Number     Number       Type             X           Y           Z
 ---------------------------------------------------------------------
      1          6           0       -3.808259    0.395116    0.250579
      2          6           0       -2.463238    0.850568    0.365626
      3          6           0       -1.552094   -0.101489   -0.000640
      4          6           0       -3.902759   -0.887879   -0.196028
      5         16           0       -2.344442   -1.555560   -0.504531
      6          1           0       -4.800353   -1.461834   -0.361779
      7          6           0       -0.100321   -0.002884   -0.004405
      8         16           0        0.665613    1.522009   -0.406111
      9          6           0        2.236415    0.831472   -0.177886
     10          6           0        2.142247   -0.503242    0.164755
     11          6           0        0.808883   -0.984339    0.269503
     12          1           0        0.528401   -1.988890    0.555298
     13         16           0        3.713331   -1.193380    0.391710
     14          6           0        4.463843    0.327581    0.018523
     15          6           0        3.573085    1.315176   -0.263628
     16          1           0        5.541098    0.399948    0.028647
     17          1           0        3.857400    2.326188   -0.518705
     18          1           0       -2.182891    1.830732    0.733026
     19          8           0       -4.905745    1.134392    0.558491
     20          1           0       -4.636520    2.009130    0.840109
 ---------------------------------------------------------------------
 Rotational constants (GHZ):           1.5207081           0.2388365           0.2116885

 **********************************************************************

            Population analysis using the SCF Density.

 **********************************************************************

 Orbital symmetries:
       Occupied  (A) (A) (A) (A) (A) (A) (A) (A) (A) (A) (A) (A)
                 (A) (A) (A) (A) (A) (A) (A) (A) (A) (A) (A) (A)
                 (A) (A) (A) (A) (A) (A) (A) (A) (A) (A) (A) (A)
                 (A) (A) (A) (A) (A) (A) (A) (A) (A) (A) (A) (A)
                 (A) (A) (A) (A) (A) (A) (A) (A) (A) (A) (A) (A)
                 (A)
       Virtual   (A) (A) (A) (A) (A) (A) (A) (A) (A) (A) (A) (A)
                 (A) (A) (A) (A) (A) (A) (A) (A) (A) (A) (A) (A)
                 (A) (A) (A) (A) (A) (A) (A) (A) (A) (A) (A) (A)
                 (A) (A) (A) (A) (A) (A) (A) (A) (A) (A) (A) (A)
                 (A) (A) (A) (A) (A) (A) (A) (A) (A) (A) (A) (A)
                 (A) (A) (A) (A) (A) (A) (A) (A) (A) (A) (A) (A)
                 (A) (A) (A) (A) (A) (A) (A) (A) (A) (A) (A) (A)
                 (A) (A) (A) (A) (A) (A) (A) (A) (A) (A) (A) (A)
                 (A) (A) (A) (A) (A) (A) (A) (A) (A) (A) (A) (A)
                 (A) (A) (A) (A) (A) (A) (A) (A) (A) (A) (A) (A)
                 (A) (A) (A) (A) (A) (A) (A) (A) (A) (A) (A) (A)
                 (A) (A) (A) (A) (A) (A) (A) (A) (A) (A) (A) (A)
                 (A) (A) (A) (A) (A) (A) (A) (A) (A) (A) (A) (A)
                 (A) (A) (A) (A) (A) (A) (A) (A) (A) (A) (A) (A)
                 (A) (A) (A) (A) (A) (A) (A) (A) (A) (A) (A) (A)
                 (A) (A) (A) (A) (A) (A) (A) (A) (A) (A) (A) (A)
                 (A) (A) (A) (A) (A) (A) (A) (A) (A) (A) (A) (A)
                 (A) (A) (A) (A) (A) (A) (A) (A) (A) (A) (A) (A)
                 (A) (A) (A) (A) (A) (A) (A) (A) (A) (A) (A) (A)
                 (A) (A) (A) (A) (A) (A) (A) (A) (A) (A) (A) (A)
                 (A) (A) (A) (A) (A) (A) (A) (A) (A) (A) (A) (A)
                 (A) (A) (A) (A) (A) (A) (A) (A) (A) (A) (A) (A)
                 (A) (A) (A) (A) (A) (A) (A) (A) (A) (A) (A) (A)
                 (A) (A) (A) (A) (A) (A) (A) (A) (A) (A) (A) (A)
                 (A) (A) (A) (A) (A) (A) (A) (A) (A) (A) (A) (A)
                 (A) (A) (A) (A) (A)
 The electronic state is 1-A.
 Alpha  occ. eigenvalues --  -89.05541 -89.05423 -89.05262 -19.28822 -10.35854
 Alpha  occ. eigenvalues --  -10.34275 -10.34102 -10.32845 -10.32781 -10.32670
 Alpha  occ. eigenvalues --  -10.30949 -10.30868 -10.30841 -10.30279  -8.09587
 Alpha  occ. eigenvalues --   -8.09467  -8.09323  -6.04445  -6.04316  -6.04164
 Alpha  occ. eigenvalues --   -6.04074  -6.03942  -6.03781  -6.03627  -6.03530
 Alpha  occ. eigenvalues --   -6.03407  -1.17906  -1.02687  -0.99946  -0.95694
 Alpha  occ. eigenvalues --   -0.87579  -0.86354  -0.84305  -0.81430  -0.80372
 Alpha  occ. eigenvalues --   -0.72492  -0.67970  -0.67090  -0.64685  -0.63747
 Alpha  occ. eigenvalues --   -0.62350  -0.58953  -0.57099  -0.52525  -0.52465
 Alpha  occ. eigenvalues --   -0.52072  -0.51027  -0.50094  -0.48112  -0.47871
 Alpha  occ. eigenvalues --   -0.46301  -0.45542  -0.45286  -0.43616  -0.42589
 Alpha  occ. eigenvalues --   -0.42420  -0.37427  -0.34377  -0.31744  -0.31154
 Alpha  occ. eigenvalues --   -0.27943
 Alpha virt. eigenvalues --    0.00212   0.04868   0.05255   0.05529   0.06067
 Alpha virt. eigenvalues --    0.06765   0.07505   0.07563   0.07777   0.08541
 Alpha virt. eigenvalues --    0.09079   0.09455   0.09846   0.10041   0.10153
 Alpha virt. eigenvalues --    0.10779   0.11642   0.11893   0.12428   0.12876
 Alpha virt. eigenvalues --    0.13346   0.13678   0.13981   0.14683   0.15008
 Alpha virt. eigenvalues --    0.15824   0.16123   0.16583   0.17324   0.17440
 Alpha virt. eigenvalues --    0.17923   0.18565   0.18823   0.18925   0.19657
 Alpha virt. eigenvalues --    0.20122   0.20342   0.20916   0.21149   0.21622
 Alpha virt. eigenvalues --    0.22351   0.22610   0.23289   0.23456   0.23492
 Alpha virt. eigenvalues --    0.24184   0.24536   0.24704   0.25360   0.25772
 Alpha virt. eigenvalues --    0.26155   0.26574   0.27223   0.27625   0.27947
 Alpha virt. eigenvalues --    0.28382   0.28607   0.28959   0.29448   0.30132
 Alpha virt. eigenvalues --    0.30766   0.30911   0.31687   0.32891   0.33131
 Alpha virt. eigenvalues --    0.33703   0.34370   0.35015   0.35740   0.36920
 Alpha virt. eigenvalues --    0.37539   0.38173   0.39339   0.39635   0.40358
 Alpha virt. eigenvalues --    0.40606   0.41692   0.41982   0.42552   0.42855
 Alpha virt. eigenvalues --    0.44156   0.46243   0.47091   0.47332   0.49426
 Alpha virt. eigenvalues --    0.50457   0.51962   0.52391   0.53708   0.55318
 Alpha virt. eigenvalues --    0.56442   0.59290   0.61017   0.62326   0.62783
 Alpha virt. eigenvalues --    0.63215   0.63489   0.63916   0.65061   0.66370
 Alpha virt. eigenvalues --    0.66857   0.67651   0.68022   0.69349   0.70074
 Alpha virt. eigenvalues --    0.70706   0.72233   0.73140   0.74117   0.76071
 Alpha virt. eigenvalues --    0.77367   0.78114   0.78582   0.79301   0.80241
 Alpha virt. eigenvalues --    0.80909   0.82006   0.82991   0.83674   0.83916
 Alpha virt. eigenvalues --    0.84687   0.86391   0.86914   0.86983   0.87268
 Alpha virt. eigenvalues --    0.90137   0.90483   0.90652   0.91892   0.92427
 Alpha virt. eigenvalues --    0.93188   0.93400   0.95152   0.95690   0.96520
 Alpha virt. eigenvalues --    0.97137   0.98145   0.98263   1.00992   1.01572
 Alpha virt. eigenvalues --    1.02864   1.04277   1.04947   1.06045   1.07262
 Alpha virt. eigenvalues --    1.10372   1.11414   1.12021   1.12921   1.13952
 Alpha virt. eigenvalues --    1.14748   1.15102   1.16439   1.17240   1.19560
 Alpha virt. eigenvalues --    1.21485   1.22192   1.22582   1.25596   1.27006
 Alpha virt. eigenvalues --    1.28718   1.31159   1.34210   1.34952   1.42789
 Alpha virt. eigenvalues --    1.43963   1.44959   1.46596   1.49978   1.50946
 Alpha virt. eigenvalues --    1.52035   1.59693   1.61847   1.63901   1.64343
 Alpha virt. eigenvalues --    1.66738   1.66963   1.67978   1.68590   1.69311
 Alpha virt. eigenvalues --    1.71793   1.73854   1.75121   1.76734   1.77338
 Alpha virt. eigenvalues --    1.79620   1.80834   1.81975   1.82655   1.83766
 Alpha virt. eigenvalues --    1.85235   1.87831   1.89279   1.90532   1.93006
 Alpha virt. eigenvalues --    1.95150   1.95542   1.97813   1.99497   1.99827
 Alpha virt. eigenvalues --    2.03925   2.04944   2.06034   2.07080   2.08803
 Alpha virt. eigenvalues --    2.10194   2.10985   2.11636   2.13118   2.14103
 Alpha virt. eigenvalues --    2.15300   2.17252   2.17634   2.18740   2.21075
 Alpha virt. eigenvalues --    2.21831   2.24444   2.26106   2.27050   2.28237
 Alpha virt. eigenvalues --    2.31563   2.37396   2.39579   2.44282   2.49449
 Alpha virt. eigenvalues --    2.50934   2.52837   2.59547   2.62186   2.67822
 Alpha virt. eigenvalues --    2.71276   2.75717   2.77649   2.78232   2.79743
 Alpha virt. eigenvalues --    2.80716   2.81565   2.82321   2.83252   2.85430
 Alpha virt. eigenvalues --    2.86431   2.87713   2.92443   2.95677   2.99900
 Alpha virt. eigenvalues --    3.01527   3.05112   3.05145   3.09201   3.12308
 Alpha virt. eigenvalues --    3.16696   3.17695   3.22167   3.24386   3.27094
 Alpha virt. eigenvalues --    3.28247   3.31758   3.37590   3.38741   3.40509
 Alpha virt. eigenvalues --    3.44114   3.46268   3.53712   3.56382   3.57902
 Alpha virt. eigenvalues --    3.66200   3.71882   3.75032   3.95145   3.97621
 Alpha virt. eigenvalues --    4.06685   4.18480   4.21831   4.31110   4.46496
 Alpha virt. eigenvalues --    4.64043   5.11256   5.53946   5.86433   8.09139
 Alpha virt. eigenvalues --    8.10455   8.11835  17.41562  17.42541  17.43680
 Alpha virt. eigenvalues --   17.59513  17.61447  17.64761  17.65998  17.68117
 Alpha virt. eigenvalues --   17.70263  23.60407  23.76504  23.89030  23.94103
 Alpha virt. eigenvalues --   23.98295  24.17093  24.23530  24.25700  24.27902
 Alpha virt. eigenvalues --   24.29657  50.07886 189.33878 189.35465 189.37236
          Condensed to atoms (all electrons):
               1          2          3          4          5          6
     1  C    8.764514  -1.825628  -0.324897  -0.666794   0.785086   0.046367
     2  C   -1.825628  12.486171  -2.229145   0.578219  -2.425485  -0.040930
     3  C   -0.324897  -2.229145   9.326296  -0.627002   0.460378   0.031531
     4  C   -0.666794   0.578219  -0.627002   7.063189  -0.637167   0.378825
     5  S    0.785086  -2.425485   0.460378  -0.637167  17.438110  -0.034397
     6  H    0.046367  -0.040930   0.031531   0.378825  -0.034397   0.439934
     7  C    0.050632  -0.783128   0.078297  -0.152390   0.600549  -0.002937
     8  S   -0.086171   0.221935   0.250055   0.075464   0.018049  -0.000503
     9  C    0.033608  -0.468961  -0.697482  -0.028947   0.124012  -0.000131
    10  C   -0.008648  -0.084860   0.229343  -0.008328   0.019239  -0.000057
    11  C   -0.167592  -0.027770  -1.104246  -0.121441   0.069089  -0.000063
    12  H   -0.002279   0.004229   0.027733   0.002619  -0.001570   0.000001
    13  S   -0.000661   0.011727  -0.001685   0.000335  -0.013464   0.000004
    14  C    0.000183   0.001213  -0.033948  -0.000069   0.001994  -0.000001
    15  C   -0.008377  -0.092029   0.202612   0.006809   0.001783  -0.000008
    16  H   -0.000001  -0.000013  -0.000081  -0.000000   0.000004   0.000000
    17  H    0.000003  -0.000080  -0.000694  -0.000001   0.000023   0.000000
    18  H   -0.023937   0.276787   0.121523  -0.054147   0.017649  -0.000001
    19  O    0.182923   0.035812   0.038528  -0.259391   0.014353  -0.004692
    20  H    0.030399  -0.093780  -0.018793   0.104040  -0.007686   0.000260
               7          8          9         10         11         12
     1  C    0.050632  -0.086171   0.033608  -0.008648  -0.167592  -0.002279
     2  C   -0.783128   0.221935  -0.468961  -0.084860  -0.027770   0.004229
     3  C    0.078297   0.250055  -0.697482   0.229343  -1.104246   0.027733
     4  C   -0.152390   0.075464  -0.028947  -0.008328  -0.121441   0.002619
     5  S    0.600549   0.018049   0.124012   0.019239   0.069089  -0.001570
     6  H   -0.002937  -0.000503  -0.000131  -0.000057  -0.000063   0.000001
     7  C   10.383382   0.229625  -1.543993  -1.760376  -0.376858   0.012247
     8  S    0.229625  17.758534  -0.665564  -0.238308  -0.784838   0.010197
     9  C   -1.543993  -0.665564  15.240855  -4.983519   0.756704  -0.059168
    10  C   -1.760376  -0.238308  -4.983519  12.637760  -0.341420  -0.000079
    11  C   -0.376858  -0.784838   0.756704  -0.341420   9.240747   0.345284
    12  H    0.012247   0.010197  -0.059168  -0.000079   0.345284   0.471269
    13  S   -1.006988   0.119136   0.304069  -0.523971  -0.171887   0.007677
    14  C   -0.183876  -0.047094   0.639141  -0.857499   0.053414  -0.002218
    15  C    0.110655  -0.337665  -3.108811   1.857445  -1.283083   0.011145
    16  H    0.004869  -0.000879   0.020804   0.026363   0.000402  -0.000003
    17  H   -0.007846   0.012267   0.010980  -0.049834   0.003401   0.000002
    18  H    0.019912   0.007134   0.004071  -0.002677  -0.009883   0.000020
    19  O    0.004562   0.001084  -0.000036  -0.000672   0.002825  -0.000001
    20  H   -0.001102   0.000711  -0.000148  -0.000011  -0.000630  -0.000000
              13         14         15         16         17         18
     1  C   -0.000661   0.000183  -0.008377  -0.000001   0.000003  -0.023937
     2  C    0.011727   0.001213  -0.092029  -0.000013  -0.000080   0.276787
     3  C   -0.001685  -0.033948   0.202612  -0.000081  -0.000694   0.121523
     4  C    0.000335  -0.000069   0.006809  -0.000000  -0.000001  -0.054147
     5  S   -0.013464   0.001994   0.001783   0.000004   0.000023   0.017649
     6  H    0.000004  -0.000001  -0.000008   0.000000   0.000000  -0.000001
     7  C   -1.006988  -0.183876   0.110655   0.004869  -0.007846   0.019912
     8  S    0.119136  -0.047094  -0.337665  -0.000879   0.012267   0.007134
     9  C    0.304069   0.639141  -3.108811   0.020804   0.010980   0.004071
    10  C   -0.523971  -0.857499   1.857445   0.026363  -0.049834  -0.002677
    11  C   -0.171887   0.053414  -1.283083   0.000402   0.003401  -0.009883
    12  H    0.007677  -0.002218   0.011145  -0.000003   0.000002   0.000020
    13  S   17.577293   0.424123  -0.237875  -0.042348   0.007787  -0.000119
    14  C    0.424123   5.568846   0.160907   0.389679   0.025415  -0.000055
    15  C   -0.237875   0.160907   8.734424  -0.030898   0.358806   0.000084
    16  H   -0.042348   0.389679  -0.030898   0.441055  -0.003551  -0.000000
    17  H    0.007787   0.025415   0.358806  -0.003551   0.480394  -0.000000
    18  H   -0.000119  -0.000055   0.000084  -0.000000  -0.000000   0.492599
    19  O   -0.000032  -0.000004   0.000055   0.000000   0.000000  -0.003636
    20  H   -0.000001   0.000001  -0.000007  -0.000000  -0.000000   0.002267
              19         20
     1  C    0.182923   0.030399
     2  C    0.035812  -0.093780
     3  C    0.038528  -0.018793
     4  C   -0.259391   0.104040
     5  S    0.014353  -0.007686
     6  H   -0.004692   0.000260
     7  C    0.004562  -0.001102
     8  S    0.001084   0.000711
     9  C   -0.000036  -0.000148
    10  C   -0.000672  -0.000011
    11  C    0.002825  -0.000630
    12  H   -0.000001  -0.000000
    13  S   -0.000032  -0.000001
    14  C   -0.000004   0.000001
    15  C    0.000055  -0.000007
    16  H    0.000000  -0.000000
    17  H    0.000000  -0.000000
    18  H   -0.003636   0.002267
    19  O    7.994417   0.264820
    20  H    0.264820   0.455488
 Mulliken charges:
               1
     1  C   -0.778729
     2  C    0.455715
     3  C    0.271678
     4  C    0.346178
     5  S   -0.430548
     6  H    0.186798
     7  C    0.324763
     8  S   -0.543168
     9  C    0.422515
    10  C    0.090107
    11  C   -0.082156
    12  H    0.172895
    13  S   -0.453118
    14  C   -0.140152
    15  C   -0.345974
    16  H    0.194599
    17  H    0.162929
    18  H    0.152410
    19  O   -0.270916
    20  H    0.264175
 Sum of Mulliken charges =  -0.00000
 Mulliken charges with hydrogens summed into heavy atoms:
               1
     1  C   -0.778729
     2  C    0.608124
     3  C    0.271678
     4  C    0.532976
     5  S   -0.430548
     7  C    0.324763
     8  S   -0.543168
     9  C    0.422515
    10  C    0.090107
    11  C    0.090739
    13  S   -0.453118
    14  C    0.054447
    15  C   -0.183046
    19  O   -0.006741
 Electronic spatial extent (au):  <R**2>=           4743.6803
 Charge=             -0.0000 electrons
 Dipole moment (field-independent basis, Debye):
    X=              1.1279    Y=              1.4805    Z=              0.5385  Tot=              1.9375
 Quadrupole moment (field-independent basis, Debye-Ang):
   XX=            -96.3174   YY=            -91.7655   ZZ=           -106.5646
   XY=             -0.1269   XZ=             -1.7593   YZ=              1.4297
 Traceless Quadrupole moment (field-independent basis, Debye-Ang):
   XX=              1.8984   YY=              6.4504   ZZ=             -8.3487
   XY=             -0.1269   XZ=             -1.7593   YZ=              1.4297
 Octapole moment (field-independent basis, Debye-Ang**2):
  XXX=             78.1325  YYY=             19.0938  ZZZ=              2.7604  XYY=            -26.5115
  XXY=             22.0597  XXZ=             -1.7493  XZZ=            -11.1237  YZZ=              3.2458
  YYZ=              5.3088  XYZ=            -17.6080
 Hexadecapole moment (field-independent basis, Debye-Ang**3):
 XXXX=          -5226.0410 YYYY=           -816.5808 ZZZZ=           -210.8131 XXXY=             70.1011
 XXXZ=              7.0918 YYYX=            -54.4031 YYYZ=             10.2629 ZZZX=            -12.9577
 ZZZY=              6.4515 XXYY=           -893.2926 XXZZ=           -985.0762 YYZZ=           -179.6347
 XXYZ=             39.3475 YYXZ=            -31.5311 ZZXY=            -21.2580
 N-N= 1.110083540620D+03 E-N=-6.131419161932D+03  KE= 1.651140992929D+03
 Unable to Open any file for archive entry.
 1\1\GINC-CX3-11-7\FOpt\RwB97XD\6-311+G(d,p)\C10H6O1S3\NS5018\26-Oct-20
 21\0\\# opt=modredundant wb97xd/6-311+g(d,p)\\pg2T_TT_-35.pdb\\0,1\C,-
 4.2831157767,-1.4019360316,-0.384963421\C,-2.9550063621,-0.9896084109,
 -0.6945815372\C,-2.04988071,-2.0099255199,-0.5923701624\C,-4.370773668
 6,-2.7194066749,-0.0517188738\S,-2.8292077028,-3.4852336192,-0.1317625
 988\H,-5.2552232834,-3.2696023982,0.2268600645\C,-0.6134805864,-1.9643
 264773,-0.8205334438\S,0.0346862047,-0.9198525328,-2.0704428453\C,1.65
 00006972,-1.4141977611,-1.6926504768\C,1.6536901223,-2.347234386,-0.67
 42385604\C,0.362993579,-2.6622258565,-0.1690981605\H,0.1608329517,-3.3
 442480413,0.6454247072\S,3.2691245534,-2.8419395819,-0.2977531285\C,3.
 9053621824,-1.7849329383,-1.5199639362\C,2.9460024615,-1.0867932255,-2
 .1837652757\H,4.9726970552,-1.7447668052,-1.6780765944\H,3.1551374947,
 -0.3827823501,-2.9766562503\H,-2.6784617855,0.0260581783,-0.9519616259
 \O,-5.3704337492,-0.5874619926,-0.3986374073\H,-5.1099436773,0.2934164
 252,-0.6691104733\\Version=ES64L-G16RevC.01\State=1-A\HF=-1654.4125829
 \RMSD=4.018e-09\RMSF=2.181e-05\Dipole=0.4387529,0.5933426,-0.1911119\Q
 uadrupole=1.0273519,2.5660634,-3.5934153,-1.2933792,-1.7500944,-4.4268
 108\PG=C01 [X(C10H6O1S3)]\\@
 The archive entry for this job was punched.


 NEVER LISTEN TO CRITICISM
 OR YOU'LL BE DOIN' EVERYBODY ELSE'S THING BUT BUT YOUR OWN.

                                               -- ANDY CAPP
 Job cpu time:       0 days  4 hours 39 minutes 41.9 seconds.
 Elapsed time:       0 days  0 hours 35 minutes 14.3 seconds.
 File lengths (MBytes):  RWF=     86 Int=      0 D2E=      0 Chk=     11 Scr=      1
 Normal termination of Gaussian 16 at Tue Oct 26 23:29:06 2021.
