 Entering Gaussian System, Link 0=g16
 Input=pg2T_TT_-5.gjf
 Output=pg2T_TT_-5.log
 Initial command:
 /apps/gaussian/g16-c01-avx/g16/l1.exe "/tmp/pbs.4766238[170].pbs/Gau-1600062.inp" -scrdir="/tmp/pbs.4766238[170].pbs/"
 Entering Link 1 = /apps/gaussian/g16-c01-avx/g16/l1.exe PID=   1600063.
  
 Copyright (c) 1988-2019, Gaussian, Inc.  All Rights Reserved.
  
 This is part of the Gaussian(R) 16 program.  It is based on
 the Gaussian(R) 09 system (copyright 2009, Gaussian, Inc.),
 the Gaussian(R) 03 system (copyright 2003, Gaussian, Inc.),
 the Gaussian(R) 98 system (copyright 1998, Gaussian, Inc.),
 the Gaussian(R) 94 system (copyright 1995, Gaussian, Inc.),
 the Gaussian 92(TM) system (copyright 1992, Gaussian, Inc.),
 the Gaussian 90(TM) system (copyright 1990, Gaussian, Inc.),
 the Gaussian 88(TM) system (copyright 1988, Gaussian, Inc.),
 the Gaussian 86(TM) system (copyright 1986, Carnegie Mellon
 University), and the Gaussian 82(TM) system (copyright 1983,
 Carnegie Mellon University). Gaussian is a federally registered
 trademark of Gaussian, Inc.
  
 This software contains proprietary and confidential information,
 including trade secrets, belonging to Gaussian, Inc.
  
 This software is provided under written license and may be
 used, copied, transmitted, or stored only in accord with that
 written license.
  
 The following legend is applicable only to US Government
 contracts under FAR:
  
                    RESTRICTED RIGHTS LEGEND
  
 Use, reproduction and disclosure by the US Government is
 subject to restrictions as set forth in subparagraphs (a)
 and (c) of the Commercial Computer Software - Restricted
 Rights clause in FAR 52.227-19.
  
 Gaussian, Inc.
 340 Quinnipiac St., Bldg. 40, Wallingford CT 06492
  
  
 ---------------------------------------------------------------
 Warning -- This program may not be used in any manner that
 competes with the business of Gaussian, Inc. or will provide
 assistance to any competitor of Gaussian, Inc.  The licensee
 of this program is prohibited from giving any competitor of
 Gaussian, Inc. access to this program.  By using this program,
 the user acknowledges that Gaussian, Inc. is engaged in the
 business of creating and licensing software in the field of
 computational chemistry and represents and warrants to the
 licensee that it is not a competitor of Gaussian, Inc. and that
 it will not use this program in any manner prohibited above.
 ---------------------------------------------------------------
  

 Cite this work as:
 Gaussian 16, Revision C.01,
 M. J. Frisch, G. W. Trucks, H. B. Schlegel, G. E. Scuseria, 
 M. A. Robb, J. R. Cheeseman, G. Scalmani, V. Barone, 
 G. A. Petersson, H. Nakatsuji, X. Li, M. Caricato, A. V. Marenich, 
 J. Bloino, B. G. Janesko, R. Gomperts, B. Mennucci, H. P. Hratchian, 
 J. V. Ortiz, A. F. Izmaylov, J. L. Sonnenberg, D. Williams-Young, 
 F. Ding, F. Lipparini, F. Egidi, J. Goings, B. Peng, A. Petrone, 
 T. Henderson, D. Ranasinghe, V. G. Zakrzewski, J. Gao, N. Rega, 
 G. Zheng, W. Liang, M. Hada, M. Ehara, K. Toyota, R. Fukuda, 
 J. Hasegawa, M. Ishida, T. Nakajima, Y. Honda, O. Kitao, H. Nakai, 
 T. Vreven, K. Throssell, J. A. Montgomery, Jr., J. E. Peralta, 
 F. Ogliaro, M. J. Bearpark, J. J. Heyd, E. N. Brothers, K. N. Kudin, 
 V. N. Staroverov, T. A. Keith, R. Kobayashi, J. Normand, 
 K. Raghavachari, A. P. Rendell, J. C. Burant, S. S. Iyengar, 
 J. Tomasi, M. Cossi, J. M. Millam, M. Klene, C. Adamo, R. Cammi, 
 J. W. Ochterski, R. L. Martin, K. Morokuma, O. Farkas, 
 J. B. Foresman, and D. J. Fox, Gaussian, Inc., Wallingford CT, 2019.
 
 ******************************************
 Gaussian 16:  ES64L-G16RevC.01  3-Jul-2019
                26-Oct-2021 
 ******************************************
 %mem=10GB
 %nprocshared=8
 Will use up to    8 processors via shared memory.
 --------------------------------------
 # opt=modredundant wb97xd/6-311+g(d,p)
 --------------------------------------
 1/18=120,19=15,26=3,38=1/1,3;
 2/9=110,12=2,17=6,18=5,40=1/2;
 3/5=4,6=6,7=111,11=2,25=1,30=1,71=1,74=-58/1,2,3;
 4//1;
 5/5=2,38=5/2;
 6/7=2,8=2,9=2,10=2,28=1/1;
 7//1,2,3,16;
 1/18=20,19=15,26=3/3(2);
 2/9=110/2;
 99//99;
 2/9=110/2;
 3/5=4,6=6,7=111,11=2,25=1,30=1,71=1,74=-58/1,2,3;
 4/5=5,16=3,69=1/1;
 5/5=2,38=5/2;
 7//1,2,3,16;
 1/18=20,19=15,26=3/3(-5);
 2/9=110/2;
 6/7=2,8=2,9=2,10=2,19=2,28=1/1;
 99/9=1/99;
 --------------
 pg2T_TT_-5.pdb
 --------------
 Symbolic Z-matrix:
 Charge =  0 Multiplicity = 1
 C                    -4.25     -1.36     -0.21 
 C                    -2.93     -0.95     -0.61 
 C                    -1.97     -2.05     -0.62 
 C                    -4.33     -2.76      0.1 
 S                    -2.8      -3.56     -0.11 
 H                    -5.23     -3.27      0.41 
 C                    -0.56     -2.13     -0.97 
 S                     0.33     -0.732    -1.647 
 C                     1.811    -1.619    -1.754 
 C                     1.68     -2.967    -1.262 
 C                     0.355    -3.261    -0.803 
 H                     0.109    -4.157    -0.254 
 S                     3.181    -3.618    -0.691 
 C                     4.03     -2.127    -1.102 
 C                     3.145    -1.126    -1.654 
 H                     5.049    -1.937    -0.795 
 H                     3.411    -0.074    -1.71 
 H                    -2.89      0.24     -0.97 
 O                    -5.6      -0.36     -0.4 
 H                    -5.76      0.85     -0.75 
 
 Add virtual bond connecting atoms H20        and O19        Dist= 2.40D+00.
 Add virtual bond connecting atoms O19        and C1         Dist= 3.20D+00.
 The following ModRedundant input section has been read:
 D       2       3       7       8 F                                           
 

 GradGradGradGradGradGradGradGradGradGradGradGradGradGradGradGradGradGrad
 Berny optimization.
 Initialization pass.
                           ----------------------------
                           !    Initial Parameters    !
                           ! (Angstroms and Degrees)  !
 --------------------------                            --------------------------
 ! Name  Definition              Value          Derivative Info.                !
 --------------------------------------------------------------------------------
 ! R1    R(1,2)                  1.4389         estimate D2E/DX2                !
 ! R2    R(1,4)                  1.4361         estimate D2E/DX2                !
 ! R3    R(1,19)                 1.6907         estimate D2E/DX2                !
 ! R4    R(2,3)                  1.46           estimate D2E/DX2                !
 ! R5    R(2,18)                 1.2439         estimate D2E/DX2                !
 ! R6    R(3,5)                  1.797          estimate D2E/DX2                !
 ! R7    R(3,7)                  1.455          estimate D2E/DX2                !
 ! R8    R(4,5)                  1.7393         estimate D2E/DX2                !
 ! R9    R(4,6)                  1.0799         estimate D2E/DX2                !
 ! R10   R(7,8)                  1.7902         estimate D2E/DX2                !
 ! R11   R(7,11)                 1.4643         estimate D2E/DX2                !
 ! R12   R(8,9)                  1.7296         estimate D2E/DX2                !
 ! R13   R(9,10)                 1.4409         estimate D2E/DX2                !
 ! R14   R(9,15)                 1.4257         estimate D2E/DX2                !
 ! R15   R(10,11)                1.4327         estimate D2E/DX2                !
 ! R16   R(10,13)                1.7329         estimate D2E/DX2                !
 ! R17   R(11,12)                1.0792         estimate D2E/DX2                !
 ! R18   R(13,14)                1.7643         estimate D2E/DX2                !
 ! R19   R(14,15)                1.4457         estimate D2E/DX2                !
 ! R20   R(14,16)                1.0811         estimate D2E/DX2                !
 ! R21   R(15,17)                1.0866         estimate D2E/DX2                !
 ! R22   R(19,20)                1.2697         estimate D2E/DX2                !
 ! A1    A(2,1,4)              112.8843         estimate D2E/DX2                !
 ! A2    A(2,1,19)             122.1887         estimate D2E/DX2                !
 ! A3    A(4,1,19)             123.8039         estimate D2E/DX2                !
 ! A4    A(1,2,3)              112.9799         estimate D2E/DX2                !
 ! A5    A(1,2,18)             112.491          estimate D2E/DX2                !
 ! A6    A(3,2,18)             134.2373         estimate D2E/DX2                !
 ! A7    A(2,3,5)              109.1138         estimate D2E/DX2                !
 ! A8    A(2,3,7)              132.8639         estimate D2E/DX2                !
 ! A9    A(5,3,7)              118.0132         estimate D2E/DX2                !
 ! A10   A(1,4,5)              111.9209         estimate D2E/DX2                !
 ! A11   A(1,4,6)              124.6643         estimate D2E/DX2                !
 ! A12   A(5,4,6)              123.4062         estimate D2E/DX2                !
 ! A13   A(3,5,4)               93.0997         estimate D2E/DX2                !
 ! A14   A(3,7,8)              121.9925         estimate D2E/DX2                !
 ! A15   A(3,7,11)             128.3577         estimate D2E/DX2                !
 ! A16   A(8,7,11)             109.611          estimate D2E/DX2                !
 ! A17   A(7,8,9)               92.786          estimate D2E/DX2                !
 ! A18   A(8,9,10)             112.3822         estimate D2E/DX2                !
 ! A19   A(8,9,15)             128.2806         estimate D2E/DX2                !
 ! A20   A(10,9,15)            112.6194         estimate D2E/DX2                !
 ! A21   A(9,10,11)            112.6703         estimate D2E/DX2                !
 ! A22   A(9,10,13)            112.6565         estimate D2E/DX2                !
 ! A23   A(11,10,13)           128.1996         estimate D2E/DX2                !
 ! A24   A(7,11,10)            112.5099         estimate D2E/DX2                !
 ! A25   A(7,11,12)            123.8361         estimate D2E/DX2                !
 ! A26   A(10,11,12)           122.9654         estimate D2E/DX2                !
 ! A27   A(10,13,14)            91.2937         estimate D2E/DX2                !
 ! A28   A(13,14,15)           112.3039         estimate D2E/DX2                !
 ! A29   A(13,14,16)           122.4085         estimate D2E/DX2                !
 ! A30   A(15,14,16)           124.3168         estimate D2E/DX2                !
 ! A31   A(9,15,14)            111.1095         estimate D2E/DX2                !
 ! A32   A(9,15,17)            124.0731         estimate D2E/DX2                !
 ! A33   A(14,15,17)           122.698          estimate D2E/DX2                !
 ! A34   A(1,19,20)            134.0455         estimate D2E/DX2                !
 ! D1    D(4,1,2,3)              0.3915         estimate D2E/DX2                !
 ! D2    D(4,1,2,18)           175.0898         estimate D2E/DX2                !
 ! D3    D(19,1,2,3)          -167.9154         estimate D2E/DX2                !
 ! D4    D(19,1,2,18)            6.7829         estimate D2E/DX2                !
 ! D5    D(2,1,4,5)             -0.3845         estimate D2E/DX2                !
 ! D6    D(2,1,4,6)           -179.3471         estimate D2E/DX2                !
 ! D7    D(19,1,4,5)           167.7032         estimate D2E/DX2                !
 ! D8    D(19,1,4,6)           -11.2593         estimate D2E/DX2                !
 ! D9    D(2,1,19,20)           -7.6334         estimate D2E/DX2                !
 ! D10   D(4,1,19,20)         -174.6479         estimate D2E/DX2                !
 ! D11   D(1,2,3,5)             -0.2224         estimate D2E/DX2                !
 ! D12   D(1,2,3,7)            178.6265         estimate D2E/DX2                !
 ! D13   D(18,2,3,5)          -173.3787         estimate D2E/DX2                !
 ! D14   D(18,2,3,7)             5.4701         estimate D2E/DX2                !
 ! D15   D(2,3,5,4)              0.0033         estimate D2E/DX2                !
 ! D16   D(7,3,5,4)           -179.041          estimate D2E/DX2                !
 ! D17   D(2,3,7,8)             -5.0008         Frozen                          !
 ! D18   D(2,3,7,11)           172.4905         estimate D2E/DX2                !
 ! D19   D(5,3,7,8)            173.7672         estimate D2E/DX2                !
 ! D20   D(5,3,7,11)            -8.7415         estimate D2E/DX2                !
 ! D21   D(1,4,5,3)              0.2153         estimate D2E/DX2                !
 ! D22   D(6,4,5,3)            179.1932         estimate D2E/DX2                !
 ! D23   D(3,7,8,9)            179.7609         estimate D2E/DX2                !
 ! D24   D(11,7,8,9)             1.849          estimate D2E/DX2                !
 ! D25   D(3,7,11,10)         -179.8131         estimate D2E/DX2                !
 ! D26   D(3,7,11,12)           -9.094          estimate D2E/DX2                !
 ! D27   D(8,7,11,10)           -2.0717         estimate D2E/DX2                !
 ! D28   D(8,7,11,12)          168.6474         estimate D2E/DX2                !
 ! D29   D(7,8,9,10)            -1.1904         estimate D2E/DX2                !
 ! D30   D(7,8,9,15)          -149.936          estimate D2E/DX2                !
 ! D31   D(8,9,10,11)            0.1838         estimate D2E/DX2                !
 ! D32   D(8,9,10,13)         -154.0505         estimate D2E/DX2                !
 ! D33   D(15,9,10,11)         154.002          estimate D2E/DX2                !
 ! D34   D(15,9,10,13)          -0.2323         estimate D2E/DX2                !
 ! D35   D(8,9,15,14)          149.7407         estimate D2E/DX2                !
 ! D36   D(8,9,15,17)          -14.0409         estimate D2E/DX2                !
 ! D37   D(10,9,15,14)           1.0549         estimate D2E/DX2                !
 ! D38   D(10,9,15,17)        -162.7268         estimate D2E/DX2                !
 ! D39   D(9,10,11,7)            1.2527         estimate D2E/DX2                !
 ! D40   D(9,10,11,12)        -169.5597         estimate D2E/DX2                !
 ! D41   D(13,10,11,7)         150.5586         estimate D2E/DX2                !
 ! D42   D(13,10,11,12)        -20.2538         estimate D2E/DX2                !
 ! D43   D(9,10,13,14)          -0.5016         estimate D2E/DX2                !
 ! D44   D(11,10,13,14)       -149.8109         estimate D2E/DX2                !
 ! D45   D(10,13,14,15)          1.1072         estimate D2E/DX2                !
 ! D46   D(10,13,14,16)        170.2763         estimate D2E/DX2                !
 ! D47   D(13,14,15,9)          -1.4277         estimate D2E/DX2                !
 ! D48   D(13,14,15,17)        162.6153         estimate D2E/DX2                !
 ! D49   D(16,14,15,9)        -170.3537         estimate D2E/DX2                !
 ! D50   D(16,14,15,17)         -6.3106         estimate D2E/DX2                !
 --------------------------------------------------------------------------------
 Trust Radius=3.00D-01 FncErr=1.00D-07 GrdErr=1.00D-06 EigMax=2.50D+02 EigMin=1.00D-04
 Number of steps in this run=    116 maximum allowed number of steps=    120.
 GradGradGradGradGradGradGradGradGradGradGradGradGradGradGradGradGradGrad

                          Input orientation:                          
 ---------------------------------------------------------------------
 Center     Atomic      Atomic             Coordinates (Angstroms)
 Number     Number       Type             X           Y           Z
 ---------------------------------------------------------------------
      1          6           0       -4.250000   -1.360000   -0.210000
      2          6           0       -2.930000   -0.950000   -0.610000
      3          6           0       -1.970000   -2.050000   -0.620000
      4          6           0       -4.330000   -2.760000    0.100000
      5         16           0       -2.800000   -3.560000   -0.110000
      6          1           0       -5.230000   -3.270000    0.410000
      7          6           0       -0.560000   -2.130000   -0.970000
      8         16           0        0.330000   -0.732000   -1.647000
      9          6           0        1.811000   -1.619000   -1.754000
     10          6           0        1.680000   -2.967000   -1.262000
     11          6           0        0.355000   -3.261000   -0.803000
     12          1           0        0.109000   -4.157000   -0.254000
     13         16           0        3.181000   -3.618000   -0.691000
     14          6           0        4.030000   -2.127000   -1.102000
     15          6           0        3.145000   -1.126000   -1.654000
     16          1           0        5.049000   -1.937000   -0.795000
     17          1           0        3.411000   -0.074000   -1.710000
     18          1           0       -2.890000    0.240000   -0.970000
     19          8           0       -5.600000   -0.360000   -0.400000
     20          1           0       -5.760000    0.850000   -0.750000
 ---------------------------------------------------------------------
                    Distance matrix (angstroms):
                    1          2          3          4          5
     1  C    0.000000
     2  C    1.438923   0.000000
     3  C    2.417147   1.460034   0.000000
     4  C    1.436141   2.395871   2.567509   0.000000
     5  S    2.636759   2.660639   1.796970   1.739253   0.000000
     6  H    2.234480   3.422397   3.630000   1.079907   2.501879
     7  C    3.845335   2.671872   1.454991   3.969219   2.793224
     8  S    4.841049   3.427899   2.842860   5.374048   4.489638
     9  C    6.259931   4.922741   3.970854   6.515449   5.266074
    10  C    6.233302   5.074002   3.817794   6.165873   4.663599
    11  C    5.017118   4.021094   2.627857   4.797461   3.244021
    12  H    5.179385   4.432506   2.982557   4.667081   2.973117
    13  S    7.781368   6.668516   5.384837   7.601116   6.009433
    14  C    8.363154   7.075945   6.019822   8.469657   7.048862
    15  C    7.538297   6.166566   5.299637   7.849974   6.606914
    16  H    9.335232   8.041942   7.022091   9.457484   8.044262
    17  H    7.911682   6.495049   5.835052   8.391292   7.299912
    18  H    2.233204   1.243905   2.492589   3.495497   3.897140
    19  O    1.690739   2.742462   4.010162   2.760960   4.261936
    20  H    2.730531   3.356859   4.773992   3.974858   5.349701
                    6          7          8          9         10
     6  H    0.000000
     7  C    5.001290   0.000000
     8  S    6.448744   1.790205   0.000000
     9  C    7.548800   2.549003   1.729618   0.000000
    10  C    7.115862   2.409032   2.639309   1.440947   0.000000
    11  C    5.715214   1.464334   2.666234   2.391757   1.432739
    12  H    5.452759   2.251432   3.704040   3.404152   2.213641
    13  S    8.489890   4.035724   4.167869   2.646294   1.732871
    14  C    9.451994   4.591899   3.991622   2.367938   2.500740
    15  C    8.888051   3.899089   2.842448   1.425695   2.385198
    16  H   10.434882   5.615047   4.944380   3.391968   3.553752
    17  H    9.453872   4.532502   3.151110   2.224626   3.400958
    18  H    4.438479   3.323522   3.430964   5.115656   5.590618
    19  O    3.043206   5.372095   6.071103   7.638149   7.780610
    20  H    4.312876   5.997399   6.355740   8.026457   8.377663
                   11         12         13         14         15
    11  C    0.000000
    12  H    1.079228   0.000000
    13  S    2.850661   3.149393   0.000000
    14  C    3.857588   4.496025   1.764314   0.000000
    15  C    3.614765   4.512677   2.671840   1.445659   0.000000
    16  H    4.877159   5.442856   2.515154   1.081069   2.240718
    17  H    4.507633   5.449223   3.694753   2.228819   1.086552
    18  H    4.776496   5.370313   7.198545   7.314815   6.225354
    19  O    6.636282   6.857930   9.370443   9.815905   8.867598
    20  H    7.368606   7.730539   9.995398  10.238678   9.166287
                   16         17         18         19         20
    16  H    0.000000
    17  H    2.644057   0.000000
    18  H    8.233934   6.352070   0.000000
    19  O   10.772379   9.110215   2.833549   0.000000
    20  H   11.162611   9.267287   2.942346   1.269724   0.000000
 Stoichiometry    C10H6OS3
 Framework group  C1[X(C10H6OS3)]
 Deg. of freedom    54
 Full point group                 C1      NOp   1
 Largest Abelian subgroup         C1      NOp   1
 Largest concise Abelian subgroup C1      NOp   1
                         Standard orientation:                         
 ---------------------------------------------------------------------
 Center     Atomic      Atomic             Coordinates (Angstroms)
 Number     Number       Type             X           Y           Z
 ---------------------------------------------------------------------
      1          6           0       -3.888982    0.309142    0.248032
      2          6           0       -2.579495    0.903194    0.194686
      3          6           0       -1.517084   -0.076631   -0.012501
      4          6           0       -3.861255   -1.118504    0.094551
      5         16           0       -2.242749   -1.716825   -0.123278
      6          1           0       -4.734848   -1.753355    0.094688
      7          6           0       -0.074280    0.043488   -0.157029
      8         16           0        0.742513    1.634878   -0.228863
      9          6           0        2.309080    0.918392   -0.384095
     10          6           0        2.258927   -0.521448   -0.358090
     11          6           0        0.925348   -1.025039   -0.214198
     12          1           0        0.708088   -2.062646   -0.011950
     13         16           0        3.738305   -1.230932    0.199510
     14          6           0        4.472628    0.360698    0.400228
     15          6           0        3.562923    1.431493    0.059988
     16          1           0        5.421563    0.502330    0.898397
     17          1           0        3.723782    2.459761    0.372052
     18          1           0       -2.618950    2.145962    0.230343
     19          8           0       -5.301714    1.235410    0.178618
     20          1           0       -5.541886    2.482026    0.200209
 ---------------------------------------------------------------------
 Rotational constants (GHZ):           1.3745586           0.2310232           0.1997182
 Standard basis: 6-311+G(d,p) (5D, 7F)
 There are   382 symmetry adapted cartesian basis functions of A   symmetry.
 There are   368 symmetry adapted basis functions of A   symmetry.
   368 basis functions,   594 primitive gaussians,   382 cartesian basis functions
    61 alpha electrons       61 beta electrons
       nuclear repulsion energy      1077.0406143830 Hartrees.
 NAtoms=   20 NActive=   20 NUniq=   20 SFac= 1.00D+00 NAtFMM=   60 NAOKFM=F Big=F
 Integral buffers will be    131072 words long.
 Raffenetti 2 integral format.
 Two-electron integral symmetry is turned on.
 Nuclear repulsion after empirical dispersion term =     1077.0308587926 Hartrees.
 One-electron integrals computed using PRISM.
 NBasis=   368 RedAO= T EigKep=  2.46D-06  NBF=   368
 NBsUse=   367 1.00D-06 EigRej=  3.87D-07 NBFU=   367
 ExpMin= 4.05D-02 ExpMax= 9.34D+04 ExpMxC= 3.17D+03 IAcc=3 IRadAn=         5 AccDes= 0.00D+00
 Harris functional with IExCor= 4639 and IRadAn=       5 diagonalized for initial guess.
 HarFok:  IExCor= 4639 AccDes= 0.00D+00 IRadAn=         5 IDoV= 1 UseB2=F ITyADJ=14
 ICtDFT=  3500011 ScaDFX=  1.000000  1.000000  1.000000  1.000000
 FoFCou: FMM=F IPFlag=           0 FMFlag=      100000 FMFlg1=           0
         NFxFlg=           0 DoJE=T BraDBF=F KetDBF=T FulRan=T
         wScrn=  0.000000 ICntrl=       500 IOpCl=  0 I1Cent=   200000004 NGrid=           0
         NMat0=    1 NMatS0=      1 NMatT0=    0 NMatD0=    1 NMtDS0=    0 NMtDT0=    0
 Petite list used in FoFCou.
 Requested convergence on RMS density matrix=1.00D-08 within 128 cycles.
 Requested convergence on MAX density matrix=1.00D-06.
 Requested convergence on             energy=1.00D-06.
 No special actions if energy rises.
 SCF Done:  E(RwB97XD) =  -1654.22639632     A.U. after   19 cycles
            NFock= 19  Conv=0.42D-08     -V/T= 2.0032

 **********************************************************************

            Population analysis using the SCF Density.

 **********************************************************************

 Orbital symmetries:
       Occupied  (A) (A) (A) (A) (A) (A) (A) (A) (A) (A) (A) (A)
                 (A) (A) (A) (A) (A) (A) (A) (A) (A) (A) (A) (A)
                 (A) (A) (A) (A) (A) (A) (A) (A) (A) (A) (A) (A)
                 (A) (A) (A) (A) (A) (A) (A) (A) (A) (A) (A) (A)
                 (A) (A) (A) (A) (A) (A) (A) (A) (A) (A) (A) (A)
                 (A)
       Virtual   (A) (A) (A) (A) (A) (A) (A) (A) (A) (A) (A) (A)
                 (A) (A) (A) (A) (A) (A) (A) (A) (A) (A) (A) (A)
                 (A) (A) (A) (A) (A) (A) (A) (A) (A) (A) (A) (A)
                 (A) (A) (A) (A) (A) (A) (A) (A) (A) (A) (A) (A)
                 (A) (A) (A) (A) (A) (A) (A) (A) (A) (A) (A) (A)
                 (A) (A) (A) (A) (A) (A) (A) (A) (A) (A) (A) (A)
                 (A) (A) (A) (A) (A) (A) (A) (A) (A) (A) (A) (A)
                 (A) (A) (A) (A) (A) (A) (A) (A) (A) (A) (A) (A)
                 (A) (A) (A) (A) (A) (A) (A) (A) (A) (A) (A) (A)
                 (A) (A) (A) (A) (A) (A) (A) (A) (A) (A) (A) (A)
                 (A) (A) (A) (A) (A) (A) (A) (A) (A) (A) (A) (A)
                 (A) (A) (A) (A) (A) (A) (A) (A) (A) (A) (A) (A)
                 (A) (A) (A) (A) (A) (A) (A) (A) (A) (A) (A) (A)
                 (A) (A) (A) (A) (A) (A) (A) (A) (A) (A) (A) (A)
                 (A) (A) (A) (A) (A) (A) (A) (A) (A) (A) (A) (A)
                 (A) (A) (A) (A) (A) (A) (A) (A) (A) (A) (A) (A)
                 (A) (A) (A) (A) (A) (A) (A) (A) (A) (A) (A) (A)
                 (A) (A) (A) (A) (A) (A) (A) (A) (A) (A) (A) (A)
                 (A) (A) (A) (A) (A) (A) (A) (A) (A) (A) (A) (A)
                 (A) (A) (A) (A) (A) (A) (A) (A) (A) (A) (A) (A)
                 (A) (A) (A) (A) (A) (A) (A) (A) (A) (A) (A) (A)
                 (A) (A) (A) (A) (A) (A) (A) (A) (A) (A) (A) (A)
                 (A) (A) (A) (A) (A) (A) (A) (A) (A) (A) (A) (A)
                 (A) (A) (A) (A) (A) (A) (A) (A) (A) (A) (A) (A)
                 (A) (A) (A) (A) (A) (A) (A) (A) (A) (A) (A) (A)
                 (A) (A) (A) (A) (A) (A)
 The electronic state is 1-A.
 Alpha  occ. eigenvalues --  -89.07447 -89.06449 -89.06317 -19.27832 -10.39051
 Alpha  occ. eigenvalues --  -10.36960 -10.36405 -10.34333 -10.34212 -10.34203
 Alpha  occ. eigenvalues --  -10.34126 -10.34100 -10.32717 -10.32256  -8.11299
 Alpha  occ. eigenvalues --   -8.10390  -8.10261  -6.06157  -6.05789  -6.05373
 Alpha  occ. eigenvalues --   -6.05243  -6.05132  -6.04878  -6.04755  -6.04456
 Alpha  occ. eigenvalues --   -6.04298  -1.03416  -1.01437  -0.98519  -0.94272
 Alpha  occ. eigenvalues --   -0.87984  -0.85552  -0.84398  -0.81248  -0.78759
 Alpha  occ. eigenvalues --   -0.71849  -0.67509  -0.65396  -0.63194  -0.62192
 Alpha  occ. eigenvalues --   -0.59181  -0.58320  -0.54015  -0.52366  -0.51171
 Alpha  occ. eigenvalues --   -0.49621  -0.48727  -0.48552  -0.48221  -0.47825
 Alpha  occ. eigenvalues --   -0.46286  -0.44358  -0.43183  -0.42764  -0.40587
 Alpha  occ. eigenvalues --   -0.40106  -0.37918  -0.34845  -0.33029  -0.31253
 Alpha  occ. eigenvalues --   -0.26872
 Alpha virt. eigenvalues --   -0.02673  -0.00636   0.03069   0.04977   0.05412
 Alpha virt. eigenvalues --    0.05617   0.06483   0.06817   0.07040   0.07388
 Alpha virt. eigenvalues --    0.07867   0.08790   0.08896   0.09380   0.09740
 Alpha virt. eigenvalues --    0.10159   0.10838   0.11228   0.11309   0.11692
 Alpha virt. eigenvalues --    0.12126   0.12416   0.13380   0.14030   0.14445
 Alpha virt. eigenvalues --    0.15004   0.15406   0.15677   0.16067   0.16966
 Alpha virt. eigenvalues --    0.17212   0.17636   0.17978   0.18302   0.18717
 Alpha virt. eigenvalues --    0.18828   0.19777   0.20416   0.20643   0.21212
 Alpha virt. eigenvalues --    0.21316   0.21647   0.22199   0.22653   0.23256
 Alpha virt. eigenvalues --    0.23708   0.24196   0.24710   0.24828   0.25244
 Alpha virt. eigenvalues --    0.25510   0.25813   0.26215   0.26634   0.27147
 Alpha virt. eigenvalues --    0.27233   0.27480   0.27800   0.28425   0.28947
 Alpha virt. eigenvalues --    0.29335   0.29653   0.30128   0.30693   0.31104
 Alpha virt. eigenvalues --    0.31317   0.32493   0.32874   0.33812   0.35221
 Alpha virt. eigenvalues --    0.35691   0.35904   0.36200   0.37580   0.38081
 Alpha virt. eigenvalues --    0.39105   0.39827   0.40164   0.40956   0.41105
 Alpha virt. eigenvalues --    0.41623   0.42854   0.43104   0.43721   0.45964
 Alpha virt. eigenvalues --    0.46987   0.47737   0.49155   0.50826   0.51057
 Alpha virt. eigenvalues --    0.52344   0.53246   0.56085   0.57383   0.59685
 Alpha virt. eigenvalues --    0.61400   0.62077   0.62680   0.63302   0.63785
 Alpha virt. eigenvalues --    0.64246   0.65224   0.65774   0.67636   0.68234
 Alpha virt. eigenvalues --    0.69317   0.69662   0.70525   0.70671   0.71774
 Alpha virt. eigenvalues --    0.74138   0.74959   0.75323   0.76457   0.77581
 Alpha virt. eigenvalues --    0.78102   0.79028   0.79542   0.80619   0.81398
 Alpha virt. eigenvalues --    0.82057   0.82259   0.82985   0.84040   0.84880
 Alpha virt. eigenvalues --    0.85882   0.86330   0.87747   0.88015   0.89301
 Alpha virt. eigenvalues --    0.90389   0.90910   0.92134   0.92475   0.93640
 Alpha virt. eigenvalues --    0.94498   0.95865   0.96478   0.98584   0.99688
 Alpha virt. eigenvalues --    1.00032   1.00967   1.01197   1.01981   1.03312
 Alpha virt. eigenvalues --    1.04941   1.06698   1.07384   1.08879   1.09435
 Alpha virt. eigenvalues --    1.10014   1.13067   1.13500   1.14712   1.16157
 Alpha virt. eigenvalues --    1.18661   1.19910   1.22331   1.23497   1.25598
 Alpha virt. eigenvalues --    1.28230   1.28675   1.31847   1.33997   1.37498
 Alpha virt. eigenvalues --    1.42608   1.43316   1.43916   1.45380   1.47451
 Alpha virt. eigenvalues --    1.49910   1.53664   1.54746   1.57604   1.58719
 Alpha virt. eigenvalues --    1.59235   1.60702   1.62457   1.65109   1.67168
 Alpha virt. eigenvalues --    1.68561   1.69588   1.69700   1.70988   1.73390
 Alpha virt. eigenvalues --    1.74229   1.74940   1.76428   1.77181   1.78566
 Alpha virt. eigenvalues --    1.79780   1.80845   1.83074   1.83906   1.84393
 Alpha virt. eigenvalues --    1.86566   1.87815   1.89241   1.91987   1.92479
 Alpha virt. eigenvalues --    1.93657   1.95615   1.97560   1.98674   1.99918
 Alpha virt. eigenvalues --    2.02326   2.03932   2.05372   2.06508   2.06873
 Alpha virt. eigenvalues --    2.07682   2.08251   2.11172   2.12362   2.14472
 Alpha virt. eigenvalues --    2.16309   2.16698   2.19444   2.20720   2.22303
 Alpha virt. eigenvalues --    2.23869   2.25551   2.30400   2.33088   2.39854
 Alpha virt. eigenvalues --    2.42438   2.42995   2.44915   2.50928   2.55438
 Alpha virt. eigenvalues --    2.57595   2.62561   2.64451   2.68971   2.72911
 Alpha virt. eigenvalues --    2.73742   2.75162   2.78091   2.79468   2.79798
 Alpha virt. eigenvalues --    2.80768   2.82773   2.84667   2.86207   2.88988
 Alpha virt. eigenvalues --    2.90356   2.93993   2.96420   3.00170   3.01344
 Alpha virt. eigenvalues --    3.02197   3.04324   3.04582   3.07147   3.10782
 Alpha virt. eigenvalues --    3.12009   3.12902   3.14655   3.20109   3.28743
 Alpha virt. eigenvalues --    3.29334   3.34419   3.36294   3.40777   3.45678
 Alpha virt. eigenvalues --    3.48768   3.56755   3.58141   3.67086   3.69320
 Alpha virt. eigenvalues --    3.87506   3.92252   4.02416   4.13150   4.22129
 Alpha virt. eigenvalues --    4.40565   4.57610   5.12996   5.23404   5.36497
 Alpha virt. eigenvalues --    8.03951   8.06030   8.07898  17.39997  17.41791
 Alpha virt. eigenvalues --   17.42709  17.55819  17.58056  17.59729  17.60837
 Alpha virt. eigenvalues --   17.64018  17.66606  23.54059  23.68802  23.79252
 Alpha virt. eigenvalues --   23.88390  23.92543  23.97777  23.98778  24.01085
 Alpha virt. eigenvalues --   24.06713  24.08488  49.98510 189.28317 189.30633
 Alpha virt. eigenvalues --  189.32941
          Condensed to atoms (all electrons):
               1          2          3          4          5          6
     1  C    7.988088  -1.288711   0.135618  -1.294079   0.766239   0.064454
     2  C   -1.288711  13.263775  -3.583709   0.445335  -2.673862  -0.037948
     3  C    0.135618  -3.583709   9.440519  -0.239297   0.717020   0.023537
     4  C   -1.294079   0.445335  -0.239297   7.327637  -0.520957   0.347367
     5  S    0.766239  -2.673862   0.717020  -0.520957  17.646751  -0.028234
     6  H    0.064454  -0.037948   0.023537   0.347367  -0.028234   0.422514
     7  C   -0.004855  -0.667162  -0.424157  -0.046553   0.805017  -0.001582
     8  S   -0.066631  -0.447038   0.591128   0.079922   0.080137  -0.000599
     9  C   -0.067539  -0.524022  -0.225532  -0.009354   0.245101  -0.000042
    10  C    0.104942   0.138336   0.319113  -0.068373  -0.352045   0.000099
    11  C   -0.133743   0.250401  -0.757876  -0.065480  -0.168737   0.001282
    12  H   -0.003978   0.006646   0.018676   0.004097   0.002300   0.000003
    13  S   -0.003082   0.035744   0.016831   0.003269  -0.019798   0.000001
    14  C   -0.000442  -0.013151  -0.019104  -0.000346   0.002239  -0.000000
    15  C   -0.005106  -0.047075   0.017992   0.006049   0.007762  -0.000006
    16  H   -0.000001  -0.000018   0.000061  -0.000000   0.000016   0.000000
    17  H    0.000062   0.000237  -0.000823  -0.000012  -0.000001   0.000000
    18  H   -0.098648   0.260698   0.155318  -0.032381   0.007363  -0.000054
    19  O    0.307397  -0.019290  -0.006366  -0.134400   0.009762  -0.000713
    20  H   -0.099578   0.005157   0.034041   0.053979  -0.002214  -0.000130
               7          8          9         10         11         12
     1  C   -0.004855  -0.066631  -0.067539   0.104942  -0.133743  -0.003978
     2  C   -0.667162  -0.447038  -0.524022   0.138336   0.250401   0.006646
     3  C   -0.424157   0.591128  -0.225532   0.319113  -0.757876   0.018676
     4  C   -0.046553   0.079922  -0.009354  -0.068373  -0.065480   0.004097
     5  S    0.805017   0.080137   0.245101  -0.352045  -0.168737   0.002300
     6  H   -0.001582  -0.000599  -0.000042   0.000099   0.001282   0.000003
     7  C   10.859258   0.856609  -0.806865   2.517070  -5.940764   0.142593
     8  S    0.856609  17.836718  -0.879321   1.461876  -2.857912   0.008207
     9  C   -0.806865  -0.879321  12.849034  -6.319344   2.864271  -0.050311
    10  C    2.517070   1.461876  -6.319344  21.376459 -11.645784   0.088273
    11  C   -5.940764  -2.857912   2.864271 -11.645784  21.945098   0.141915
    12  H    0.142593   0.008207  -0.050311   0.088273   0.141915   0.473731
    13  S   -0.491002   0.059608   0.630226  -1.462715   0.985935   0.002566
    14  C    0.172081   0.003730   0.564403  -0.109071  -0.525923   0.001951
    15  C   -0.415701  -0.066748  -2.306452  -0.226342   1.153173  -0.012393
    16  H   -0.004057  -0.000405  -0.038832   0.011471   0.016715  -0.000001
    17  H    0.009585   0.017506   0.015459  -0.031445  -0.007724   0.000009
    18  H    0.016879   0.014368   0.006604  -0.003368   0.002211   0.000003
    19  O    0.011824   0.004022   0.000108   0.000197  -0.000275  -0.000000
    20  H    0.001117   0.001711   0.000054   0.000050   0.000060  -0.000000
              13         14         15         16         17         18
     1  C   -0.003082  -0.000442  -0.005106  -0.000001   0.000062  -0.098648
     2  C    0.035744  -0.013151  -0.047075  -0.000018   0.000237   0.260698
     3  C    0.016831  -0.019104   0.017992   0.000061  -0.000823   0.155318
     4  C    0.003269  -0.000346   0.006049  -0.000000  -0.000012  -0.032381
     5  S   -0.019798   0.002239   0.007762   0.000016  -0.000001   0.007363
     6  H    0.000001  -0.000000  -0.000006   0.000000   0.000000  -0.000054
     7  C   -0.491002   0.172081  -0.415701  -0.004057   0.009585   0.016879
     8  S    0.059608   0.003730  -0.066748  -0.000405   0.017506   0.014368
     9  C    0.630226   0.564403  -2.306452  -0.038832   0.015459   0.006604
    10  C   -1.462715  -0.109071  -0.226342   0.011471  -0.031445  -0.003368
    11  C    0.985935  -0.525923   1.153173   0.016715  -0.007724   0.002211
    12  H    0.002566   0.001951  -0.012393  -0.000001   0.000009   0.000003
    13  S   16.599082   0.330563  -0.503138  -0.024238  -0.000965  -0.000054
    14  C    0.330563   5.513065  -0.026467   0.373939   0.011175   0.000084
    15  C   -0.503138  -0.026467   8.095332   0.028769   0.345472  -0.000365
    16  H   -0.024238   0.373939   0.028769   0.435944  -0.002700  -0.000000
    17  H   -0.000965   0.011175   0.345472  -0.002700   0.474313  -0.000000
    18  H   -0.000054   0.000084  -0.000365  -0.000000  -0.000000   0.496144
    19  O   -0.000006   0.000003   0.000011  -0.000000   0.000000   0.000581
    20  H   -0.000000   0.000000   0.000001  -0.000000  -0.000000   0.000927
              19         20
     1  C    0.307397  -0.099578
     2  C   -0.019290   0.005157
     3  C   -0.006366   0.034041
     4  C   -0.134400   0.053979
     5  S    0.009762  -0.002214
     6  H   -0.000713  -0.000130
     7  C    0.011824   0.001117
     8  S    0.004022   0.001711
     9  C    0.000108   0.000054
    10  C    0.000197   0.000050
    11  C   -0.000275   0.000060
    12  H   -0.000000  -0.000000
    13  S   -0.000006  -0.000000
    14  C    0.000003   0.000000
    15  C    0.000011   0.000001
    16  H   -0.000000  -0.000000
    17  H    0.000000  -0.000000
    18  H    0.000581   0.000927
    19  O    8.085906   0.208112
    20  H    0.208112   0.492032
 Mulliken charges:
               1
     1  C   -0.300407
     2  C    0.895657
     3  C   -0.212989
     4  C    0.143576
     5  S   -0.523858
     6  H    0.210053
     7  C   -0.589335
     8  S   -0.696887
     9  C    0.052355
    10  C    0.200600
    11  C    0.743155
    12  H    0.175714
    13  S   -0.158825
    14  C   -0.278727
    15  C   -0.044767
    16  H    0.203336
    17  H    0.169852
    18  H    0.173691
    19  O   -0.466873
    20  H    0.304681
 Sum of Mulliken charges =  -0.00000
 Mulliken charges with hydrogens summed into heavy atoms:
               1
     1  C   -0.300407
     2  C    1.069348
     3  C   -0.212989
     4  C    0.353628
     5  S   -0.523858
     7  C   -0.589335
     8  S   -0.696887
     9  C    0.052355
    10  C    0.200600
    11  C    0.918869
    13  S   -0.158825
    14  C   -0.075391
    15  C    0.125085
    19  O   -0.162193
 Electronic spatial extent (au):  <R**2>=           4991.7531
 Charge=             -0.0000 electrons
 Dipole moment (field-independent basis, Debye):
    X=              1.3905    Y=              1.0136    Z=              1.0018  Tot=              1.9911
 Quadrupole moment (field-independent basis, Debye-Ang):
   XX=            -99.8359   YY=            -87.4171   ZZ=           -109.6471
   XY=             -2.1598   XZ=              4.9092   YZ=              1.4572
 Traceless Quadrupole moment (field-independent basis, Debye-Ang):
   XX=             -0.8692   YY=             11.5496   ZZ=            -10.6804
   XY=             -2.1598   XZ=              4.9092   YZ=              1.4572
 Octapole moment (field-independent basis, Debye-Ang**2):
  XXX=             63.9356  YYY=             25.2052  ZZZ=              1.4577  XYY=            -49.6388
  XXY=             39.8277  XXZ=             26.5175  XZZ=              1.8489  YZZ=             -0.5547
  YYZ=              5.1362  XYZ=              0.6752
 Hexadecapole moment (field-independent basis, Debye-Ang**3):
 XXXX=          -5606.9410 YYYY=           -900.9916 ZZZZ=           -173.3633 XXXY=           -129.3469
 XXXZ=            160.5394 YYYX=           -116.0414 YYYZ=             12.9892 ZZZX=             12.2532
 ZZZY=             -0.1426 XXYY=           -801.1408 XXZZ=          -1044.2216 YYZZ=           -211.5905
 XXYZ=             26.8167 YYXZ=              4.0237 ZZXY=             -6.9712
 N-N= 1.077030858793D+03 E-N=-6.063162966825D+03  KE= 1.648890941432D+03
 Calling FoFJK, ICntrl=      2127 FMM=F ISym2X=0 I1Cent= 0 IOpClX= 0 NMat=1 NMatS=1 NMatT=0.
 ***** Axes restored to original set *****
 -------------------------------------------------------------------
 Center     Atomic                   Forces (Hartrees/Bohr)
 Number     Number              X              Y              Z
 -------------------------------------------------------------------
      1        6          -0.018890216    0.007100252   -0.020235781
      2        6           0.006733137    0.021217589   -0.016527267
      3        6          -0.044190561    0.026555175    0.003539145
      4        6          -0.008880255    0.061659285   -0.010737026
      5       16          -0.005452125    0.035932838   -0.003892482
      6        1           0.002766990   -0.003710279   -0.000654491
      7        6           0.046825418   -0.033401869    0.002964456
      8       16          -0.013872591   -0.017871768   -0.000976204
      9        6           0.010109292   -0.029215235    0.026734342
     10        6          -0.021075172    0.037148081    0.004083331
     11        6          -0.027640962    0.052865623   -0.012445689
     12        1          -0.004713056   -0.002274728   -0.002296939
     13       16           0.009534024    0.016728054   -0.013557871
     14        6          -0.048428574    0.039377818   -0.019583974
     15        6           0.031123259   -0.044474922    0.031247657
     16        1           0.001205300   -0.006065185   -0.003984789
     17        1           0.003075217   -0.005126822   -0.007294140
     18        1           0.014110972   -0.070753053    0.019166127
     19        8           0.023643501    0.026455489   -0.007100719
     20        1           0.044016401   -0.112146343    0.031552313
 -------------------------------------------------------------------
 Cartesian Forces:  Max     0.112146343 RMS     0.029436115

 GradGradGradGradGradGradGradGradGradGradGradGradGradGradGradGradGradGrad
 Berny optimization.
 FormGI is forming the generalized inverse of G from B-inverse, IUseBI=4.
 Internal  Forces:  Max     0.121116533 RMS     0.024593979
 Search for a local minimum.
 Step number   1 out of a maximum of  116
 All quantities printed in internal units (Hartrees-Bohrs-Radians)
 Mixed Optimization -- RFO/linear search
 Second derivative matrix not updated -- first step.
 ITU=  0
     Eigenvalues ---    0.00230   0.00983   0.01058   0.01223   0.01273
     Eigenvalues ---    0.01297   0.01386   0.01417   0.01418   0.01464
     Eigenvalues ---    0.01493   0.01554   0.01596   0.01770   0.02198
     Eigenvalues ---    0.02650   0.15072   0.15682   0.15739   0.15872
     Eigenvalues ---    0.15997   0.16000   0.18002   0.18458   0.20203
     Eigenvalues ---    0.21719   0.22444   0.23321   0.23380   0.23776
     Eigenvalues ---    0.23980   0.24292   0.24979   0.24995   0.26219
     Eigenvalues ---    0.26559   0.28453   0.30834   0.31271   0.31610
     Eigenvalues ---    0.34829   0.35214   0.35849   0.35865   0.36006
     Eigenvalues ---    0.36088   0.36311   0.37598   0.38223   0.38494
     Eigenvalues ---    0.39449   0.39684   0.406701000.000001000.00000
     Eigenvalues --- 1000.000001000.000001000.000001000.000001000.00000
     Eigenvalues --- 1000.000001000.000001000.000001000.000001000.00000
     Eigenvalues --- 1000.000001000.000001000.000001000.000001000.00000
     Eigenvalues --- 1000.000001000.000001000.000001000.000001000.00000
     Eigenvalues --- 1000.000001000.000001000.000001000.000001000.00000
     Eigenvalues --- 1000.000001000.000001000.000001000.000001000.00000
     Eigenvalues --- 1000.000001000.000001000.000001000.000001000.00000
     Eigenvalues --- 1000.000001000.000001000.000001000.000001000.00000
     Eigenvalues --- 1000.000001000.000001000.000001000.000001000.00000
     Eigenvalues --- 1000.000001000.000001000.000001000.000001000.00000
     Eigenvalues --- 1000.00000
 RFO step:  Lambda=-1.59841874D-01 EMin= 2.30000000D-03
 Linear search not attempted -- first point.
 Maximum step size (   0.300) exceeded in Quadratic search.
    -- Step size scaled by   0.473
 Iteration  1 RMS(Cart)=  0.06203455 RMS(Int)=  0.00148573
 Iteration  2 RMS(Cart)=  0.00179341 RMS(Int)=  0.00005909
 Iteration  3 RMS(Cart)=  0.00000916 RMS(Int)=  0.00005880
 Iteration  4 RMS(Cart)=  0.00000000 RMS(Int)=  0.00005880
 Iteration  1 RMS(Cart)=  0.00000076 RMS(Int)=  0.00000039
 Variable       Old X    -DE/DX   Delta X   Delta X   Delta X     New X
                                 (Linear)    (Quad)   (Total)
    R1        2.71917  -0.02397   0.00000  -0.02137  -0.02130   2.69787
    R2        2.71391  -0.07036   0.00000  -0.05988  -0.05985   2.65406
    R3        3.19503  -0.10746   0.00000  -0.14771  -0.14771   3.04732
    R4        2.75906  -0.07412   0.00000  -0.06657  -0.06655   2.69252
    R5        2.35064  -0.07278   0.00000  -0.09139  -0.09139   2.25925
    R6        3.39578  -0.02540   0.00000  -0.02731  -0.02736   3.36842
    R7        2.74954  -0.01503   0.00000  -0.01328  -0.01328   2.73626
    R8        3.28671  -0.02035   0.00000  -0.01954  -0.01959   3.26712
    R9        2.04073  -0.00074   0.00000  -0.00068  -0.00068   2.04005
   R10        3.38300  -0.01974   0.00000  -0.02086  -0.02089   3.36211
   R11        2.76719  -0.06962   0.00000  -0.06311  -0.06311   2.70408
   R12        3.26850  -0.00510   0.00000  -0.00439  -0.00440   3.26410
   R13        2.72300  -0.03940   0.00000  -0.03424  -0.03417   2.68882
   R14        2.69417  -0.00349   0.00000  -0.00362  -0.00357   2.69060
   R15        2.70748  -0.01430   0.00000  -0.01281  -0.01278   2.69470
   R16        3.27465  -0.00495   0.00000  -0.00409  -0.00411   3.27055
   R17        2.03945   0.00179   0.00000   0.00163   0.00163   2.04108
   R18        3.33407  -0.01777   0.00000  -0.01809  -0.01814   3.31593
   R19        2.73190  -0.06580   0.00000  -0.05729  -0.05730   2.67460
   R20        2.04292  -0.00106   0.00000  -0.00097  -0.00097   2.04196
   R21        2.05329  -0.00383   0.00000  -0.00355  -0.00355   2.04974
   R22        2.39943  -0.12112   0.00000  -0.15846  -0.15846   2.24097
    A1        1.97020   0.01993   0.00000   0.02150   0.02159   1.99179
    A2        2.13260   0.00469   0.00000   0.00690   0.00686   2.13946
    A3        2.16079  -0.02401   0.00000  -0.02683  -0.02692   2.13387
    A4        1.97187  -0.00357   0.00000  -0.00612  -0.00602   1.96585
    A5        1.96334   0.02102   0.00000   0.03169   0.03165   1.99499
    A6        2.34288  -0.01727   0.00000  -0.02499  -0.02505   2.31784
    A7        1.90440   0.00098   0.00000   0.00191   0.00189   1.90629
    A8        2.31891  -0.01098   0.00000  -0.01308  -0.01308   2.30584
    A9        2.05972   0.01001   0.00000   0.01118   0.01118   2.07090
   A10        1.95339  -0.01467   0.00000  -0.01807  -0.01808   1.93531
   A11        2.17580   0.01198   0.00000   0.01591   0.01592   2.19172
   A12        2.15384   0.00272   0.00000   0.00221   0.00221   2.15605
   A13        1.62490  -0.00265   0.00000   0.00080   0.00063   1.62552
   A14        2.12917  -0.00642   0.00000  -0.00729  -0.00730   2.12187
   A15        2.24026  -0.00274   0.00000  -0.00306  -0.00307   2.23719
   A16        1.91307   0.00922   0.00000   0.01046   0.01048   1.92355
   A17        1.61942  -0.00752   0.00000  -0.00679  -0.00677   1.61265
   A18        1.96144  -0.01000   0.00000  -0.01014  -0.01025   1.95119
   A19        2.23892   0.00788   0.00000   0.01258   0.01246   2.25138
   A20        1.96558   0.00589   0.00000   0.00655   0.00659   1.97217
   A21        1.96647   0.00764   0.00000   0.00793   0.00794   1.97441
   A22        1.96623  -0.01283   0.00000  -0.01331  -0.01338   1.95284
   A23        2.23751   0.00863   0.00000   0.01345   0.01336   2.25086
   A24        1.96367   0.00067   0.00000  -0.00145  -0.00138   1.96228
   A25        2.16135  -0.00321   0.00000  -0.00312  -0.00317   2.15818
   A26        2.14615   0.00309   0.00000   0.00610   0.00604   2.15219
   A27        1.59338   0.00027   0.00000   0.00165   0.00164   1.59501
   A28        1.96007   0.00197   0.00000   0.00160   0.00158   1.96165
   A29        2.13643  -0.00471   0.00000  -0.00579  -0.00584   2.13059
   A30        2.16974   0.00381   0.00000   0.00695   0.00691   2.17665
   A31        1.93923   0.00471   0.00000   0.00350   0.00355   1.94278
   A32        2.16548   0.00050   0.00000   0.00363   0.00352   2.16901
   A33        2.14148  -0.00328   0.00000  -0.00215  -0.00227   2.13922
   A34        2.33954  -0.06949   0.00000  -0.10287  -0.10287   2.23667
    D1        0.00683  -0.00112   0.00000  -0.00315  -0.00316   0.00367
    D2        3.05589  -0.00055   0.00000   0.00057   0.00070   3.05659
    D3       -2.93068  -0.00142   0.00000  -0.00800  -0.00818  -2.93885
    D4        0.11838  -0.00085   0.00000  -0.00428  -0.00432   0.11407
    D5       -0.00671   0.00080   0.00000   0.00185   0.00186  -0.00485
    D6       -3.13020  -0.00077   0.00000  -0.00145  -0.00143  -3.13163
    D7        2.92697   0.00512   0.00000   0.01150   0.01141   2.93839
    D8       -0.19651   0.00355   0.00000   0.00820   0.00812  -0.18839
    D9       -0.13323   0.00177   0.00000   0.00223   0.00219  -0.13104
   D10       -3.04818  -0.00422   0.00000  -0.00940  -0.00936  -3.05754
   D11       -0.00388   0.00107   0.00000   0.00312   0.00307  -0.00081
   D12        3.11762   0.00197   0.00000   0.00313   0.00309   3.12071
   D13       -3.02603  -0.00273   0.00000  -0.00618  -0.00615  -3.03218
   D14        0.09547  -0.00183   0.00000  -0.00617  -0.00613   0.08934
   D15        0.00006  -0.00047   0.00000  -0.00170  -0.00169  -0.00163
   D16       -3.12486  -0.00096   0.00000  -0.00141  -0.00140  -3.12626
   D17       -0.08728  -0.00218   0.00000   0.00000  -0.00000  -0.08728
   D18        3.01053   0.00026   0.00000   0.00383   0.00383   3.01436
   D19        3.03281  -0.00132   0.00000  -0.00010  -0.00010   3.03271
   D20       -0.15257   0.00111   0.00000   0.00373   0.00373  -0.14883
   D21        0.00376  -0.00019   0.00000  -0.00007  -0.00009   0.00367
   D22        3.12751   0.00147   0.00000   0.00336   0.00330   3.13081
   D23        3.13742   0.00116   0.00000   0.00201   0.00201   3.13943
   D24        0.03227  -0.00067   0.00000  -0.00096  -0.00098   0.03130
   D25       -3.13833  -0.00192   0.00000  -0.00357  -0.00356   3.14130
   D26       -0.15872   0.00214   0.00000   0.00728   0.00728  -0.15144
   D27       -0.03616  -0.00002   0.00000  -0.00045  -0.00041  -0.03657
   D28        2.94345   0.00404   0.00000   0.01040   0.01043   2.95389
   D29       -0.02078   0.00159   0.00000   0.00257   0.00256  -0.01822
   D30       -2.61688  -0.00733   0.00000  -0.01753  -0.01754  -2.63442
   D31        0.00321  -0.00149   0.00000  -0.00293  -0.00290   0.00031
   D32       -2.68869  -0.01034   0.00000  -0.02167  -0.02149  -2.71018
   D33        2.68784   0.00760   0.00000   0.01689   0.01678   2.70463
   D34       -0.00405  -0.00125   0.00000  -0.00185  -0.00180  -0.00586
   D35        2.61347   0.00606   0.00000   0.01764   0.01777   2.63124
   D36       -0.24506  -0.00067   0.00000  -0.00054  -0.00049  -0.24555
   D37        0.01841   0.00111   0.00000   0.00170   0.00167   0.02008
   D38       -2.84012  -0.00563   0.00000  -0.01649  -0.01658  -2.85670
   D39        0.02186   0.00096   0.00000   0.00211   0.00209   0.02395
   D40       -2.95938  -0.00239   0.00000  -0.00766  -0.00773  -2.96710
   D41        2.62774   0.00463   0.00000   0.01557   0.01571   2.64345
   D42       -0.35350   0.00129   0.00000   0.00581   0.00589  -0.34760
   D43       -0.00875   0.00108   0.00000   0.00136   0.00134  -0.00742
   D44       -2.61469  -0.00767   0.00000  -0.01737  -0.01734  -2.63203
   D45        0.01932  -0.00032   0.00000  -0.00028  -0.00028   0.01905
   D46        2.97188   0.00608   0.00000   0.01585   0.01578   2.98767
   D47       -0.02492  -0.00028   0.00000  -0.00064  -0.00062  -0.02554
   D48        2.83817   0.00704   0.00000   0.01833   0.01835   2.85652
   D49       -2.97323  -0.00573   0.00000  -0.01550  -0.01553  -2.98877
   D50       -0.11014   0.00159   0.00000   0.00347   0.00344  -0.10671
         Item               Value     Threshold  Converged?
 Maximum Force            0.121117     0.000450     NO 
 RMS     Force            0.024709     0.000300     NO 
 Maximum Displacement     0.418542     0.001800     NO 
 RMS     Displacement     0.061540     0.001200     NO 
 Predicted change in Energy=-6.526139D-02
 GradGradGradGradGradGradGradGradGradGradGradGradGradGradGradGradGradGrad

                          Input orientation:                          
 ---------------------------------------------------------------------
 Center     Atomic      Atomic             Coordinates (Angstroms)
 Number     Number       Type             X           Y           Z
 ---------------------------------------------------------------------
      1          6           0       -4.221658   -1.366246   -0.227313
      2          6           0       -2.908531   -0.965637   -0.618967
      3          6           0       -1.981617   -2.047735   -0.616917
      4          6           0       -4.336657   -2.731107    0.083265
      5         16           0       -2.820260   -3.537876   -0.113498
      6          1           0       -5.242683   -3.231087    0.390780
      7          6           0       -0.576112   -2.123011   -0.956757
      8         16           0        0.297196   -0.723907   -1.624003
      9          6           0        1.779194   -1.605356   -1.725294
     10          6           0        1.636690   -2.935798   -1.241394
     11          6           0        0.316197   -3.229177   -0.790137
     12          1           0        0.060131   -4.128657   -0.249801
     13         16           0        3.143633   -3.588647   -0.695293
     14          6           0        3.985982   -2.107481   -1.114359
     15          6           0        3.116111   -1.122931   -1.640828
     16          1           0        5.014208   -1.932582   -0.831936
     17          1           0        3.393762   -0.076884   -1.713058
     18          1           0       -2.826399    0.173664   -0.971908
     19          8           0       -5.509672   -0.412314   -0.404589
     20          1           0       -5.538517    0.724770   -0.739994
 ---------------------------------------------------------------------
                    Distance matrix (angstroms):
                    1          2          3          4          5
     1  C    0.000000
     2  C    1.427650   0.000000
     3  C    2.373605   1.424819   0.000000
     4  C    1.404467   2.376880   2.550189   0.000000
     5  S    2.587053   2.622918   1.782490   1.728887   0.000000
     6  H    2.214082   3.405894   3.612523   1.079550   2.493301
     7  C    3.794046   2.625603   1.447965   3.948812   2.783725
     8  S    4.773195   3.368266   2.821300   5.330685   4.463023
     9  C    6.189616   4.858802   3.945617   6.476251   5.242851
    10  C    6.149154   4.992792   3.777667   6.121886   4.636707
    11  C    4.937551   3.943575   2.589548   4.760247   3.223430
    12  H    5.095600   4.353612   2.938324   4.625562   2.943511
    13  S    7.707502   6.596567   5.352452   7.569429   5.992419
    14  C    8.288645   7.005964   5.988594   8.431461   7.026570
    15  C    7.476636   6.112712   5.281145   7.816807   6.588262
    16  H    9.272947   7.984368   7.000076   9.429417   8.029447
    17  H    7.865400   6.458004   5.829278   8.368456   7.290482
    18  H    2.207373   1.195542   2.402975   3.439762   3.809519
    19  O    1.612573   2.667969   3.894465   2.644006   4.133619
    20  H    2.523749   3.128730   4.511482   3.750375   5.094268
                    6          7          8          9         10
     6  H    0.000000
     7  C    4.982024   0.000000
     8  S    6.405900   1.779151   0.000000
     9  C    7.511825   2.531024   1.727290   0.000000
    10  C    7.076507   2.374475   2.614019   1.422863   0.000000
    11  C    5.682932   1.430937   2.640468   2.377324   1.425975
    12  H    5.416255   2.219731   3.679260   3.391062   2.211720
    13  S    8.463906   4.006614   4.143844   2.618404   1.730699
    14  C    9.417865   4.564842   3.972551   2.344203   2.494278
    15  C    8.856703   3.885952   2.847066   1.423804   2.373756
    16  H   10.410810   5.594955   4.933404   3.372015   3.547073
    17  H    9.432036   4.529738   3.164695   2.223333   3.388681
    18  H    4.391774   3.215391   3.314771   4.994395   5.446148
    19  O    2.940982   5.250846   5.941698   7.503011   7.624873
    20  H    4.124920   5.725584   6.077473   7.742687   8.070610
                   11         12         13         14         15
    11  C    0.000000
    12  H    1.080091   0.000000
    13  S    2.851773   3.161970   0.000000
    14  C    3.851057   4.499435   1.754714   0.000000
    15  C    3.605477   4.506479   2.640937   1.415339   0.000000
    16  H    4.873829   5.450184   2.502054   1.080556   2.216442
    17  H    4.501126   5.447117   3.664818   2.198293   1.084676
    18  H    4.635545   5.231010   7.062066   7.185572   6.118990
    19  O    6.482601   6.697602   9.222434   9.671856   8.742848
    20  H    7.064976   7.425693   9.694705   9.943736   8.895397
                   16         17         18         19         20
    16  H    0.000000
    17  H    2.616455   0.000000
    18  H    8.119790   6.269169   0.000000
    19  O   10.641705   9.005317   2.804492   0.000000
    20  H   10.882554   9.020816   2.777245   1.185870   0.000000
 Stoichiometry    C10H6OS3
 Framework group  C1[X(C10H6OS3)]
 Deg. of freedom    54
 Full point group                 C1      NOp   1
 Largest Abelian subgroup         C1      NOp   1
 Largest concise Abelian subgroup C1      NOp   1
                         Standard orientation:                         
 ---------------------------------------------------------------------
 Center     Atomic      Atomic             Coordinates (Angstroms)
 Number     Number       Type             X           Y           Z
 ---------------------------------------------------------------------
      1          6           0       -3.841785    0.327764    0.236518
      2          6           0       -2.535656    0.901724    0.183764
      3          6           0       -1.515561   -0.073650   -0.011587
      4          6           0       -3.861174   -1.069086    0.091725
      5         16           0       -2.261174   -1.689099   -0.119544
      6          1           0       -4.745280   -1.688583    0.094386
      7          6           0       -0.078442    0.038317   -0.148529
      8         16           0        0.730229    1.621562   -0.217534
      9          6           0        2.291822    0.898651   -0.367057
     10          6           0        2.220768   -0.522222   -0.342334
     11          6           0        0.889707   -1.014037   -0.201629
     12          1           0        0.657868   -2.051006   -0.007867
     13         16           0        3.705825   -1.233355    0.190785
     14          6           0        4.445668    0.346965    0.375828
     15          6           0        3.555394    1.399871    0.056476
     16          1           0        5.409919    0.477630    0.845667
     17          1           0        3.737210    2.427822    0.351065
     18          1           0       -2.521724    2.096789    0.214515
     19          8           0       -5.184766    1.218264    0.174838
     20          1           0       -5.282382    2.399720    0.205150
 ---------------------------------------------------------------------
 Rotational constants (GHZ):           1.4137776           0.2357867           0.2039137
 Standard basis: 6-311+G(d,p) (5D, 7F)
 There are   382 symmetry adapted cartesian basis functions of A   symmetry.
 There are   368 symmetry adapted basis functions of A   symmetry.
   368 basis functions,   594 primitive gaussians,   382 cartesian basis functions
    61 alpha electrons       61 beta electrons
       nuclear repulsion energy      1088.6957636740 Hartrees.
 NAtoms=   20 NActive=   20 NUniq=   20 SFac= 1.00D+00 NAtFMM=   60 NAOKFM=F Big=F
 Integral buffers will be    131072 words long.
 Raffenetti 2 integral format.
 Two-electron integral symmetry is turned on.
 Nuclear repulsion after empirical dispersion term =     1088.6858856114 Hartrees.
 One-electron integrals computed using PRISM.
 NBasis=   368 RedAO= T EigKep=  2.18D-06  NBF=   368
 NBsUse=   367 1.00D-06 EigRej=  3.46D-07 NBFU=   367
 Initial guess from the checkpoint file:  "/tmp/pbs.4766238[170].pbs/Gau-1600063.chk"
 B after Tr=    -0.000000    0.000000   -0.000000
         Rot=    0.999997   -0.000237   -0.000381    0.002590 Ang=  -0.30 deg.
 ExpMin= 4.05D-02 ExpMax= 9.34D+04 ExpMxC= 3.17D+03 IAcc=3 IRadAn=         5 AccDes= 0.00D+00
 Harris functional with IExCor= 4639 and IRadAn=       5 diagonalized for initial guess.
 HarFok:  IExCor= 4639 AccDes= 0.00D+00 IRadAn=         5 IDoV= 1 UseB2=F ITyADJ=14
 ICtDFT=  3500011 ScaDFX=  1.000000  1.000000  1.000000  1.000000
 FoFCou: FMM=F IPFlag=           0 FMFlag=      100000 FMFlg1=           0
         NFxFlg=           0 DoJE=T BraDBF=F KetDBF=T FulRan=T
         wScrn=  0.000000 ICntrl=       500 IOpCl=  0 I1Cent=   200000004 NGrid=           0
         NMat0=    1 NMatS0=      1 NMatT0=    0 NMatD0=    1 NMtDS0=    0 NMtDT0=    0
 Petite list used in FoFCou.
 Requested convergence on RMS density matrix=1.00D-08 within 128 cycles.
 Requested convergence on MAX density matrix=1.00D-06.
 Requested convergence on             energy=1.00D-06.
 No special actions if energy rises.
 SCF Done:  E(RwB97XD) =  -1654.29648451     A.U. after   15 cycles
            NFock= 15  Conv=0.82D-08     -V/T= 2.0029
 Calling FoFJK, ICntrl=      2127 FMM=F ISym2X=0 I1Cent= 0 IOpClX= 0 NMat=1 NMatS=1 NMatT=0.
 ***** Axes restored to original set *****
 -------------------------------------------------------------------
 Center     Atomic                   Forces (Hartrees/Bohr)
 Number     Number              X              Y              Z
 -------------------------------------------------------------------
      1        6          -0.038081645    0.024684682   -0.020782955
      2        6           0.005894879    0.022646104   -0.014561484
      3        6          -0.035111165    0.017443407    0.003301578
      4        6          -0.006300406    0.045412191   -0.006672161
      5       16          -0.000040431    0.023258531   -0.002427388
      6        1           0.002370691   -0.003145879   -0.000929844
      7        6           0.037998525   -0.024564468    0.001513305
      8       16          -0.012347743   -0.011943641   -0.002881043
      9        6           0.006445153   -0.021337056    0.021797891
     10        6          -0.012106825    0.029071509    0.004538310
     11        6          -0.022503922    0.037690139   -0.008267152
     12        1          -0.003677560   -0.002107326   -0.002745284
     13       16           0.008921845    0.009082471   -0.010530810
     14        6          -0.035447189    0.029341911   -0.013054354
     15        6           0.023721413   -0.030523717    0.023407937
     16        1           0.001254690   -0.005634433   -0.003598659
     17        1           0.002286390   -0.003631506   -0.007396386
     18        1           0.010994361   -0.056430940    0.015845259
     19        8           0.036484412    0.030502998   -0.008157728
     20        1           0.029244528   -0.109814975    0.031600969
 -------------------------------------------------------------------
 Cartesian Forces:  Max     0.109814975 RMS     0.025293995

 GradGradGradGradGradGradGradGradGradGradGradGradGradGradGradGradGradGrad
 Berny optimization.
 Using GEDIIS/GDIIS optimizer.
 FormGI is forming the generalized inverse of G from B-inverse, IUseBI=4.
 Internal  Forces:  Max     0.114945603 RMS     0.020395339
 Search for a local minimum.
 Step number   2 out of a maximum of  116
 All quantities printed in internal units (Hartrees-Bohrs-Radians)
 Mixed Optimization -- RFO/linear search
 Update second derivatives using D2CorX and points    1    2
 DE= -7.01D-02 DEPred=-6.53D-02 R= 1.07D+00
 TightC=F SS=  1.41D+00  RLast= 3.06D-01 DXNew= 5.0454D-01 9.1891D-01
 Trust test= 1.07D+00 RLast= 3.06D-01 DXMaxT set to 5.05D-01
 ITU=  1  0
 Use linear search instead of GDIIS.
 Linear search step of   0.600 exceeds DXMaxT=   0.505 but not scaled.
 Quartic linear search produced a step of  2.00000.
 Iteration  1 RMS(Cart)=  0.10762794 RMS(Int)=  0.01855181
 Iteration  2 RMS(Cart)=  0.02100787 RMS(Int)=  0.00036118
 Iteration  3 RMS(Cart)=  0.00011346 RMS(Int)=  0.00035341
 Iteration  4 RMS(Cart)=  0.00000003 RMS(Int)=  0.00035341
 Iteration  1 RMS(Cart)=  0.00000451 RMS(Int)=  0.00000242
 Iteration  2 RMS(Cart)=  0.00000246 RMS(Int)=  0.00000270
 Iteration  3 RMS(Cart)=  0.00000134 RMS(Int)=  0.00000305
 Iteration  4 RMS(Cart)=  0.00000073 RMS(Int)=  0.00000328
 Variable       Old X    -DE/DX   Delta X   Delta X   Delta X     New X
                                 (Linear)    (Quad)   (Total)
    R1        2.69787  -0.01303  -0.04261   0.00000  -0.04218   2.65569
    R2        2.65406  -0.04793  -0.11971   0.00000  -0.11952   2.53453
    R3        3.04732  -0.10199  -0.29542   0.00000  -0.29542   2.75190
    R4        2.69252  -0.05057  -0.13309   0.00000  -0.13293   2.55959
    R5        2.25925  -0.05770  -0.18279   0.00000  -0.18279   2.07646
    R6        3.36842  -0.01907  -0.05472   0.00000  -0.05504   3.31338
    R7        2.73626  -0.00623  -0.02656   0.00000  -0.02656   2.70970
    R8        3.26712  -0.01110  -0.03918   0.00000  -0.03948   3.22764
    R9        2.04005  -0.00080  -0.00135   0.00000  -0.00135   2.03870
   R10        3.36211  -0.01399  -0.04178   0.00000  -0.04197   3.32014
   R11        2.70408  -0.04995  -0.12622   0.00000  -0.12625   2.57783
   R12        3.26410  -0.00157  -0.00880   0.00000  -0.00885   3.25526
   R13        2.68882  -0.02762  -0.06835   0.00000  -0.06795   2.62087
   R14        2.69060  -0.00072  -0.00715   0.00000  -0.00687   2.68373
   R15        2.69470  -0.00716  -0.02557   0.00000  -0.02540   2.66930
   R16        3.27055  -0.00169  -0.00821   0.00000  -0.00831   3.26224
   R17        2.04108   0.00125   0.00326   0.00000   0.00326   2.04434
   R18        3.31593  -0.01231  -0.03628   0.00000  -0.03658   3.27935
   R19        2.67460  -0.04614  -0.11459   0.00000  -0.11462   2.55998
   R20        2.04196  -0.00066  -0.00194   0.00000  -0.00194   2.04002
   R21        2.04974  -0.00243  -0.00709   0.00000  -0.00709   2.04265
   R22        2.24097  -0.11495  -0.31692   0.00000  -0.31692   1.92405
    A1        1.99179   0.01141   0.04318   0.00000   0.04375   2.03554
    A2        2.13946   0.00609   0.01372   0.00000   0.01349   2.15295
    A3        2.13387  -0.01686  -0.05383   0.00000  -0.05431   2.07956
    A4        1.96585  -0.00203  -0.01204   0.00000  -0.01146   1.95439
    A5        1.99499   0.01775   0.06329   0.00000   0.06300   2.05798
    A6        2.31784  -0.01553  -0.05009   0.00000  -0.05046   2.26738
    A7        1.90629   0.00220   0.00378   0.00000   0.00372   1.91001
    A8        2.30584  -0.00951  -0.02615   0.00000  -0.02612   2.27971
    A9        2.07090   0.00732   0.02237   0.00000   0.02240   2.09330
   A10        1.93531  -0.00834  -0.03615   0.00000  -0.03622   1.89909
   A11        2.19172   0.00808   0.03184   0.00000   0.03186   2.22358
   A12        2.15605   0.00028   0.00442   0.00000   0.00444   2.16049
   A13        1.62552  -0.00323   0.00126   0.00000   0.00020   1.62573
   A14        2.12187  -0.00561  -0.01460   0.00000  -0.01469   2.10718
   A15        2.23719  -0.00136  -0.00614   0.00000  -0.00623   2.23097
   A16        1.92355   0.00703   0.02096   0.00000   0.02110   1.94466
   A17        1.61265  -0.00538  -0.01354   0.00000  -0.01347   1.59918
   A18        1.95119  -0.00707  -0.02050   0.00000  -0.02113   1.93006
   A19        2.25138   0.00662   0.02492   0.00000   0.02418   2.27556
   A20        1.97217   0.00383   0.01319   0.00000   0.01345   1.98562
   A21        1.97441   0.00461   0.01588   0.00000   0.01591   1.99032
   A22        1.95284  -0.00857  -0.02676   0.00000  -0.02715   1.92569
   A23        2.25086   0.00711   0.02671   0.00000   0.02610   2.27696
   A24        1.96228   0.00083  -0.00277   0.00000  -0.00239   1.95989
   A25        2.15818  -0.00234  -0.00634   0.00000  -0.00666   2.15152
   A26        2.15219   0.00201   0.01208   0.00000   0.01174   2.16393
   A27        1.59501  -0.00058   0.00328   0.00000   0.00318   1.59819
   A28        1.96165   0.00234   0.00316   0.00000   0.00306   1.96472
   A29        2.13059  -0.00474  -0.01169   0.00000  -0.01203   2.11856
   A30        2.17665   0.00333   0.01383   0.00000   0.01358   2.19023
   A31        1.94278   0.00298   0.00711   0.00000   0.00743   1.95021
   A32        2.16901   0.00027   0.00705   0.00000   0.00642   2.17543
   A33        2.13922  -0.00159  -0.00453   0.00000  -0.00522   2.13400
   A34        2.23667  -0.05924  -0.20574   0.00000  -0.20574   2.03093
    D1        0.00367  -0.00081  -0.00633   0.00000  -0.00641  -0.00274
    D2        3.05659   0.00007   0.00140   0.00000   0.00218   3.05877
    D3       -2.93885  -0.00233  -0.01636   0.00000  -0.01741  -2.95626
    D4        0.11407  -0.00145  -0.00864   0.00000  -0.00882   0.10525
    D5       -0.00485   0.00059   0.00372   0.00000   0.00376  -0.00109
    D6       -3.13163  -0.00077  -0.00287   0.00000  -0.00277  -3.13440
    D7        2.93839   0.00502   0.02283   0.00000   0.02233   2.96072
    D8       -0.18839   0.00366   0.01624   0.00000   0.01581  -0.17258
    D9       -0.13104   0.00137   0.00438   0.00000   0.00410  -0.12694
   D10       -3.05754  -0.00371  -0.01872   0.00000  -0.01844  -3.07598
   D11       -0.00081   0.00071   0.00615   0.00000   0.00588   0.00507
   D12        3.12071   0.00169   0.00619   0.00000   0.00593   3.12665
   D13       -3.03218  -0.00287  -0.01229   0.00000  -0.01205  -3.04423
   D14        0.08934  -0.00188  -0.01226   0.00000  -0.01200   0.07735
   D15       -0.00163  -0.00030  -0.00338   0.00000  -0.00331  -0.00494
   D16       -3.12626  -0.00092  -0.00280   0.00000  -0.00274  -3.12900
   D17       -0.08728  -0.00218  -0.00001   0.00000  -0.00000  -0.08728
   D18        3.01436   0.00019   0.00766   0.00000   0.00768   3.02204
   D19        3.03271  -0.00118  -0.00020   0.00000  -0.00018   3.03253
   D20       -0.14883   0.00118   0.00747   0.00000   0.00750  -0.14134
   D21        0.00367  -0.00017  -0.00018   0.00000  -0.00028   0.00339
   D22        3.13081   0.00124   0.00659   0.00000   0.00625   3.13705
   D23        3.13943   0.00107   0.00401   0.00000   0.00402  -3.13974
   D24        0.03130  -0.00078  -0.00195   0.00000  -0.00206   0.02924
   D25        3.14130  -0.00162  -0.00712   0.00000  -0.00704   3.13425
   D26       -0.15144   0.00220   0.01456   0.00000   0.01454  -0.13689
   D27       -0.03657   0.00031  -0.00082   0.00000  -0.00057  -0.03714
   D28        2.95389   0.00412   0.02087   0.00000   0.02102   2.97490
   D29       -0.01822   0.00135   0.00511   0.00000   0.00502  -0.01320
   D30       -2.63442  -0.00661  -0.03508   0.00000  -0.03512  -2.66953
   D31        0.00031  -0.00114  -0.00581   0.00000  -0.00564  -0.00534
   D32       -2.71018  -0.00909  -0.04298   0.00000  -0.04187  -2.75205
   D33        2.70463   0.00703   0.03357   0.00000   0.03290   2.73753
   D34       -0.00586  -0.00092  -0.00361   0.00000  -0.00333  -0.00919
   D35        2.63124   0.00614   0.03553   0.00000   0.03626   2.66750
   D36       -0.24555  -0.00035  -0.00097   0.00000  -0.00066  -0.24621
   D37        0.02008   0.00069   0.00334   0.00000   0.00320   0.02329
   D38       -2.85670  -0.00580  -0.03316   0.00000  -0.03372  -2.89042
   D39        0.02395   0.00054   0.00417   0.00000   0.00405   0.02800
   D40       -2.96710  -0.00283  -0.01545   0.00000  -0.01586  -2.98296
   D41        2.64345   0.00520   0.03142   0.00000   0.03220   2.67565
   D42       -0.34760   0.00183   0.01179   0.00000   0.01229  -0.33531
   D43       -0.00742   0.00090   0.00267   0.00000   0.00253  -0.00489
   D44       -2.63203  -0.00679  -0.03467   0.00000  -0.03447  -2.66650
   D45        0.01905  -0.00042  -0.00056   0.00000  -0.00055   0.01850
   D46        2.98767   0.00561   0.03157   0.00000   0.03114   3.01881
   D47       -0.02554   0.00001  -0.00124   0.00000  -0.00109  -0.02663
   D48        2.85652   0.00668   0.03670   0.00000   0.03682   2.89334
   D49       -2.98877  -0.00526  -0.03107   0.00000  -0.03127  -3.02004
   D50       -0.10671   0.00141   0.00687   0.00000   0.00664  -0.10007
         Item               Value     Threshold  Converged?
 Maximum Force            0.114946     0.000450     NO 
 RMS     Force            0.020490     0.000300     NO 
 Maximum Displacement     0.753106     0.001800     NO 
 RMS     Displacement     0.119602     0.001200     NO 
 Predicted change in Energy=-1.033045D-01
 GradGradGradGradGradGradGradGradGradGradGradGradGradGradGradGradGradGrad

                          Input orientation:                          
 ---------------------------------------------------------------------
 Center     Atomic      Atomic             Coordinates (Angstroms)
 Number     Number       Type             X           Y           Z
 ---------------------------------------------------------------------
      1          6           0       -4.162155   -1.373689   -0.262589
      2          6           0       -2.862002   -0.993921   -0.637197
      3          6           0       -2.001446   -2.039593   -0.612253
      4          6           0       -4.345232   -2.665707    0.047309
      5         16           0       -2.858190   -3.488688   -0.121946
      6          1           0       -5.264303   -3.143327    0.349092
      7          6           0       -0.605171   -2.107291   -0.931530
      8         16           0        0.236349   -0.708137   -1.580422
      9          6           0        1.719372   -1.579977   -1.669395
     10          6           0        1.552740   -2.874678   -1.200897
     11          6           0        0.240670   -3.164544   -0.765348
     12          1           0       -0.036682   -4.070026   -0.242369
     13         16           0        3.069265   -3.532358   -0.703178
     14          6           0        3.899302   -2.071398   -1.136884
     15          6           0        3.061830   -1.119870   -1.614798
     16          1           0        4.943364   -1.927425   -0.903235
     17          1           0        3.362079   -0.086826   -1.719988
     18          1           0       -2.704651    0.040792   -0.971871
     19          8           0       -5.324151   -0.509412   -0.415657
     20          1           0       -5.139990    0.448073   -0.708846
 ---------------------------------------------------------------------
                    Distance matrix (angstroms):
                    1          2          3          4          5
     1  C    0.000000
     2  C    1.405329   0.000000
     3  C    2.287872   1.354478   0.000000
     4  C    1.341218   2.337389   2.514035   0.000000
     5  S    2.488639   2.547422   1.753364   1.707993   0.000000
     6  H    2.172672   3.371018   3.576123   1.078836   2.475991
     7  C    3.692937   2.533675   1.433911   3.906150   2.764014
     8  S    4.639663   3.251327   2.778102   5.241419   4.408490
     9  C    6.050951   4.732640   3.895289   6.395725   5.195367
    10  C    5.982759   4.831661   3.698121   6.032226   4.582296
    11  C    4.779623   3.788747   2.513172   4.683989   3.181504
    12  H    4.928506   4.195324   2.849521   4.540884   2.883290
    13  S    7.559590   6.451973   5.286655   7.502605   5.956044
    14  C    8.138690   6.864829   5.924110   8.350321   6.978718
    15  C    7.353832   6.005277   5.242876   7.747049   6.548781
    16  H    9.144809   7.865491   6.951808   9.366248   7.994510
    17  H    7.771366   6.382355   5.814446   8.317248   7.267610
    18  H    2.151314   1.098816   2.225269   3.324961   3.633617
    19  O    1.456241   2.519128   3.663396   2.412929   3.878571
    20  H    2.115212   2.696982   4.006030   3.301369   4.587935
                    6          7          8          9         10
     6  H    0.000000
     7  C    4.941748   0.000000
     8  S    6.317464   1.756944   0.000000
     9  C    7.435729   2.495196   1.722608   0.000000
    10  C    6.996193   2.306084   2.563362   1.386906   0.000000
    11  C    5.616686   1.364129   2.588107   2.348342   1.412534
    12  H    5.341968   2.156491   3.628668   3.364591   2.207690
    13  S    8.408744   3.947714   4.095265   2.562729   1.726302
    14  C    9.344989   4.509295   3.933502   2.297207   2.481071
    15  C    8.790662   3.858595   2.855530   1.420167   2.351174
    16  H   10.355830   5.551522   4.909301   3.331944   3.533019
    17  H    9.382844   4.521396   3.189937   2.220484   3.363820
    18  H    4.293643   3.003947   3.095272   4.762920   5.165055
    19  O    2.743343   5.008803   5.684657   7.233891   7.314554
    20  H    3.746043   5.209996   5.567898   7.217097   7.488353
                   11         12         13         14         15
    11  C    0.000000
    12  H    1.081818   0.000000
    13  S    2.853087   3.185646   0.000000
    14  C    3.836482   4.504070   1.735358   0.000000
    15  C    3.586251   4.493079   2.578993   1.354683   0.000000
    16  H    4.864649   5.461533   2.475496   1.079530   2.167634
    17  H    4.486299   5.440664   3.604349   2.137088   1.080923
    18  H    4.357952   4.954700   6.795418   6.935472   5.917161
    19  O    6.175698   6.376937   8.925822   9.382540   8.493249
    20  H    6.481181   6.831879   9.123362   9.393602   8.399348
                   16         17         18         19         20
    16  H    0.000000
    17  H    2.560342   0.000000
    18  H    7.897514   6.114015   0.000000
    19  O   10.376433   8.793774   2.733839   0.000000
    20  H   10.361217   8.578678   2.483131   1.018161   0.000000
 Stoichiometry    C10H6OS3
 Framework group  C1[X(C10H6OS3)]
 Deg. of freedom    54
 Full point group                 C1      NOp   1
 Largest Abelian subgroup         C1      NOp   1
 Largest concise Abelian subgroup C1      NOp   1
                         Standard orientation:                         
 ---------------------------------------------------------------------
 Center     Atomic      Atomic             Coordinates (Angstroms)
 Number     Number       Type             X           Y           Z
 ---------------------------------------------------------------------
      1          6           0       -3.747796    0.362358    0.213949
      2          6           0       -2.448664    0.895834    0.162836
      3          6           0       -1.511731   -0.066956   -0.009792
      4          6           0       -3.856730   -0.968230    0.085373
      5         16           0       -2.295507   -1.632011   -0.112664
      6          1           0       -4.761793   -1.555339    0.092500
      7          6           0       -0.086218    0.028849   -0.131603
      8         16           0        0.706173    1.595658   -0.195458
      9          6           0        2.257754    0.860164   -0.333387
     10          6           0        2.145893   -0.522043   -0.311104
[...]
 Stoichiometry    C10H6OS3
 Framework group  C1[X(C10H6OS3)]
 Deg. of freedom    54
 Full point group                 C1      NOp   1
 Largest Abelian subgroup         C1      NOp   1
 Largest concise Abelian subgroup C1      NOp   1
                         Standard orientation:                         
 ---------------------------------------------------------------------
 Center     Atomic      Atomic             Coordinates (Angstroms)
 Number     Number       Type             X           Y           Z
 ---------------------------------------------------------------------
      1          6           0       -3.816388    0.418859    0.041365
      2          6           0       -2.474369    0.896064    0.060861
      3          6           0       -1.551023   -0.112304    0.004340
      4          6           0       -3.900363   -0.937370   -0.031044
      5         16           0       -2.334274   -1.656233   -0.082632
      6          1           0       -4.792150   -1.542640   -0.056572
      7          6           0       -0.101155   -0.003622   -0.004468
      8         16           0        0.656262    1.578220   -0.069843
      9          6           0        2.232973    0.864489   -0.029642
     10          6           0        2.148516   -0.512224    0.026281
     11          6           0        0.819175   -1.012592    0.043933
     12          1           0        0.554404   -2.060035    0.096179
     13         16           0        3.725456   -1.224746    0.065534
     14          6           0        4.464634    0.345594    0.004576
     15          6           0        3.565485    1.364702   -0.042839
     16          1           0        5.541677    0.421311    0.007012
     17          1           0        3.841903    2.408643   -0.084841
     18          1           0       -2.211485    1.945624    0.122889
     19          8           0       -4.920149    1.209106    0.091457
     20          1           0       -4.657175    2.128815    0.134548
 ---------------------------------------------------------------------
 Rotational constants (GHZ):           1.5259478           0.2417332           0.2088206

 **********************************************************************

            Population analysis using the SCF Density.

 **********************************************************************

 Orbital symmetries:
       Occupied  (A) (A) (A) (A) (A) (A) (A) (A) (A) (A) (A) (A)
                 (A) (A) (A) (A) (A) (A) (A) (A) (A) (A) (A) (A)
                 (A) (A) (A) (A) (A) (A) (A) (A) (A) (A) (A) (A)
                 (A) (A) (A) (A) (A) (A) (A) (A) (A) (A) (A) (A)
                 (A) (A) (A) (A) (A) (A) (A) (A) (A) (A) (A) (A)
                 (A)
       Virtual   (A) (A) (A) (A) (A) (A) (A) (A) (A) (A) (A) (A)
                 (A) (A) (A) (A) (A) (A) (A) (A) (A) (A) (A) (A)
                 (A) (A) (A) (A) (A) (A) (A) (A) (A) (A) (A) (A)
                 (A) (A) (A) (A) (A) (A) (A) (A) (A) (A) (A) (A)
                 (A) (A) (A) (A) (A) (A) (A) (A) (A) (A) (A) (A)
                 (A) (A) (A) (A) (A) (A) (A) (A) (A) (A) (A) (A)
                 (A) (A) (A) (A) (A) (A) (A) (A) (A) (A) (A) (A)
                 (A) (A) (A) (A) (A) (A) (A) (A) (A) (A) (A) (A)
                 (A) (A) (A) (A) (A) (A) (A) (A) (A) (A) (A) (A)
                 (A) (A) (A) (A) (A) (A) (A) (A) (A) (A) (A) (A)
                 (A) (A) (A) (A) (A) (A) (A) (A) (A) (A) (A) (A)
                 (A) (A) (A) (A) (A) (A) (A) (A) (A) (A) (A) (A)
                 (A) (A) (A) (A) (A) (A) (A) (A) (A) (A) (A) (A)
                 (A) (A) (A) (A) (A) (A) (A) (A) (A) (A) (A) (A)
                 (A) (A) (A) (A) (A) (A) (A) (A) (A) (A) (A) (A)
                 (A) (A) (A) (A) (A) (A) (A) (A) (A) (A) (A) (A)
                 (A) (A) (A) (A) (A) (A) (A) (A) (A) (A) (A) (A)
                 (A) (A) (A) (A) (A) (A) (A) (A) (A) (A) (A) (A)
                 (A) (A) (A) (A) (A) (A) (A) (A) (A) (A) (A) (A)
                 (A) (A) (A) (A) (A) (A) (A) (A) (A) (A) (A) (A)
                 (A) (A) (A) (A) (A) (A) (A) (A) (A) (A) (A) (A)
                 (A) (A) (A) (A) (A) (A) (A) (A) (A) (A) (A) (A)
                 (A) (A) (A) (A) (A) (A) (A) (A) (A) (A) (A) (A)
                 (A) (A) (A) (A) (A) (A) (A) (A) (A) (A) (A) (A)
                 (A) (A) (A) (A) (A) (A) (A) (A) (A) (A) (A) (A)
                 (A) (A) (A) (A) (A)
 The electronic state is 1-A.
 Alpha  occ. eigenvalues --  -89.05567 -89.05478 -89.05245 -19.28845 -10.35881
 Alpha  occ. eigenvalues --  -10.34440 -10.34260 -10.32919 -10.32847 -10.32712
 Alpha  occ. eigenvalues --  -10.31022 -10.30921 -10.30889 -10.30329  -8.09623
 Alpha  occ. eigenvalues --   -8.09521  -8.09316  -6.04485  -6.04370  -6.04163
 Alpha  occ. eigenvalues --   -6.04114  -6.03996  -6.03778  -6.03654  -6.03584
 Alpha  occ. eigenvalues --   -6.03389  -1.17937  -1.02761  -0.99985  -0.95746
 Alpha  occ. eigenvalues --   -0.87670  -0.86464  -0.84381  -0.81444  -0.80417
 Alpha  occ. eigenvalues --   -0.72585  -0.68103  -0.67177  -0.64833  -0.63887
 Alpha  occ. eigenvalues --   -0.62178  -0.59030  -0.57124  -0.52597  -0.52527
 Alpha  occ. eigenvalues --   -0.52136  -0.51159  -0.49928  -0.48117  -0.47809
 Alpha  occ. eigenvalues --   -0.46374  -0.46023  -0.45610  -0.43530  -0.42581
 Alpha  occ. eigenvalues --   -0.42361  -0.37529  -0.34830  -0.31838  -0.31248
 Alpha  occ. eigenvalues --   -0.27433
 Alpha virt. eigenvalues --   -0.00432   0.04788   0.05441   0.05564   0.06006
 Alpha virt. eigenvalues --    0.06696   0.07490   0.07680   0.08434   0.08503
 Alpha virt. eigenvalues --    0.08958   0.09383   0.10039   0.10151   0.10337
 Alpha virt. eigenvalues --    0.11036   0.11650   0.11864   0.12740   0.12761
 Alpha virt. eigenvalues --    0.13467   0.13781   0.13957   0.14504   0.14676
 Alpha virt. eigenvalues --    0.15566   0.16196   0.16792   0.17352   0.17674
 Alpha virt. eigenvalues --    0.18020   0.18242   0.18718   0.19008   0.19198
 Alpha virt. eigenvalues --    0.19889   0.20575   0.21152   0.21487   0.21926
 Alpha virt. eigenvalues --    0.22525   0.22613   0.23239   0.23562   0.23755
 Alpha virt. eigenvalues --    0.24141   0.24722   0.24778   0.25540   0.26061
 Alpha virt. eigenvalues --    0.26199   0.26818   0.26874   0.27422   0.27847
 Alpha virt. eigenvalues --    0.28113   0.28667   0.29295   0.29523   0.30042
 Alpha virt. eigenvalues --    0.30664   0.31666   0.32759   0.33760   0.34131
 Alpha virt. eigenvalues --    0.34977   0.35409   0.36061   0.36972   0.37638
 Alpha virt. eigenvalues --    0.37690   0.39083   0.39754   0.40311   0.40660
 Alpha virt. eigenvalues --    0.40995   0.41459   0.41717   0.42586   0.43878
 Alpha virt. eigenvalues --    0.45529   0.46441   0.47551   0.48650   0.49819
 Alpha virt. eigenvalues --    0.51510   0.52789   0.54087   0.55373   0.55696
 Alpha virt. eigenvalues --    0.56996   0.60488   0.61480   0.62037   0.62450
 Alpha virt. eigenvalues --    0.63240   0.63545   0.63913   0.64097   0.64952
 Alpha virt. eigenvalues --    0.66816   0.68336   0.68486   0.69924   0.70456
 Alpha virt. eigenvalues --    0.70806   0.71161   0.72712   0.75938   0.76232
 Alpha virt. eigenvalues --    0.76663   0.79078   0.79932   0.80114   0.80478
 Alpha virt. eigenvalues --    0.81423   0.81899   0.83105   0.83376   0.84628
 Alpha virt. eigenvalues --    0.85835   0.86472   0.87077   0.87158   0.88852
 Alpha virt. eigenvalues --    0.90442   0.90646   0.91039   0.91704   0.92739
 Alpha virt. eigenvalues --    0.93075   0.93631   0.95613   0.96461   0.96682
 Alpha virt. eigenvalues --    0.97423   0.98919   0.99913   1.01412   1.02563
 Alpha virt. eigenvalues --    1.04068   1.05102   1.06591   1.08328   1.09213
 Alpha virt. eigenvalues --    1.10421   1.11067   1.11583   1.13470   1.13720
 Alpha virt. eigenvalues --    1.14910   1.15159   1.16038   1.17005   1.21532
 Alpha virt. eigenvalues --    1.22225   1.22505   1.23815   1.24351   1.26533
 Alpha virt. eigenvalues --    1.29236   1.29590   1.34087   1.36034   1.42607
 Alpha virt. eigenvalues --    1.43547   1.44641   1.46932   1.48824   1.50100
 Alpha virt. eigenvalues --    1.51758   1.60972   1.61413   1.63903   1.64736
 Alpha virt. eigenvalues --    1.65318   1.67113   1.68271   1.68887   1.69082
 Alpha virt. eigenvalues --    1.71345   1.74157   1.75654   1.77216   1.77796
 Alpha virt. eigenvalues --    1.78172   1.80781   1.81610   1.82579   1.84233
 Alpha virt. eigenvalues --    1.85694   1.87036   1.89290   1.90827   1.94140
 Alpha virt. eigenvalues --    1.94800   1.96217   1.97158   1.99727   2.01747
 Alpha virt. eigenvalues --    2.04980   2.05518   2.05763   2.07288   2.08246
 Alpha virt. eigenvalues --    2.09508   2.11553   2.13263   2.13862   2.15030
 Alpha virt. eigenvalues --    2.15890   2.16945   2.18646   2.20119   2.21457
 Alpha virt. eigenvalues --    2.21702   2.24088   2.26774   2.29291   2.29959
 Alpha virt. eigenvalues --    2.31226   2.38820   2.40732   2.46302   2.50546
 Alpha virt. eigenvalues --    2.51312   2.54647   2.59454   2.62784   2.68501
 Alpha virt. eigenvalues --    2.71850   2.76610   2.78310   2.79260   2.79712
 Alpha virt. eigenvalues --    2.80564   2.81000   2.82379   2.83781   2.83878
 Alpha virt. eigenvalues --    2.85513   2.87244   2.92182   2.94755   3.00054
 Alpha virt. eigenvalues --    3.01352   3.03745   3.04729   3.07936   3.11968
 Alpha virt. eigenvalues --    3.16828   3.17615   3.22672   3.24686   3.26933
 Alpha virt. eigenvalues --    3.29581   3.33007   3.38052   3.38704   3.40705
 Alpha virt. eigenvalues --    3.44716   3.47523   3.54116   3.56666   3.57955
 Alpha virt. eigenvalues --    3.66551   3.71805   3.74937   3.95196   3.97935
 Alpha virt. eigenvalues --    4.06867   4.18869   4.22091   4.32121   4.47804
 Alpha virt. eigenvalues --    4.68342   5.10979   5.54228   5.86553   8.09406
 Alpha virt. eigenvalues --    8.11841   8.12426  17.41135  17.42082  17.43029
 Alpha virt. eigenvalues --   17.59537  17.62026  17.64783  17.68276  17.69727
 Alpha virt. eigenvalues --   17.72884  23.60657  23.76448  23.88850  23.94073
 Alpha virt. eigenvalues --   23.98950  24.17324  24.23874  24.25910  24.27642
 Alpha virt. eigenvalues --   24.29609  50.08055 189.34325 189.37327 189.37702
          Condensed to atoms (all electrons):
               1          2          3          4          5          6
     1  C   11.118616  -3.848787   0.280827  -1.411160   0.669180   0.075723
     2  C   -3.848787  15.188624  -3.107432   1.259626  -3.015676  -0.046465
     3  C    0.280827  -3.107432   9.641805  -0.743608   0.778028   0.033795
     4  C   -1.411160   1.259626  -0.743608   7.209692  -0.408852   0.350051
     5  S    0.669180  -3.015676   0.778028  -0.408852  17.765181  -0.036332
     6  H    0.075723  -0.046465   0.033795   0.350051  -0.036332   0.441522
     7  C   -0.051323  -0.396404  -0.431039  -0.055283   0.810109  -0.002238
     8  S   -0.292263  -0.054220   0.465838   0.120914   0.086465  -0.000895
     9  C   -0.009082  -1.073113  -0.534571  -0.078596   0.302235  -0.000147
    10  C   -0.024359   0.299444  -0.086232  -0.033160  -0.196703   0.000323
    11  C    0.145485  -0.347168  -0.833650  -0.262617  -0.224099   0.002740
    12  H   -0.005603   0.011720   0.033848   0.006256   0.007947  -0.000000
    13  S   -0.005737   0.048153   0.010228   0.001430  -0.034331   0.000007
    14  C   -0.004897  -0.032268  -0.059580   0.000121   0.006085  -0.000000
    15  C    0.035423  -0.043326   0.277578  -0.005385   0.027812  -0.000007
    16  H    0.000001   0.000037   0.000088  -0.000000  -0.000007   0.000000
    17  H    0.000023  -0.000310  -0.000989  -0.000006   0.000022   0.000000
    18  H   -0.108216   0.276153   0.149683  -0.055684   0.018779  -0.000016
    19  O    0.203911   0.004155   0.041488  -0.250054   0.022639  -0.005418
    20  H   -0.035731  -0.039897  -0.014362   0.104057  -0.006770   0.000212
               7          8          9         10         11         12
     1  C   -0.051323  -0.292263  -0.009082  -0.024359   0.145485  -0.005603
     2  C   -0.396404  -0.054220  -1.073113   0.299444  -0.347168   0.011720
     3  C   -0.431039   0.465838  -0.534571  -0.086232  -0.833650   0.033848
     4  C   -0.055283   0.120914  -0.078596  -0.033160  -0.262617   0.006256
     5  S    0.810109   0.086465   0.302235  -0.196703  -0.224099   0.007947
     6  H   -0.002238  -0.000895  -0.000147   0.000323   0.002740  -0.000000
     7  C   10.547807   0.885669  -1.022991  -2.355041  -0.798208   0.063817
     8  S    0.885669  17.915528   0.062846  -1.313381  -0.920087   0.015005
     9  C   -1.022991   0.062846  15.918438  -4.763330   0.149633  -0.090876
    10  C   -2.355041  -1.313381  -4.763330  12.529289   1.127757  -0.078171
    11  C   -0.798208  -0.920087   0.149633   1.127757   8.154223   0.377770
    12  H    0.063817   0.015005  -0.090876  -0.078171   0.377770   0.479095
    13  S   -1.245441  -0.013747   0.047668  -0.300538   0.221771   0.010812
    14  C   -0.273538  -0.044246   0.962762  -0.857064   0.117635  -0.002900
    15  C    0.334418  -0.318792  -4.048366   1.656089  -1.118096   0.002432
    16  H    0.005471  -0.000624   0.010989   0.029808  -0.000937  -0.000002
    17  H   -0.006830   0.015641   0.019014  -0.057480  -0.000249   0.000002
    18  H    0.030273   0.025649   0.012541   0.003081   0.000159   0.000035
    19  O   -0.007407   0.008326   0.000922  -0.002006  -0.003644  -0.000002
    20  H    0.002310   0.002634  -0.000143   0.000225  -0.000280   0.000000
              13         14         15         16         17         18
     1  C   -0.005737  -0.004897   0.035423   0.000001   0.000023  -0.108216
     2  C    0.048153  -0.032268  -0.043326   0.000037  -0.000310   0.276153
     3  C    0.010228  -0.059580   0.277578   0.000088  -0.000989   0.149683
     4  C    0.001430   0.000121  -0.005385  -0.000000  -0.000006  -0.055684
     5  S   -0.034331   0.006085   0.027812  -0.000007   0.000022   0.018779
     6  H    0.000007  -0.000000  -0.000007   0.000000   0.000000  -0.000016
     7  C   -1.245441  -0.273538   0.334418   0.005471  -0.006830   0.030273
     8  S   -0.013747  -0.044246  -0.318792  -0.000624   0.015641   0.025649
     9  C    0.047668   0.962762  -4.048366   0.010989   0.019014   0.012541
    10  C   -0.300538  -0.857064   1.656089   0.029808  -0.057480   0.003081
    11  C    0.221771   0.117635  -1.118096  -0.000937  -0.000249   0.000159
    12  H    0.010812  -0.002900   0.002432  -0.000002   0.000002   0.000035
    13  S   17.800207   0.458079  -0.492146  -0.041332   0.006818   0.000052
    14  C    0.458079   5.706714  -0.226429   0.387347   0.026436   0.000214
    15  C   -0.492146  -0.226429   9.851827  -0.023158   0.358008  -0.001162
    16  H   -0.041332   0.387347  -0.023158   0.440768  -0.003590  -0.000000
    17  H    0.006818   0.026436   0.358008  -0.003590   0.481280   0.000000
    18  H    0.000052   0.000214  -0.001162  -0.000000   0.000000   0.502094
    19  O   -0.000052   0.000006   0.000007   0.000000   0.000000  -0.002763
    20  H    0.000001   0.000000   0.000020   0.000000  -0.000000   0.002686
              19         20
     1  C    0.203911  -0.035731
     2  C    0.004155  -0.039897
     3  C    0.041488  -0.014362
     4  C   -0.250054   0.104057
     5  S    0.022639  -0.006770
     6  H   -0.005418   0.000212
     7  C   -0.007407   0.002310
     8  S    0.008326   0.002634
     9  C    0.000922  -0.000143
    10  C   -0.002006   0.000225
    11  C   -0.003644  -0.000280
    12  H   -0.000002   0.000000
    13  S   -0.000052   0.000001
    14  C    0.000006   0.000000
    15  C    0.000007   0.000020
    16  H    0.000000   0.000000
    17  H    0.000000  -0.000000
    18  H   -0.002763   0.002686
    19  O    7.993848   0.268957
    20  H    0.268957   0.450817
 Mulliken charges:
               1
     1  C   -0.732031
     2  C    0.917155
     3  C    0.098256
     4  C    0.252258
     5  S   -0.571714
     6  H    0.187146
     7  C   -0.034129
     8  S   -0.646261
     9  C    0.134168
    10  C    0.421449
    11  C    0.211862
    12  H    0.168816
    13  S   -0.471901
    14  C   -0.164478
    15  C   -0.266747
    16  H    0.195144
    17  H    0.162211
    18  H    0.146443
    19  O   -0.272911
    20  H    0.265263
 Sum of Mulliken charges =  -0.00000
 Mulliken charges with hydrogens summed into heavy atoms:
               1
     1  C   -0.732031
     2  C    1.063598
     3  C    0.098256
     4  C    0.439404
     5  S   -0.571714
     7  C   -0.034129
     8  S   -0.646261
     9  C    0.134168
    10  C    0.421449
    11  C    0.380678
    13  S   -0.471901
    14  C    0.030666
    15  C   -0.104536
    19  O   -0.007648
 Electronic spatial extent (au):  <R**2>=           4749.5024
 Charge=             -0.0000 electrons
 Dipole moment (field-independent basis, Debye):
    X=              1.1586    Y=              1.5490    Z=              0.0935  Tot=              1.9366
 Quadrupole moment (field-independent basis, Debye-Ang):
   XX=            -96.0935   YY=            -90.2193   ZZ=           -108.3192
   XY=             -0.4371   XZ=             -0.2662   YZ=              0.2319
 Traceless Quadrupole moment (field-independent basis, Debye-Ang):
   XX=              2.1172   YY=              7.9913   ZZ=            -10.1085
   XY=             -0.4371   XZ=             -0.2662   YZ=              0.2319
 Octapole moment (field-independent basis, Debye-Ang**2):
  XXX=             78.1549  YYY=             22.0498  ZZZ=              0.3204  XYY=            -29.5112
  XXY=             23.3722  XXZ=             -0.2876  XZZ=             -7.7259  YZZ=              1.0566
  YYZ=              0.9728  XYZ=             -2.9754
 Hexadecapole moment (field-independent basis, Debye-Ang**3):
 XXXX=          -5234.1708 YYYY=           -866.0717 ZZZZ=           -134.9481 XXXY=             68.5720
 XXXZ=              1.7200 YYYX=            -63.7381 YYYZ=              2.0523 ZZZX=             -1.4949
 ZZZY=              0.7045 XXYY=           -882.5056 XXZZ=           -996.1897 YYZZ=           -192.9467
 XXYZ=              6.5461 YYXZ=             -5.5156 ZZXY=            -15.1721
 N-N= 1.110400330664D+03 E-N=-6.131982467874D+03  KE= 1.651139050439D+03
 Unable to Open any file for archive entry.
 1\1\GINC-CX3-12-28\FOpt\RwB97XD\6-311+G(d,p)\C10H6O1S3\NS5018\26-Oct-2
 021\0\\# opt=modredundant wb97xd/6-311+g(d,p)\\pg2T_TT_-5.pdb\\0,1\C,-
 4.2713355531,-1.3662346339,-0.4202774552\C,-2.9166880647,-1.0089706525
 ,-0.6779855596\C,-2.0561142039,-2.0659607566,-0.5565238025\C,-4.427235
 0602,-2.6817974253,-0.1094049289\S,-2.9155690948,-3.5102923186,-0.1322
 500225\H,-5.3425039168,-3.1993909707,0.1286463296\C,-0.6154377688,-2.0
 788224607,-0.7522038263\S,0.2009885442,-0.6365347653,-1.3296398463\C,1
 .7349921374,-1.436530246,-1.2673199238\C,1.5938338294,-2.7376060901,-0
 .8281441066\C,0.2553466635,-3.1082490325,-0.5299755622\H,-0.0495194994
 ,-4.0796713095,-0.1647822638\S,3.1280012661,-3.536710464,-0.7670852667
 \C,3.926371748,-2.1028528197,-1.335172381\C,3.0771751711,-1.065103153,
 -1.5615325963\H,4.9974846789,-2.114840545,-1.4705799921\H,3.3947105498
 ,-0.0952443345,-1.917243755\H,-2.5991858357,-0.0049755448,-0.934339929
 \O,-5.321717402,-0.5062066261,-0.4686194923\H,-5.0125981892,0.36799414
 88,-0.7075656193\\Version=ES64L-G16RevC.01\State=1-A\HF=-1654.4117766\
 RMSD=7.414e-09\RMSF=2.047e-04\Dipole=0.4848897,0.5591209,-0.1810715\Qu
 adrupole=1.361619,5.1081234,-6.4697424,-0.4434028,-1.244333,-3.264476\
 PG=C01 [X(C10H6O1S3)]\\@
 The archive entry for this job was punched.


 I WISH TO HAVE NO CONNECTION WITH ANY SHIP THAT DOES NOT SAIL FAST,
 FOR I INTEND TO GO IN HARM'S WAY.
     -- JOHN PAUL JONES, USN 1747-1792
 Job cpu time:       0 days  2 hours 54 minutes 11.7 seconds.
 Elapsed time:       0 days  0 hours 21 minutes 56.1 seconds.
 File lengths (MBytes):  RWF=     86 Int=      0 D2E=      0 Chk=     11 Scr=      1
 Normal termination of Gaussian 16 at Tue Oct 26 23:28:47 2021.
