 Entering Gaussian System, Link 0=g16
 Input=pg2T_TT_15.gjf
 Output=pg2T_TT_15.log
 Initial command:
 /apps/gaussian/g16-c01-avx/g16/l1.exe "/tmp/pbs.4766238[190].pbs/Gau-3765758.inp" -scrdir="/tmp/pbs.4766238[190].pbs/"
 Entering Link 1 = /apps/gaussian/g16-c01-avx/g16/l1.exe PID=   3765759.
  
 Copyright (c) 1988-2019, Gaussian, Inc.  All Rights Reserved.
  
 This is part of the Gaussian(R) 16 program.  It is based on
 the Gaussian(R) 09 system (copyright 2009, Gaussian, Inc.),
 the Gaussian(R) 03 system (copyright 2003, Gaussian, Inc.),
 the Gaussian(R) 98 system (copyright 1998, Gaussian, Inc.),
 the Gaussian(R) 94 system (copyright 1995, Gaussian, Inc.),
 the Gaussian 92(TM) system (copyright 1992, Gaussian, Inc.),
 the Gaussian 90(TM) system (copyright 1990, Gaussian, Inc.),
 the Gaussian 88(TM) system (copyright 1988, Gaussian, Inc.),
 the Gaussian 86(TM) system (copyright 1986, Carnegie Mellon
 University), and the Gaussian 82(TM) system (copyright 1983,
 Carnegie Mellon University). Gaussian is a federally registered
 trademark of Gaussian, Inc.
  
 This software contains proprietary and confidential information,
 including trade secrets, belonging to Gaussian, Inc.
  
 This software is provided under written license and may be
 used, copied, transmitted, or stored only in accord with that
 written license.
  
 The following legend is applicable only to US Government
 contracts under FAR:
  
                    RESTRICTED RIGHTS LEGEND
  
 Use, reproduction and disclosure by the US Government is
 subject to restrictions as set forth in subparagraphs (a)
 and (c) of the Commercial Computer Software - Restricted
 Rights clause in FAR 52.227-19.
  
 Gaussian, Inc.
 340 Quinnipiac St., Bldg. 40, Wallingford CT 06492
  
  
 ---------------------------------------------------------------
 Warning -- This program may not be used in any manner that
 competes with the business of Gaussian, Inc. or will provide
 assistance to any competitor of Gaussian, Inc.  The licensee
 of this program is prohibited from giving any competitor of
 Gaussian, Inc. access to this program.  By using this program,
 the user acknowledges that Gaussian, Inc. is engaged in the
 business of creating and licensing software in the field of
 computational chemistry and represents and warrants to the
 licensee that it is not a competitor of Gaussian, Inc. and that
 it will not use this program in any manner prohibited above.
 ---------------------------------------------------------------
  

 Cite this work as:
 Gaussian 16, Revision C.01,
 M. J. Frisch, G. W. Trucks, H. B. Schlegel, G. E. Scuseria, 
 M. A. Robb, J. R. Cheeseman, G. Scalmani, V. Barone, 
 G. A. Petersson, H. Nakatsuji, X. Li, M. Caricato, A. V. Marenich, 
 J. Bloino, B. G. Janesko, R. Gomperts, B. Mennucci, H. P. Hratchian, 
 J. V. Ortiz, A. F. Izmaylov, J. L. Sonnenberg, D. Williams-Young, 
 F. Ding, F. Lipparini, F. Egidi, J. Goings, B. Peng, A. Petrone, 
 T. Henderson, D. Ranasinghe, V. G. Zakrzewski, J. Gao, N. Rega, 
 G. Zheng, W. Liang, M. Hada, M. Ehara, K. Toyota, R. Fukuda, 
 J. Hasegawa, M. Ishida, T. Nakajima, Y. Honda, O. Kitao, H. Nakai, 
 T. Vreven, K. Throssell, J. A. Montgomery, Jr., J. E. Peralta, 
 F. Ogliaro, M. J. Bearpark, J. J. Heyd, E. N. Brothers, K. N. Kudin, 
 V. N. Staroverov, T. A. Keith, R. Kobayashi, J. Normand, 
 K. Raghavachari, A. P. Rendell, J. C. Burant, S. S. Iyengar, 
 J. Tomasi, M. Cossi, J. M. Millam, M. Klene, C. Adamo, R. Cammi, 
 J. W. Ochterski, R. L. Martin, K. Morokuma, O. Farkas, 
 J. B. Foresman, and D. J. Fox, Gaussian, Inc., Wallingford CT, 2019.
 
 ******************************************
 Gaussian 16:  ES64L-G16RevC.01  3-Jul-2019
                26-Oct-2021 
 ******************************************
 %mem=10GB
 %nprocshared=8
 Will use up to    8 processors via shared memory.
 --------------------------------------
 # opt=modredundant wb97xd/6-311+g(d,p)
 --------------------------------------
 1/18=120,19=15,26=3,38=1/1,3;
 2/9=110,12=2,17=6,18=5,40=1/2;
 3/5=4,6=6,7=111,11=2,25=1,30=1,71=1,74=-58/1,2,3;
 4//1;
 5/5=2,38=5/2;
 6/7=2,8=2,9=2,10=2,28=1/1;
 7//1,2,3,16;
 1/18=20,19=15,26=3/3(2);
 2/9=110/2;
 99//99;
 2/9=110/2;
 3/5=4,6=6,7=111,11=2,25=1,30=1,71=1,74=-58/1,2,3;
 4/5=5,16=3,69=1/1;
 5/5=2,38=5/2;
 7//1,2,3,16;
 1/18=20,19=15,26=3/3(-5);
 2/9=110/2;
 6/7=2,8=2,9=2,10=2,19=2,28=1/1;
 99/9=1/99;
 --------------
 pg2T_TT_15.pdb
 --------------
 Symbolic Z-matrix:
 Charge =  0 Multiplicity = 1
 C                    -4.25     -1.36     -0.21 
 C                    -2.93     -0.95     -0.61 
 C                    -1.97     -2.05     -0.62 
 C                    -4.33     -2.76      0.1 
 S                    -2.8      -3.56     -0.11 
 H                    -5.23     -3.27      0.41 
 C                    -0.56     -2.13     -0.97 
 S                     0.459    -0.668    -1.14 
 C                     1.868    -1.593    -1.529 
 C                     1.615    -3.012    -1.513 
 C                     0.257    -3.326    -1.184 
 H                    -0.077    -4.329    -0.965 
 S                     3.04     -3.941    -1.184 
 C                     4.018    -2.475    -1.072 
 C                     3.233    -1.277    -1.264 
 H                     5.038    -2.486    -0.714 
 H                     3.583    -0.292    -0.966 
 H                    -2.89      0.24     -0.97 
 O                    -5.6      -0.36     -0.4 
 H                    -5.76      0.85     -0.75 
 
 Add virtual bond connecting atoms H20        and O19        Dist= 2.40D+00.
 Add virtual bond connecting atoms O19        and C1         Dist= 3.20D+00.
 The following ModRedundant input section has been read:
 D       2       3       7       8 F                                           
 

 GradGradGradGradGradGradGradGradGradGradGradGradGradGradGradGradGradGrad
 Berny optimization.
 Initialization pass.
                           ----------------------------
                           !    Initial Parameters    !
                           ! (Angstroms and Degrees)  !
 --------------------------                            --------------------------
 ! Name  Definition              Value          Derivative Info.                !
 --------------------------------------------------------------------------------
 ! R1    R(1,2)                  1.4389         estimate D2E/DX2                !
 ! R2    R(1,4)                  1.4361         estimate D2E/DX2                !
 ! R3    R(1,19)                 1.6907         estimate D2E/DX2                !
 ! R4    R(2,3)                  1.46           estimate D2E/DX2                !
 ! R5    R(2,18)                 1.2439         estimate D2E/DX2                !
 ! R6    R(3,5)                  1.797          estimate D2E/DX2                !
 ! R7    R(3,7)                  1.455          estimate D2E/DX2                !
 ! R8    R(4,5)                  1.7393         estimate D2E/DX2                !
 ! R9    R(4,6)                  1.0799         estimate D2E/DX2                !
 ! R10   R(7,8)                  1.7902         estimate D2E/DX2                !
 ! R11   R(7,11)                 1.4641         estimate D2E/DX2                !
 ! R12   R(8,9)                  1.7298         estimate D2E/DX2                !
 ! R13   R(9,10)                 1.4415         estimate D2E/DX2                !
 ! R14   R(9,15)                 1.4259         estimate D2E/DX2                !
 ! R15   R(10,11)                1.4321         estimate D2E/DX2                !
 ! R16   R(10,13)                1.7326         estimate D2E/DX2                !
 ! R17   R(11,12)                1.0796         estimate D2E/DX2                !
 ! R18   R(13,14)                1.7658         estimate D2E/DX2                !
 ! R19   R(14,15)                1.4451         estimate D2E/DX2                !
 ! R20   R(14,16)                1.0811         estimate D2E/DX2                !
 ! R21   R(15,17)                1.087          estimate D2E/DX2                !
 ! R22   R(19,20)                1.2697         estimate D2E/DX2                !
 ! A1    A(2,1,4)              112.8843         estimate D2E/DX2                !
 ! A2    A(2,1,19)             122.1887         estimate D2E/DX2                !
 ! A3    A(4,1,19)             123.8039         estimate D2E/DX2                !
 ! A4    A(1,2,3)              112.9799         estimate D2E/DX2                !
 ! A5    A(1,2,18)             112.491          estimate D2E/DX2                !
 ! A6    A(3,2,18)             134.2373         estimate D2E/DX2                !
 ! A7    A(2,3,5)              109.1138         estimate D2E/DX2                !
 ! A8    A(2,3,7)              132.8639         estimate D2E/DX2                !
 ! A9    A(5,3,7)              118.0132         estimate D2E/DX2                !
 ! A10   A(1,4,5)              111.9209         estimate D2E/DX2                !
 ! A11   A(1,4,6)              124.6643         estimate D2E/DX2                !
 ! A12   A(5,4,6)              123.4062         estimate D2E/DX2                !
 ! A13   A(3,5,4)               93.0997         estimate D2E/DX2                !
 ! A14   A(3,7,8)              121.9756         estimate D2E/DX2                !
 ! A15   A(3,7,11)             128.3764         estimate D2E/DX2                !
 ! A16   A(8,7,11)             109.6096         estimate D2E/DX2                !
 ! A17   A(7,8,9)               92.7682         estimate D2E/DX2                !
 ! A18   A(8,9,10)             112.3923         estimate D2E/DX2                !
 ! A19   A(8,9,15)             128.2749         estimate D2E/DX2                !
 ! A20   A(10,9,15)            112.5883         estimate D2E/DX2                !
 ! A21   A(9,10,11)            112.6324         estimate D2E/DX2                !
 ! A22   A(9,10,13)            112.68           estimate D2E/DX2                !
 ! A23   A(11,10,13)           128.2217         estimate D2E/DX2                !
 ! A24   A(7,11,10)            112.5569         estimate D2E/DX2                !
 ! A25   A(7,11,12)            123.8227         estimate D2E/DX2                !
 ! A26   A(10,11,12)           122.9331         estimate D2E/DX2                !
 ! A27   A(10,13,14)            91.2845         estimate D2E/DX2                !
 ! A28   A(13,14,15)           112.2694         estimate D2E/DX2                !
 ! A29   A(13,14,16)           122.3521         estimate D2E/DX2                !
 ! A30   A(15,14,16)           124.4003         estimate D2E/DX2                !
 ! A31   A(9,15,14)            111.1603         estimate D2E/DX2                !
 ! A32   A(9,15,17)            124.0556         estimate D2E/DX2                !
 ! A33   A(14,15,17)           122.6766         estimate D2E/DX2                !
 ! A34   A(1,19,20)            134.0455         estimate D2E/DX2                !
 ! D1    D(4,1,2,3)              0.3915         estimate D2E/DX2                !
 ! D2    D(4,1,2,18)           175.0898         estimate D2E/DX2                !
 ! D3    D(19,1,2,3)          -167.9154         estimate D2E/DX2                !
 ! D4    D(19,1,2,18)            6.7829         estimate D2E/DX2                !
 ! D5    D(2,1,4,5)             -0.3845         estimate D2E/DX2                !
 ! D6    D(2,1,4,6)           -179.3471         estimate D2E/DX2                !
 ! D7    D(19,1,4,5)           167.7032         estimate D2E/DX2                !
 ! D8    D(19,1,4,6)           -11.2593         estimate D2E/DX2                !
 ! D9    D(2,1,19,20)           -7.6334         estimate D2E/DX2                !
 ! D10   D(4,1,19,20)         -174.6479         estimate D2E/DX2                !
 ! D11   D(1,2,3,5)             -0.2224         estimate D2E/DX2                !
 ! D12   D(1,2,3,7)            178.6265         estimate D2E/DX2                !
 ! D13   D(18,2,3,5)          -173.3787         estimate D2E/DX2                !
 ! D14   D(18,2,3,7)             5.4701         estimate D2E/DX2                !
 ! D15   D(2,3,5,4)              0.0033         estimate D2E/DX2                !
 ! D16   D(7,3,5,4)           -179.041          estimate D2E/DX2                !
 ! D17   D(2,3,7,8)             14.9881         Frozen                          !
 ! D18   D(2,3,7,11)          -167.5081         estimate D2E/DX2                !
 ! D19   D(5,3,7,8)           -166.244          estimate D2E/DX2                !
 ! D20   D(5,3,7,11)            11.2598         estimate D2E/DX2                !
 ! D21   D(1,4,5,3)              0.2153         estimate D2E/DX2                !
 ! D22   D(6,4,5,3)            179.1932         estimate D2E/DX2                !
 ! D23   D(3,7,8,9)            179.779          estimate D2E/DX2                !
 ! D24   D(11,7,8,9)             1.8562         estimate D2E/DX2                !
 ! D25   D(3,7,11,10)         -179.8199         estimate D2E/DX2                !
 ! D26   D(3,7,11,12)           -9.094          estimate D2E/DX2                !
 ! D27   D(8,7,11,10)           -2.0676         estimate D2E/DX2                !
 ! D28   D(8,7,11,12)          168.6583         estimate D2E/DX2                !
 ! D29   D(7,8,9,10)            -1.2087         estimate D2E/DX2                !
 ! D30   D(7,8,9,15)          -149.8885         estimate D2E/DX2                !
 ! D31   D(8,9,10,11)            0.2085         estimate D2E/DX2                !
 ! D32   D(8,9,10,13)         -154.0464         estimate D2E/DX2                !
 ! D33   D(15,9,10,11)         153.9777         estimate D2E/DX2                !
 ! D34   D(15,9,10,13)          -0.2772         estimate D2E/DX2                !
 ! D35   D(8,9,15,14)          149.7304         estimate D2E/DX2                !
 ! D36   D(8,9,15,17)          -14.0934         estimate D2E/DX2                !
 ! D37   D(10,9,15,14)           1.1            estimate D2E/DX2                !
 ! D38   D(10,9,15,17)        -162.7238         estimate D2E/DX2                !
 ! D39   D(9,10,11,7)            1.2344         estimate D2E/DX2                !
 ! D40   D(9,10,11,12)        -169.5868         estimate D2E/DX2                !
 ! D41   D(13,10,11,7)         150.561          estimate D2E/DX2                !
 ! D42   D(13,10,11,12)        -20.2601         estimate D2E/DX2                !
 ! D43   D(9,10,13,14)          -0.476          estimate D2E/DX2                !
 ! D44   D(11,10,13,14)       -149.7909         estimate D2E/DX2                !
 ! D45   D(10,13,14,15)          1.107          estimate D2E/DX2                !
 ! D46   D(10,13,14,16)        170.2455         estimate D2E/DX2                !
 ! D47   D(13,14,15,9)          -1.4533         estimate D2E/DX2                !
 ! D48   D(13,14,15,17)        162.6317         estimate D2E/DX2                !
 ! D49   D(16,14,15,9)        -170.3298         estimate D2E/DX2                !
 ! D50   D(16,14,15,17)         -6.2448         estimate D2E/DX2                !
 --------------------------------------------------------------------------------
 Trust Radius=3.00D-01 FncErr=1.00D-07 GrdErr=1.00D-06 EigMax=2.50D+02 EigMin=1.00D-04
 Number of steps in this run=    116 maximum allowed number of steps=    120.
 GradGradGradGradGradGradGradGradGradGradGradGradGradGradGradGradGradGrad

                          Input orientation:                          
 ---------------------------------------------------------------------
 Center     Atomic      Atomic             Coordinates (Angstroms)
 Number     Number       Type             X           Y           Z
 ---------------------------------------------------------------------
      1          6           0       -4.250000   -1.360000   -0.210000
      2          6           0       -2.930000   -0.950000   -0.610000
      3          6           0       -1.970000   -2.050000   -0.620000
      4          6           0       -4.330000   -2.760000    0.100000
      5         16           0       -2.800000   -3.560000   -0.110000
      6          1           0       -5.230000   -3.270000    0.410000
      7          6           0       -0.560000   -2.130000   -0.970000
      8         16           0        0.459000   -0.668000   -1.140000
      9          6           0        1.868000   -1.593000   -1.529000
     10          6           0        1.615000   -3.012000   -1.513000
     11          6           0        0.257000   -3.326000   -1.184000
     12          1           0       -0.077000   -4.329000   -0.965000
     13         16           0        3.040000   -3.941000   -1.184000
     14          6           0        4.018000   -2.475000   -1.072000
     15          6           0        3.233000   -1.277000   -1.264000
     16          1           0        5.038000   -2.486000   -0.714000
     17          1           0        3.583000   -0.292000   -0.966000
     18          1           0       -2.890000    0.240000   -0.970000
     19          8           0       -5.600000   -0.360000   -0.400000
     20          1           0       -5.760000    0.850000   -0.750000
 ---------------------------------------------------------------------
                    Distance matrix (angstroms):
                    1          2          3          4          5
     1  C    0.000000
     2  C    1.438923   0.000000
     3  C    2.417147   1.460034   0.000000
     4  C    1.436141   2.395871   2.567509   0.000000
     5  S    2.636759   2.660639   1.796970   1.739253   0.000000
     6  H    2.234480   3.422397   3.630000   1.079907   2.501879
     7  C    3.845335   2.671872   1.454991   3.969219   2.793224
     8  S    4.849582   3.441765   2.842598   5.371088   4.477236
     9  C    6.262905   4.927354   3.970563   6.513888   5.260501
    10  C    6.230982   5.071911   3.817737   6.165087   4.664862
    11  C    5.012672   4.016444   2.627889   4.796830   3.248612
    12  H    5.176767   4.436584   2.982669   4.656608   2.955861
    13  S    7.794507   6.701974   5.384615   7.573659   5.950146
    14  C    8.387258   7.128378   6.020056   8.434685   6.970494
    15  C    7.557321   6.206224   5.299384   7.826797   6.552930
    16  H    9.369570   8.115364   7.022179   9.407290   7.934263
    17  H    7.941539   6.555827   5.834903   8.357209   7.221859
    18  H    2.233204   1.243905   2.492589   3.495497   3.897140
    19  O    1.690739   2.742462   4.010162   2.760960   4.261936
    20  H    2.730531   3.356859   4.773992   3.974858   5.349701
                    6          7          8          9         10
     6  H    0.000000
     7  C    5.001290   0.000000
     8  S    6.444969   1.790169   0.000000
     9  C    7.546764   2.548732   1.729805   0.000000
    10  C    7.114669   2.409024   2.640038   1.441467   0.000000
    11  C    5.714118   1.464138   2.666028   2.391158   1.432132
    12  H    5.437418   2.251425   3.704165   3.403941   2.213065
    13  S    8.448904   4.035532   4.168456   2.646831   1.732601
    14  C    9.399673   4.592114   3.992036   2.368390   2.501451
    15  C    8.854191   3.898832   2.842769   1.425940   2.385404
    16  H   10.359047   5.615147   4.945083   3.392724   3.554153
    17  H    9.403767   4.532407   3.151353   2.225038   3.401563
    18  H    4.438479   3.323522   3.474070   5.129418   5.582596
    19  O    3.043206   5.372095   6.111787   7.652840   7.767116
    20  H    4.312876   5.997399   6.413453   8.047451   8.359895
                   11         12         13         14         15
    11  C    0.000000
    12  H    1.079595   0.000000
    13  S    2.850143   3.148681   0.000000
    14  C    3.857702   4.496420   1.765838   0.000000
    15  C    3.614053   4.512228   2.672180   1.445093   0.000000
    16  H    4.876932   5.442690   2.515935   1.081057   2.241028
    17  H    4.507212   5.449126   3.695616   2.228441   1.086982
    18  H    4.760857   5.365515   7.258888   7.423078   6.314971
    19  O    6.611827   6.824640   9.385511   9.870701   8.922403
    20  H    7.337004   7.691863  10.029060  10.332889   9.255397
                   16         17         18         19         20
    16  H    0.000000
    17  H    2.644648   0.000000
    18  H    8.387479   6.494826   0.000000
    19  O   10.852904   9.200678   2.833549   0.000000
    20  H   11.301637   9.415013   2.942346   1.269724   0.000000
 Stoichiometry    C10H6OS3
 Framework group  C1[X(C10H6OS3)]
 Deg. of freedom    54
 Full point group                 C1      NOp   1
 Largest Abelian subgroup         C1      NOp   1
 Largest concise Abelian subgroup C1      NOp   1
                         Standard orientation:                         
 ---------------------------------------------------------------------
 Center     Atomic      Atomic             Coordinates (Angstroms)
 Number     Number       Type             X           Y           Z
 ---------------------------------------------------------------------
      1          6           0       -3.906477    0.297626    0.129149
      2          6           0       -2.613075    0.912538   -0.010481
      3          6           0       -1.519663   -0.054987   -0.017087
      4          6           0       -3.835888   -1.132468    0.240277
      5         16           0       -2.197052   -1.709675    0.162509
      6          1           0       -4.691370   -1.783580    0.342280
      7          6           0       -0.077911    0.081708   -0.157321
      8         16           0        0.746162    1.661148    0.018678
      9          6           0        2.307118    0.973454   -0.268934
     10          6           0        2.249706   -0.452118   -0.474542
     11          6           0        0.915415   -0.966695   -0.397855
     12          1           0        0.694786   -2.022933   -0.363089
     13         16           0        3.731076   -1.247572   -0.056569
     14          6           0        4.476716    0.289525    0.390125
     15          6           0        3.568723    1.403372    0.237851
     16          1           0        5.431728    0.344485    0.893730
     17          1           0        3.738500    2.367685    0.709871
     18          1           0       -2.687681    2.139071   -0.203747
     19          8           0       -5.342436    1.151071   -0.132101
     20          1           0       -5.617432    2.372549   -0.343215
 ---------------------------------------------------------------------
 Rotational constants (GHZ):           1.3872414           0.2308940           0.1998408
 Standard basis: 6-311+G(d,p) (5D, 7F)
 There are   382 symmetry adapted cartesian basis functions of A   symmetry.
 There are   368 symmetry adapted basis functions of A   symmetry.
   368 basis functions,   594 primitive gaussians,   382 cartesian basis functions
    61 alpha electrons       61 beta electrons
       nuclear repulsion energy      1077.1816509417 Hartrees.
 NAtoms=   20 NActive=   20 NUniq=   20 SFac= 1.00D+00 NAtFMM=   60 NAOKFM=F Big=F
 Integral buffers will be    131072 words long.
 Raffenetti 2 integral format.
 Two-electron integral symmetry is turned on.
 Nuclear repulsion after empirical dispersion term =     1077.1718954781 Hartrees.
 One-electron integrals computed using PRISM.
 NBasis=   368 RedAO= T EigKep=  2.57D-06  NBF=   368
 NBsUse=   367 1.00D-06 EigRej=  3.64D-07 NBFU=   367
 ExpMin= 4.05D-02 ExpMax= 9.34D+04 ExpMxC= 3.17D+03 IAcc=3 IRadAn=         5 AccDes= 0.00D+00
 Harris functional with IExCor= 4639 and IRadAn=       5 diagonalized for initial guess.
 HarFok:  IExCor= 4639 AccDes= 0.00D+00 IRadAn=         5 IDoV= 1 UseB2=F ITyADJ=14
 ICtDFT=  3500011 ScaDFX=  1.000000  1.000000  1.000000  1.000000
 FoFCou: FMM=F IPFlag=           0 FMFlag=      100000 FMFlg1=           0
         NFxFlg=           0 DoJE=T BraDBF=F KetDBF=T FulRan=T
         wScrn=  0.000000 ICntrl=       500 IOpCl=  0 I1Cent=   200000004 NGrid=           0
         NMat0=    1 NMatS0=      1 NMatT0=    0 NMatD0=    1 NMtDS0=    0 NMtDT0=    0
 Petite list used in FoFCou.
 Requested convergence on RMS density matrix=1.00D-08 within 128 cycles.
 Requested convergence on MAX density matrix=1.00D-06.
 Requested convergence on             energy=1.00D-06.
 No special actions if energy rises.
 SCF Done:  E(RwB97XD) =  -1654.22599877     A.U. after   19 cycles
            NFock= 19  Conv=0.43D-08     -V/T= 2.0032

 **********************************************************************

            Population analysis using the SCF Density.

 **********************************************************************

 Orbital symmetries:
       Occupied  (A) (A) (A) (A) (A) (A) (A) (A) (A) (A) (A) (A)
                 (A) (A) (A) (A) (A) (A) (A) (A) (A) (A) (A) (A)
                 (A) (A) (A) (A) (A) (A) (A) (A) (A) (A) (A) (A)
                 (A) (A) (A) (A) (A) (A) (A) (A) (A) (A) (A) (A)
                 (A) (A) (A) (A) (A) (A) (A) (A) (A) (A) (A) (A)
                 (A)
       Virtual   (A) (A) (A) (A) (A) (A) (A) (A) (A) (A) (A) (A)
                 (A) (A) (A) (A) (A) (A) (A) (A) (A) (A) (A) (A)
                 (A) (A) (A) (A) (A) (A) (A) (A) (A) (A) (A) (A)
                 (A) (A) (A) (A) (A) (A) (A) (A) (A) (A) (A) (A)
                 (A) (A) (A) (A) (A) (A) (A) (A) (A) (A) (A) (A)
                 (A) (A) (A) (A) (A) (A) (A) (A) (A) (A) (A) (A)
                 (A) (A) (A) (A) (A) (A) (A) (A) (A) (A) (A) (A)
                 (A) (A) (A) (A) (A) (A) (A) (A) (A) (A) (A) (A)
                 (A) (A) (A) (A) (A) (A) (A) (A) (A) (A) (A) (A)
                 (A) (A) (A) (A) (A) (A) (A) (A) (A) (A) (A) (A)
                 (A) (A) (A) (A) (A) (A) (A) (A) (A) (A) (A) (A)
                 (A) (A) (A) (A) (A) (A) (A) (A) (A) (A) (A) (A)
                 (A) (A) (A) (A) (A) (A) (A) (A) (A) (A) (A) (A)
                 (A) (A) (A) (A) (A) (A) (A) (A) (A) (A) (A) (A)
                 (A) (A) (A) (A) (A) (A) (A) (A) (A) (A) (A) (A)
                 (A) (A) (A) (A) (A) (A) (A) (A) (A) (A) (A) (A)
                 (A) (A) (A) (A) (A) (A) (A) (A) (A) (A) (A) (A)
                 (A) (A) (A) (A) (A) (A) (A) (A) (A) (A) (A) (A)
                 (A) (A) (A) (A) (A) (A) (A) (A) (A) (A) (A) (A)
                 (A) (A) (A) (A) (A) (A) (A) (A) (A) (A) (A) (A)
                 (A) (A) (A) (A) (A) (A) (A) (A) (A) (A) (A) (A)
                 (A) (A) (A) (A) (A) (A) (A) (A) (A) (A) (A) (A)
                 (A) (A) (A) (A) (A) (A) (A) (A) (A) (A) (A) (A)
                 (A) (A) (A) (A) (A) (A) (A) (A) (A) (A) (A) (A)
                 (A) (A) (A) (A) (A) (A) (A) (A) (A) (A) (A) (A)
                 (A) (A) (A) (A) (A) (A)
 The electronic state is 1-A.
 Alpha  occ. eigenvalues --  -89.07419 -89.06450 -89.06368 -19.27819 -10.39025
 Alpha  occ. eigenvalues --  -10.36953 -10.36398 -10.34295 -10.34231 -10.34208
 Alpha  occ. eigenvalues --  -10.34135 -10.34101 -10.32708 -10.32285  -8.11274
 Alpha  occ. eigenvalues --   -8.10390  -8.10307  -6.06133  -6.05765  -6.05347
 Alpha  occ. eigenvalues --   -6.05243  -6.05177  -6.04878  -6.04802  -6.04455
 Alpha  occ. eigenvalues --   -6.04347  -1.03400  -1.01445  -0.98500  -0.94272
 Alpha  occ. eigenvalues --   -0.87998  -0.85547  -0.84375  -0.81259  -0.78755
 Alpha  occ. eigenvalues --   -0.71846  -0.67521  -0.65364  -0.63175  -0.62211
 Alpha  occ. eigenvalues --   -0.59178  -0.58318  -0.54004  -0.52342  -0.51276
 Alpha  occ. eigenvalues --   -0.49471  -0.48941  -0.48579  -0.48115  -0.47706
 Alpha  occ. eigenvalues --   -0.46271  -0.44518  -0.43099  -0.42712  -0.40580
 Alpha  occ. eigenvalues --   -0.40096  -0.37920  -0.34813  -0.33026  -0.31290
 Alpha  occ. eigenvalues --   -0.26867
 Alpha virt. eigenvalues --   -0.02570  -0.00604   0.02925   0.04974   0.05375
 Alpha virt. eigenvalues --    0.05493   0.06559   0.06739   0.07122   0.07288
 Alpha virt. eigenvalues --    0.07906   0.08667   0.09251   0.09450   0.09606
 Alpha virt. eigenvalues --    0.10151   0.10729   0.10990   0.11361   0.11921
 Alpha virt. eigenvalues --    0.11997   0.12377   0.13542   0.13824   0.14631
 Alpha virt. eigenvalues --    0.14920   0.15550   0.15798   0.16039   0.17170
 Alpha virt. eigenvalues --    0.17306   0.17343   0.17689   0.18392   0.18743
 Alpha virt. eigenvalues --    0.19082   0.19594   0.19979   0.20651   0.21477
 Alpha virt. eigenvalues --    0.21599   0.21984   0.22163   0.22483   0.23372
 Alpha virt. eigenvalues --    0.23490   0.24293   0.24597   0.24786   0.25100
 Alpha virt. eigenvalues --    0.25556   0.25642   0.26225   0.26498   0.27016
 Alpha virt. eigenvalues --    0.27227   0.27488   0.28171   0.28512   0.29020
 Alpha virt. eigenvalues --    0.29384   0.29641   0.29841   0.30391   0.31314
 Alpha virt. eigenvalues --    0.31604   0.32568   0.33457   0.34186   0.34573
 Alpha virt. eigenvalues --    0.35120   0.35634   0.36410   0.37658   0.37956
 Alpha virt. eigenvalues --    0.38693   0.39429   0.40281   0.40743   0.41757
 Alpha virt. eigenvalues --    0.41932   0.42551   0.43133   0.43803   0.45653
 Alpha virt. eigenvalues --    0.46357   0.47948   0.48932   0.49820   0.51548
 Alpha virt. eigenvalues --    0.52291   0.53264   0.55752   0.57182   0.59957
 Alpha virt. eigenvalues --    0.61531   0.62167   0.62616   0.63104   0.63535
 Alpha virt. eigenvalues --    0.63837   0.65282   0.65798   0.67804   0.68490
 Alpha virt. eigenvalues --    0.69032   0.69729   0.70213   0.70689   0.72079
 Alpha virt. eigenvalues --    0.74397   0.75001   0.75843   0.76253   0.77552
 Alpha virt. eigenvalues --    0.77897   0.78643   0.79553   0.80418   0.80969
 Alpha virt. eigenvalues --    0.81990   0.82570   0.83071   0.83798   0.84554
 Alpha virt. eigenvalues --    0.85937   0.86110   0.87629   0.88499   0.89381
 Alpha virt. eigenvalues --    0.90440   0.91389   0.92245   0.92580   0.92871
 Alpha virt. eigenvalues --    0.94399   0.95769   0.96379   0.98717   0.99327
 Alpha virt. eigenvalues --    1.00100   1.00716   1.01228   1.01990   1.02877
 Alpha virt. eigenvalues --    1.05511   1.06434   1.07570   1.09199   1.09634
 Alpha virt. eigenvalues --    1.09739   1.12196   1.13462   1.15038   1.16527
 Alpha virt. eigenvalues --    1.18255   1.20007   1.22352   1.23462   1.25650
 Alpha virt. eigenvalues --    1.27123   1.28619   1.31634   1.34065   1.37877
 Alpha virt. eigenvalues --    1.42759   1.42921   1.44615   1.45417   1.47420
 Alpha virt. eigenvalues --    1.49823   1.53153   1.54741   1.56850   1.58449
 Alpha virt. eigenvalues --    1.59347   1.61115   1.63037   1.65378   1.66477
 Alpha virt. eigenvalues --    1.68268   1.69197   1.70201   1.71754   1.73417
 Alpha virt. eigenvalues --    1.74043   1.75052   1.76796   1.77281   1.78510
 Alpha virt. eigenvalues --    1.79255   1.81524   1.82041   1.83797   1.84914
 Alpha virt. eigenvalues --    1.86830   1.88324   1.89348   1.91488   1.92305
 Alpha virt. eigenvalues --    1.94100   1.95475   1.97032   1.98524   2.00154
 Alpha virt. eigenvalues --    2.02400   2.04335   2.05649   2.06173   2.06717
 Alpha virt. eigenvalues --    2.07652   2.08395   2.10645   2.12843   2.14091
 Alpha virt. eigenvalues --    2.15714   2.16125   2.19324   2.20140   2.22283
 Alpha virt. eigenvalues --    2.23952   2.25027   2.31522   2.33095   2.39060
 Alpha virt. eigenvalues --    2.42060   2.43153   2.44714   2.50693   2.55349
 Alpha virt. eigenvalues --    2.57489   2.62542   2.64436   2.68679   2.72579
 Alpha virt. eigenvalues --    2.73765   2.75240   2.77913   2.79299   2.80250
 Alpha virt. eigenvalues --    2.80636   2.82451   2.84443   2.86764   2.89382
 Alpha virt. eigenvalues --    2.90531   2.93823   2.96426   2.99986   3.01519
 Alpha virt. eigenvalues --    3.02062   3.04362   3.04623   3.06932   3.10839
 Alpha virt. eigenvalues --    3.12061   3.12931   3.14587   3.19757   3.28778
 Alpha virt. eigenvalues --    3.29268   3.34466   3.36436   3.40712   3.45502
 Alpha virt. eigenvalues --    3.48983   3.56687   3.58046   3.67082   3.69596
 Alpha virt. eigenvalues --    3.87579   3.92229   4.02291   4.13064   4.21938
 Alpha virt. eigenvalues --    4.40501   4.57270   5.13024   5.23522   5.36536
 Alpha virt. eigenvalues --    8.04536   8.05295   8.07181  17.39996  17.41886
 Alpha virt. eigenvalues --   17.42639  17.55750  17.57872  17.59863  17.60569
 Alpha virt. eigenvalues --   17.63850  17.65727  23.53980  23.68885  23.79093
 Alpha virt. eigenvalues --   23.88474  23.92622  23.97769  23.98764  24.01064
 Alpha virt. eigenvalues --   24.06683  24.08465  49.98471 189.28801 189.30050
 Alpha virt. eigenvalues --  189.31959
          Condensed to atoms (all electrons):
               1          2          3          4          5          6
     1  C    7.815224  -1.131559  -0.076744  -1.304090   0.882892   0.062397
     2  C   -1.131559  12.579083  -3.186376   0.619687  -2.723101  -0.036586
     3  C   -0.076744  -3.186376   9.403944  -0.326741   0.693281   0.023049
     4  C   -1.304090   0.619687  -0.326741   7.383667  -0.617864   0.347763
     5  S    0.882892  -2.723101   0.693281  -0.617864  17.709340  -0.026516
     6  H    0.062397  -0.036586   0.023049   0.347763  -0.026516   0.422615
     7  C   -0.008261  -0.755068  -0.467094  -0.008620   0.866437  -0.002077
     8  S   -0.119573  -0.112998   0.425669   0.090179   0.034026  -0.000672
     9  C    0.017725  -0.736131  -0.210999  -0.047081   0.240667  -0.000054
    10  C   -0.014956   0.612872  -0.098916  -0.011203  -0.491885   0.000200
    11  C    0.040483  -0.185199  -0.299014  -0.185973  -0.042915   0.001304
    12  H   -0.003881   0.003235   0.009203   0.004873   0.008559   0.000001
    13  S   -0.001768   0.040588  -0.003182   0.000004  -0.047217   0.000008
    14  C   -0.002515  -0.024131  -0.036053   0.000058   0.004777  -0.000001
    15  C    0.022276  -0.065628   0.135095   0.001643   0.038907  -0.000007
    16  H    0.000000   0.000035   0.000283   0.000000  -0.000003   0.000000
    17  H   -0.000013   0.000014  -0.000463  -0.000002   0.000074   0.000000
    18  H   -0.075230   0.269028   0.125848  -0.034040   0.007922  -0.000048
    19  O    0.296749  -0.047082   0.014438  -0.122912   0.013944  -0.000315
    20  H   -0.109956   0.016630   0.031148   0.056116  -0.003323  -0.000147
               7          8          9         10         11         12
     1  C   -0.008261  -0.119573   0.017725  -0.014956   0.040483  -0.003881
     2  C   -0.755068  -0.112998  -0.736131   0.612872  -0.185199   0.003235
     3  C   -0.467094   0.425669  -0.210999  -0.098916  -0.299014   0.009203
     4  C   -0.008620   0.090179  -0.047081  -0.011203  -0.185973   0.004873
     5  S    0.866437   0.034026   0.240667  -0.491885  -0.042915   0.008559
     6  H   -0.002077  -0.000672  -0.000054   0.000200   0.001304   0.000001
     7  C   10.393184   0.588968  -1.084220   1.180597  -4.190372   0.141785
     8  S    0.588968  17.612231  -1.023884   1.334057  -2.437842   0.009046
     9  C   -1.084220  -1.023884  13.702558  -5.133427   1.754434  -0.055419
    10  C    1.180597   1.334057  -5.133427  17.393066  -7.737048   0.049275
    11  C   -4.190372  -2.437842   1.754434  -7.737048  17.954268   0.191035
    12  H    0.141785   0.009046  -0.055419   0.049275   0.191035   0.476992
    13  S   -0.370093   0.142243   0.789282  -0.540537  -0.121529   0.000350
    14  C    0.069926  -0.008419   0.786929  -0.290410  -0.432595   0.000654
    15  C    0.121570   0.068708  -3.092891  -0.181918   0.771831  -0.008068
    16  H   -0.003954  -0.000250  -0.038996   0.011785   0.022336  -0.000001
    17  H    0.005394   0.010720   0.000710  -0.033042   0.004935   0.000009
    18  H    0.024436   0.008280   0.003247  -0.001576   0.002517   0.000003
    19  O    0.010974   0.005012   0.000274   0.000193   0.000314  -0.000001
    20  H    0.001821   0.001911   0.000094  -0.000051   0.000136  -0.000000
              13         14         15         16         17         18
     1  C   -0.001768  -0.002515   0.022276   0.000000  -0.000013  -0.075230
     2  C    0.040588  -0.024131  -0.065628   0.000035   0.000014   0.269028
     3  C   -0.003182  -0.036053   0.135095   0.000283  -0.000463   0.125848
     4  C    0.000004   0.000058   0.001643   0.000000  -0.000002  -0.034040
     5  S   -0.047217   0.004777   0.038907  -0.000003   0.000074   0.007922
     6  H    0.000008  -0.000001  -0.000007   0.000000   0.000000  -0.000048
     7  C   -0.370093   0.069926   0.121570  -0.003954   0.005394   0.024436
     8  S    0.142243  -0.008419   0.068708  -0.000250   0.010720   0.008280
     9  C    0.789282   0.786929  -3.092891  -0.038996   0.000710   0.003247
    10  C   -0.540537  -0.290410  -0.181918   0.011785  -0.033042  -0.001576
    11  C   -0.121529  -0.432595   0.771831   0.022336   0.004935   0.002517
    12  H    0.000350   0.000654  -0.008068  -0.000001   0.000009   0.000003
    13  S   16.635289   0.424868  -0.769348  -0.022855  -0.000807  -0.000053
    14  C    0.424868   5.602668  -0.176452   0.368671   0.009489   0.000108
    15  C   -0.769348  -0.176452   8.910238   0.026115   0.363015  -0.000657
    16  H   -0.022855   0.368671   0.026115   0.435730  -0.002723  -0.000000
    17  H   -0.000807   0.009489   0.363015  -0.002723   0.473100  -0.000000
    18  H   -0.000053   0.000108  -0.000657  -0.000000  -0.000000   0.493759
    19  O   -0.000006   0.000006   0.000017  -0.000000  -0.000000   0.000782
    20  H   -0.000000   0.000001   0.000005  -0.000000  -0.000000   0.001046
              19         20
     1  C    0.296749  -0.109956
     2  C   -0.047082   0.016630
     3  C    0.014438   0.031148
     4  C   -0.122912   0.056116
     5  S    0.013944  -0.003323
     6  H   -0.000315  -0.000147
     7  C    0.010974   0.001821
     8  S    0.005012   0.001911
     9  C    0.000274   0.000094
    10  C    0.000193  -0.000051
    11  C    0.000314   0.000136
    12  H   -0.000001  -0.000000
    13  S   -0.000006  -0.000000
    14  C    0.000006   0.000001
    15  C    0.000017   0.000005
    16  H   -0.000000  -0.000000
    17  H   -0.000000  -0.000000
    18  H    0.000782   0.001046
    19  O    8.086854   0.207188
    20  H    0.207188   0.493069
 Mulliken charges:
               1
     1  C   -0.289202
     2  C    0.862686
     3  C   -0.156375
     4  C    0.154538
     5  S   -0.548002
     6  H    0.209086
     7  C   -0.515334
     8  S   -0.627411
     9  C    0.127182
    10  C   -0.047076
    11  C    0.888892
    12  H    0.172350
    13  S   -0.155237
    14  C   -0.297579
    15  C   -0.164449
    16  H    0.203826
    17  H    0.169590
    18  H    0.174629
    19  O   -0.466428
    20  H    0.304312
 Sum of Mulliken charges =  -0.00000
 Mulliken charges with hydrogens summed into heavy atoms:
               1
     1  C   -0.289202
     2  C    1.037315
     3  C   -0.156375
     4  C    0.363624
     5  S   -0.548002
     7  C   -0.515334
     8  S   -0.627411
     9  C    0.127182
    10  C   -0.047076
    11  C    1.061242
    13  S   -0.155237
    14  C   -0.093752
    15  C    0.005142
    19  O   -0.162116
 Electronic spatial extent (au):  <R**2>=           4989.1940
 Charge=             -0.0000 electrons
 Dipole moment (field-independent basis, Debye):
    X=              1.4065    Y=              0.8513    Z=              0.8150  Tot=              1.8350
 Quadrupole moment (field-independent basis, Debye-Ang):
   XX=            -99.4674   YY=            -88.2478   ZZ=           -109.1100
   XY=             -3.2656   XZ=              6.0765   YZ=             -0.0444
 Traceless Quadrupole moment (field-independent basis, Debye-Ang):
   XX=             -0.5257   YY=             10.6939   ZZ=            -10.1682
   XY=             -3.2656   XZ=              6.0765   YZ=             -0.0444
 Octapole moment (field-independent basis, Debye-Ang**2):
  XXX=             62.9083  YYY=             19.8332  ZZZ=              1.9867  XYY=            -49.3228
  XXY=             38.6343  XXZ=             22.4738  XZZ=              1.1498  YZZ=              0.4583
  YYZ=              0.4419  XYZ=             15.7969
 Hexadecapole moment (field-independent basis, Debye-Ang**3):
 XXXX=          -5585.9181 YYYY=           -908.4474 ZZZZ=           -174.3915 XXXY=           -178.4034
 XXXZ=            196.6493 YYYX=           -106.6061 YYYZ=             -1.0932 ZZZX=             12.2031
 ZZZY=             -0.2917 XXYY=           -813.2955 XXZZ=          -1034.8458 YYZZ=           -205.7912
 XXYZ=            -33.9491 YYXZ=             33.7523 ZZXY=             -5.9463
 N-N= 1.077171895478D+03 E-N=-6.063443671081D+03  KE= 1.648888811874D+03
 Calling FoFJK, ICntrl=      2127 FMM=F ISym2X=0 I1Cent= 0 IOpClX= 0 NMat=1 NMatS=1 NMatT=0.
 ***** Axes restored to original set *****
 -------------------------------------------------------------------
 Center     Atomic                   Forces (Hartrees/Bohr)
 Number     Number              X              Y              Z
 -------------------------------------------------------------------
      1        6          -0.019034896    0.006738929   -0.019534825
      2        6           0.007297815    0.021356356   -0.015944710
      3        6          -0.045122607    0.027477160    0.003015663
      4        6          -0.009329783    0.061811231   -0.011702245
      5       16          -0.004973884    0.036234513   -0.002095395
      6        1           0.002700481   -0.003812344   -0.001046863
      7        6           0.044034447   -0.036084980   -0.010997887
      8       16          -0.015147778   -0.015694977   -0.006532068
      9        6           0.006716150   -0.037437485    0.015050065
     10        6          -0.017738671    0.035947547    0.017169030
     11        6          -0.023340352    0.055728807    0.005786943
     12        1          -0.004916363   -0.000917023   -0.004004398
     13       16           0.011750477    0.019755249   -0.007054312
     14        6          -0.044839694    0.046817189   -0.005606512
     15        6           0.026399833   -0.054057134    0.014562634
     16        1           0.000845004   -0.004384202   -0.005769991
     17        1           0.002798776   -0.002907141   -0.008645179
     18        1           0.014184951   -0.070906700    0.018876092
     19        8           0.023683675    0.026458667   -0.007107690
     20        1           0.044032419   -0.112123663    0.031581649
 -------------------------------------------------------------------
 Cartesian Forces:  Max     0.112123663 RMS     0.029477471

 GradGradGradGradGradGradGradGradGradGradGradGradGradGradGradGradGradGrad
 Berny optimization.
 FormGI is forming the generalized inverse of G from B-inverse, IUseBI=4.
 Internal  Forces:  Max     0.121102389 RMS     0.024614213
 Search for a local minimum.
 Step number   1 out of a maximum of  116
 All quantities printed in internal units (Hartrees-Bohrs-Radians)
 Mixed Optimization -- RFO/linear search
 Second derivative matrix not updated -- first step.
 ITU=  0
     Eigenvalues ---    0.00230   0.00983   0.01059   0.01223   0.01272
     Eigenvalues ---    0.01297   0.01386   0.01417   0.01419   0.01464
     Eigenvalues ---    0.01499   0.01554   0.01594   0.01770   0.02199
     Eigenvalues ---    0.02651   0.15077   0.15683   0.15737   0.15872
     Eigenvalues ---    0.15997   0.16000   0.17993   0.18458   0.20203
     Eigenvalues ---    0.21719   0.22443   0.23321   0.23380   0.23776
     Eigenvalues ---    0.23978   0.24292   0.24979   0.24995   0.26219
     Eigenvalues ---    0.26560   0.28336   0.30834   0.31293   0.31593
     Eigenvalues ---    0.34819   0.35164   0.35849   0.35867   0.36006
     Eigenvalues ---    0.36043   0.36317   0.37598   0.38260   0.38494
     Eigenvalues ---    0.39449   0.39757   0.406391000.000001000.00000
     Eigenvalues --- 1000.000001000.000001000.000001000.000001000.00000
     Eigenvalues --- 1000.000001000.000001000.000001000.000001000.00000
     Eigenvalues --- 1000.000001000.000001000.000001000.000001000.00000
     Eigenvalues --- 1000.000001000.000001000.000001000.000001000.00000
     Eigenvalues --- 1000.000001000.000001000.000001000.000001000.00000
     Eigenvalues --- 1000.000001000.000001000.000001000.000001000.00000
     Eigenvalues --- 1000.000001000.000001000.000001000.000001000.00000
     Eigenvalues --- 1000.000001000.000001000.000001000.000001000.00000
     Eigenvalues --- 1000.000001000.000001000.000001000.000001000.00000
     Eigenvalues --- 1000.000001000.000001000.000001000.000001000.00000
     Eigenvalues --- 1000.00000
 RFO step:  Lambda=-1.60066970D-01 EMin= 2.30000000D-03
 Linear search not attempted -- first point.
 Maximum step size (   0.300) exceeded in Quadratic search.
    -- Step size scaled by   0.473
 Iteration  1 RMS(Cart)=  0.06315096 RMS(Int)=  0.00154933
 Iteration  2 RMS(Cart)=  0.00188895 RMS(Int)=  0.00005897
 Iteration  3 RMS(Cart)=  0.00000971 RMS(Int)=  0.00005865
 Iteration  4 RMS(Cart)=  0.00000000 RMS(Int)=  0.00005865
 Iteration  1 RMS(Cart)=  0.00000125 RMS(Int)=  0.00000062
 Iteration  2 RMS(Cart)=  0.00000068 RMS(Int)=  0.00000069
 Variable       Old X    -DE/DX   Delta X   Delta X   Delta X     New X
                                 (Linear)    (Quad)   (Total)
    R1        2.71917  -0.02367   0.00000  -0.02110  -0.02103   2.69814
    R2        2.71391  -0.07064   0.00000  -0.06008  -0.06005   2.65386
    R3        3.19503  -0.10749   0.00000  -0.14765  -0.14765   3.04739
    R4        2.75906  -0.07452   0.00000  -0.06690  -0.06687   2.69220
    R5        2.35064  -0.07284   0.00000  -0.09141  -0.09141   2.25923
    R6        3.39578  -0.02532   0.00000  -0.02722  -0.02727   3.36851
    R7        2.74954  -0.01435   0.00000  -0.01267  -0.01267   2.73686
    R8        3.28671  -0.02017   0.00000  -0.01935  -0.01940   3.26731
    R9        2.04073  -0.00075   0.00000  -0.00068  -0.00068   2.04005
   R10        3.38293  -0.02008   0.00000  -0.02120  -0.02123   3.36169
   R11        2.76682  -0.06940   0.00000  -0.06282  -0.06282   2.70400
   R12        3.26886  -0.00546   0.00000  -0.00476  -0.00476   3.26410
   R13        2.72398  -0.03971   0.00000  -0.03457  -0.03450   2.68948
   R14        2.69464  -0.00373   0.00000  -0.00382  -0.00378   2.69086
   R15        2.70634  -0.01381   0.00000  -0.01237  -0.01234   2.69399
   R16        3.27414  -0.00475   0.00000  -0.00390  -0.00391   3.27023
   R17        2.04014   0.00156   0.00000   0.00142   0.00142   2.04156
   R18        3.33695  -0.01826   0.00000  -0.01863  -0.01868   3.31827
   R19        2.73083  -0.06557   0.00000  -0.05697  -0.05698   2.67385
   R20        2.04290  -0.00107   0.00000  -0.00098  -0.00098   2.04193
   R21        2.05410  -0.00410   0.00000  -0.00380  -0.00380   2.05030
   R22        2.39943  -0.12110   0.00000  -0.15833  -0.15833   2.24110
    A1        1.97020   0.01995   0.00000   0.02151   0.02161   1.99181
    A2        2.13260   0.00452   0.00000   0.00666   0.00662   2.13922
    A3        2.16079  -0.02391   0.00000  -0.02672  -0.02680   2.13398
    A4        1.97187  -0.00353   0.00000  -0.00607  -0.00598   1.96589
    A5        1.96334   0.02115   0.00000   0.03184   0.03180   1.99514
    A6        2.34288  -0.01748   0.00000  -0.02531  -0.02536   2.31752
    A7        1.90440   0.00098   0.00000   0.00190   0.00189   1.90629
    A8        2.31891  -0.01136   0.00000  -0.01351  -0.01351   2.30541
    A9        2.05972   0.01040   0.00000   0.01163   0.01163   2.07135
   A10        1.95339  -0.01474   0.00000  -0.01812  -0.01814   1.93525
   A11        2.17580   0.01205   0.00000   0.01599   0.01600   2.19180
   A12        2.15384   0.00273   0.00000   0.00220   0.00220   2.15605
   A13        1.62490  -0.00264   0.00000   0.00080   0.00063   1.62553
   A14        2.12888  -0.00720   0.00000  -0.00820  -0.00821   2.12067
   A15        2.24059  -0.00197   0.00000  -0.00218  -0.00219   2.23840
   A16        1.91305   0.00924   0.00000   0.01050   0.01052   1.92357
   A17        1.61911  -0.00731   0.00000  -0.00658  -0.00657   1.61254
   A18        1.96162  -0.01003   0.00000  -0.01020  -0.01030   1.95131
   A19        2.23882   0.00772   0.00000   0.01240   0.01227   2.25110
   A20        1.96504   0.00606   0.00000   0.00674   0.00679   1.97182
   A21        1.96581   0.00777   0.00000   0.00814   0.00814   1.97395
   A22        1.96664  -0.01292   0.00000  -0.01337  -0.01344   1.95320
   A23        2.23789   0.00876   0.00000   0.01375   0.01365   2.25154
   A24        1.96449   0.00036   0.00000  -0.00182  -0.00176   1.96273
   A25        2.16111  -0.00293   0.00000  -0.00273  -0.00278   2.15833
   A26        2.14559   0.00315   0.00000   0.00616   0.00610   2.15168
   A27        1.59321   0.00024   0.00000   0.00161   0.00160   1.59482
   A28        1.95947   0.00207   0.00000   0.00175   0.00173   1.96120
   A29        2.13545  -0.00466   0.00000  -0.00570  -0.00576   2.12969
   A30        2.17119   0.00367   0.00000   0.00675   0.00671   2.17791
   A31        1.94011   0.00454   0.00000   0.00326   0.00332   1.94343
   A32        2.16518   0.00057   0.00000   0.00370   0.00360   2.16878
   A33        2.14111  -0.00319   0.00000  -0.00205  -0.00216   2.13895
   A34        2.33954  -0.06953   0.00000  -0.10285  -0.10285   2.23669
    D1        0.00683  -0.00107   0.00000  -0.00296  -0.00297   0.00386
    D2        3.05589  -0.00091   0.00000  -0.00038  -0.00028   3.05561
    D3       -2.93068  -0.00118   0.00000  -0.00725  -0.00742  -2.93809
    D4        0.11838  -0.00102   0.00000  -0.00467  -0.00472   0.11366
    D5       -0.00671   0.00141   0.00000   0.00356   0.00356  -0.00315
    D6       -3.13020  -0.00054   0.00000  -0.00085  -0.00083  -3.13103
    D7        2.92697   0.00550   0.00000   0.01259   0.01250   2.93948
    D8       -0.19651   0.00355   0.00000   0.00818   0.00811  -0.18840
    D9       -0.13323   0.00161   0.00000   0.00182   0.00178  -0.13145
   D10       -3.04818  -0.00414   0.00000  -0.00918  -0.00913  -3.05731
   D11       -0.00388   0.00042   0.00000   0.00121   0.00116  -0.00272
   D12        3.11762   0.00168   0.00000   0.00248   0.00244   3.12006
   D13       -3.02603  -0.00287   0.00000  -0.00667  -0.00665  -3.03268
   D14        0.09547  -0.00161   0.00000  -0.00539  -0.00537   0.09010
   D15        0.00006   0.00038   0.00000   0.00075   0.00077   0.00083
   D16       -3.12486  -0.00040   0.00000   0.00000   0.00000  -3.12485
   D17        0.26159  -0.00194   0.00000   0.00000  -0.00000   0.26159
   D18       -2.92357   0.00058   0.00000   0.00434   0.00434  -2.91923
   D19       -2.90150  -0.00070   0.00000   0.00124   0.00125  -2.90025
   D20        0.19652   0.00182   0.00000   0.00558   0.00559   0.20211
   D21        0.00376  -0.00104   0.00000  -0.00248  -0.00247   0.00129
   D22        3.12751   0.00100   0.00000   0.00204   0.00199   3.12950
   D23        3.13774   0.00123   0.00000   0.00229   0.00229   3.14002
   D24        0.03240  -0.00069   0.00000  -0.00112  -0.00114   0.03126
   D25       -3.13845  -0.00171   0.00000  -0.00319  -0.00319   3.14155
   D26       -0.15872   0.00253   0.00000   0.00817   0.00816  -0.15056
   D27       -0.03609   0.00025   0.00000   0.00036   0.00040  -0.03568
   D28        2.94364   0.00449   0.00000   0.01173   0.01175   2.95540
   D29       -0.02110   0.00137   0.00000   0.00206   0.00204  -0.01905
   D30       -2.61605  -0.00757   0.00000  -0.01796  -0.01797  -2.63402
   D31        0.00364  -0.00107   0.00000  -0.00185  -0.00183   0.00181
   D32       -2.68862  -0.01028   0.00000  -0.02152  -0.02133  -2.70995
   D33        2.68742   0.00793   0.00000   0.01780   0.01769   2.70511
   D34       -0.00484  -0.00128   0.00000  -0.00186  -0.00181  -0.00665
   D35        2.61329   0.00599   0.00000   0.01738   0.01750   2.63079
   D36       -0.24598  -0.00070   0.00000  -0.00063  -0.00058  -0.24655
   D37        0.01920   0.00109   0.00000   0.00159   0.00156   0.02076
   D38       -2.84007  -0.00560   0.00000  -0.01642  -0.01652  -2.85658
   D39        0.02154   0.00052   0.00000   0.00089   0.00086   0.02241
   D40       -2.95985  -0.00303   0.00000  -0.00941  -0.00949  -2.96934
   D41        2.62779   0.00455   0.00000   0.01534   0.01548   2.64327
   D42       -0.35361   0.00101   0.00000   0.00504   0.00513  -0.34847
   D43       -0.00831   0.00113   0.00000   0.00147   0.00144  -0.00687
   D44       -2.61434  -0.00803   0.00000  -0.01832  -0.01829  -2.63264
   D45        0.01932  -0.00039   0.00000  -0.00045  -0.00045   0.01887
   D46        2.97135   0.00604   0.00000   0.01576   0.01569   2.98703
   D47       -0.02537  -0.00020   0.00000  -0.00045  -0.00043  -0.02579
   D48        2.83846   0.00707   0.00000   0.01834   0.01836   2.85682
   D49       -2.97282  -0.00573   0.00000  -0.01544  -0.01547  -2.98829
   D50       -0.10899   0.00154   0.00000   0.00336   0.00332  -0.10567
         Item               Value     Threshold  Converged?
 Maximum Force            0.121102     0.000450     NO 
 RMS     Force            0.024730     0.000300     NO 
 Maximum Displacement     0.429203     0.001800     NO 
 RMS     Displacement     0.062619     0.001200     NO 
 Predicted change in Energy=-6.535984D-02
 GradGradGradGradGradGradGradGradGradGradGradGradGradGradGradGradGradGrad

                          Input orientation:                          
 ---------------------------------------------------------------------
 Center     Atomic      Atomic             Coordinates (Angstroms)
 Number     Number       Type             X           Y           Z
 ---------------------------------------------------------------------
      1          6           0       -4.221492   -1.365487   -0.228010
      2          6           0       -2.907069   -0.967903   -0.618926
      3          6           0       -1.982847   -2.052077   -0.616758
      4          6           0       -4.339912   -2.730006    0.082309
      5         16           0       -2.824577   -3.539783   -0.111124
      6          1           0       -5.247368   -3.228037    0.388755
      7          6           0       -0.577214   -2.130151   -0.956808
      8         16           0        0.423116   -0.667854   -1.116893
      9          6           0        1.834011   -1.587357   -1.500825
     10          6           0        1.573090   -2.986378   -1.487128
     11          6           0        0.220187   -3.299865   -1.165081
     12          1           0       -0.122616   -4.303103   -0.957361
     13         16           0        3.006350   -3.907625   -1.184141
     14          6           0        3.975066   -2.446541   -1.083204
     15          6           0        3.201282   -1.274487   -1.255285
     16          1           0        5.004212   -2.463015   -0.754335
     17          1           0        3.561798   -0.290462   -0.974417
     18          1           0       -2.822073    0.170921   -0.972705
     19          8           0       -5.507068   -0.408483   -0.406744
     20          1           0       -5.532875    0.728695   -0.742320
 ---------------------------------------------------------------------
                    Distance matrix (angstroms):
                    1          2          3          4          5
     1  C    0.000000
     2  C    1.427794   0.000000
     3  C    2.373618   1.424648   0.000000
     4  C    1.404363   2.376926   2.550302   0.000000
     5  S    2.587005   2.622829   1.782539   1.728987   0.000000
     6  H    2.214026   3.405969   3.612622   1.079546   2.493387
     7  C    3.794288   2.625492   1.448286   3.949366   2.784400
     8  S    4.780082   3.380551   2.820437   5.327006   4.450512
     9  C    6.191801   4.862027   3.945369   6.475283   5.238862
    10  C    6.147344   4.989973   3.778247   6.123108   4.641026
    11  C    4.934413   3.939043   2.590558   4.761851   3.230940
    12  H    5.095323   4.357897   2.939998   4.619646   2.932467
    13  S    7.721292   6.627967   5.353229   7.547069   5.940234
    14  C    8.311654   7.054480   5.989148   8.401049   6.955232
    15  C    7.494074   6.149056   5.280867   7.795980   6.538474
    16  H    9.305654   8.052457   7.000485   9.385304   7.928625
    17  H    7.892554   6.513949   5.828747   8.336970   7.217281
    18  H    2.207599   1.195535   2.402648   3.439807   3.809416
    19  O    1.612609   2.667952   3.894308   2.644030   4.133786
    20  H    2.523854   3.128663   4.511226   3.750438   5.094427
                    6          7          8          9         10
     6  H    0.000000
     7  C    4.982593   0.000000
     8  S    6.401242   1.778932   0.000000
     9  C    7.510544   2.530728   1.727285   0.000000
    10  C    7.077852   2.374483   2.614396   1.423209   0.000000
    11  C    5.684516   1.430893   2.640262   2.376938   1.425600
    12  H    5.406558   2.219995   3.679444   3.391020   2.211298
    13  S    8.429692   4.006622   4.144120   2.618837   1.730529
    14  C    9.371802   4.565011   3.972557   2.344508   2.494808
    15  C    8.826036   3.885651   2.846992   1.423941   2.373885
    16  H   10.343443   5.595008   4.933609   3.372566   3.547322
    17  H    9.385574   4.529480   3.164499   2.223576   3.389070
    18  H    4.391872   3.214744   3.354934   5.004955   5.436049
    19  O    2.941113   5.250730   5.978182   7.515197   7.611925
    20  H    4.125114   5.725171   6.128987   7.759539   8.053027
                   11         12         13         14         15
    11  C    0.000000
    12  H    1.080347   0.000000
    13  S    2.851743   3.162003   0.000000
    14  C    3.851490   4.500406   1.755951   0.000000
    15  C    3.605165   4.506614   2.641301   1.414943   0.000000
    16  H    4.874005   5.450827   2.502615   1.080541   2.216778
    17  H    4.501025   5.447613   3.665566   2.198022   1.084972
    18  H    4.619384   5.225342   7.116864   7.284532   6.200795
    19  O    6.460388   6.668100   9.237241   9.722249   8.792345
    20  H    7.036032   7.391626   9.726718  10.029918   8.975599
                   16         17         18         19         20
    16  H    0.000000
    17  H    2.617056   0.000000
    18  H    8.260511   6.400523   0.000000
    19  O   10.715826   9.087382   2.804499   0.000000
    20  H   11.009876   9.154542   2.777164   1.185939   0.000000
 Stoichiometry    C10H6OS3
 Framework group  C1[X(C10H6OS3)]
 Deg. of freedom    54
 Full point group                 C1      NOp   1
 Largest Abelian subgroup         C1      NOp   1
 Largest concise Abelian subgroup C1      NOp   1
                         Standard orientation:                         
 ---------------------------------------------------------------------
 Center     Atomic      Atomic             Coordinates (Angstroms)
 Number     Number       Type             X           Y           Z
 ---------------------------------------------------------------------
      1          6           0       -3.858578    0.317266    0.114140
      2          6           0       -2.566590    0.909426   -0.022650
      3          6           0       -1.518032   -0.055003   -0.017493
      4          6           0       -3.839156   -1.082151    0.230282
      5         16           0       -2.219345   -1.683429    0.166445
      6          1           0       -4.706973   -1.716054    0.332654
      7          6           0       -0.081451    0.072150   -0.150154
      8         16           0        0.732837    1.644000    0.025407
      9          6           0        2.289727    0.950322   -0.254626
     10          6           0        2.213238   -0.456624   -0.455069
     11          6           0        0.881720   -0.960531   -0.381083
     12          1           0        0.647468   -2.014829   -0.354053
     13         16           0        3.700589   -1.247225   -0.058247
     14          6           0        4.449114    0.282814    0.368432
     15          6           0        3.559640    1.374499    0.230146
     16          1           0        5.418465    0.333762    0.843123
     17          1           0        3.748538    2.342380    0.682570
     18          1           0       -2.583737    2.089324   -0.214621
     19          8           0       -5.222068    1.141716   -0.134220
     20          1           0       -5.350295    2.305140   -0.325146
 ---------------------------------------------------------------------
 Rotational constants (GHZ):           1.4254837           0.2356235           0.2040279
 Standard basis: 6-311+G(d,p) (5D, 7F)
 There are   382 symmetry adapted cartesian basis functions of A   symmetry.
 There are   368 symmetry adapted basis functions of A   symmetry.
   368 basis functions,   594 primitive gaussians,   382 cartesian basis functions
    61 alpha electrons       61 beta electrons
       nuclear repulsion energy      1088.7818000345 Hartrees.
 NAtoms=   20 NActive=   20 NUniq=   20 SFac= 1.00D+00 NAtFMM=   60 NAOKFM=F Big=F
 Integral buffers will be    131072 words long.
 Raffenetti 2 integral format.
 Two-electron integral symmetry is turned on.
 Nuclear repulsion after empirical dispersion term =     1088.7719203460 Hartrees.
 One-electron integrals computed using PRISM.
 NBasis=   368 RedAO= T EigKep=  2.27D-06  NBF=   368
 NBsUse=   367 1.00D-06 EigRej=  3.29D-07 NBFU=   367
 Initial guess from the checkpoint file:  "/tmp/pbs.4766238[190].pbs/Gau-3765759.chk"
 B after Tr=     0.000000   -0.000000   -0.000000
         Rot=    0.999996    0.000895    0.000094    0.002575 Ang=   0.31 deg.
 ExpMin= 4.05D-02 ExpMax= 9.34D+04 ExpMxC= 3.17D+03 IAcc=3 IRadAn=         5 AccDes= 0.00D+00
 Harris functional with IExCor= 4639 and IRadAn=       5 diagonalized for initial guess.
 HarFok:  IExCor= 4639 AccDes= 0.00D+00 IRadAn=         5 IDoV= 1 UseB2=F ITyADJ=14
 ICtDFT=  3500011 ScaDFX=  1.000000  1.000000  1.000000  1.000000
 FoFCou: FMM=F IPFlag=           0 FMFlag=      100000 FMFlg1=           0
         NFxFlg=           0 DoJE=T BraDBF=F KetDBF=T FulRan=T
         wScrn=  0.000000 ICntrl=       500 IOpCl=  0 I1Cent=   200000004 NGrid=           0
         NMat0=    1 NMatS0=      1 NMatT0=    0 NMatD0=    1 NMtDS0=    0 NMtDT0=    0
 Petite list used in FoFCou.
 Requested convergence on RMS density matrix=1.00D-08 within 128 cycles.
 Requested convergence on MAX density matrix=1.00D-06.
 Requested convergence on             energy=1.00D-06.
 No special actions if energy rises.
 SCF Done:  E(RwB97XD) =  -1654.29619035     A.U. after   15 cycles
            NFock= 15  Conv=0.86D-08     -V/T= 2.0029
 Calling FoFJK, ICntrl=      2127 FMM=F ISym2X=0 I1Cent= 0 IOpClX= 0 NMat=1 NMatS=1 NMatT=0.
 ***** Axes restored to original set *****
 -------------------------------------------------------------------
 Center     Atomic                   Forces (Hartrees/Bohr)
 Number     Number              X              Y              Z
 -------------------------------------------------------------------
      1        6          -0.038068698    0.024557799   -0.020163108
      2        6           0.006440264    0.022799897   -0.014044897
      3        6          -0.035690062    0.018233002    0.002880817
      4        6          -0.006576070    0.045525130   -0.007604025
      5       16           0.000475828    0.023503981   -0.000829194
      6        1           0.002308877   -0.003241864   -0.001254321
      7        6           0.035937707   -0.026564260   -0.009014586
      8       16          -0.013128368   -0.009527737   -0.006222421
      9        6           0.003899258   -0.028041655    0.012949399
     10        6          -0.009600191    0.027281214    0.014859105
     11        6          -0.019542611    0.039782991    0.004844073
     12        1          -0.003903824   -0.000735084   -0.004267094
     13       16           0.010302133    0.011616181   -0.006775551
     14        6          -0.032901429    0.034180204   -0.002681646
     15        6           0.020516267   -0.037859153    0.011726664
     16        1           0.000916610   -0.004118266   -0.005252755
     17        1           0.002153758   -0.001322588   -0.008215957
     18        1           0.010900729   -0.056620247    0.015540805
     19        8           0.036597147    0.030425954   -0.008147364
     20        1           0.028962676   -0.109875498    0.031672056
 -------------------------------------------------------------------
 Cartesian Forces:  Max     0.109875498 RMS     0.025322371

 GradGradGradGradGradGradGradGradGradGradGradGradGradGradGradGradGradGrad
 Berny optimization.
 Using GEDIIS/GDIIS optimizer.
 FormGI is forming the generalized inverse of G from B-inverse, IUseBI=4.
 Internal  Forces:  Max     0.114950447 RMS     0.020418787
 Search for a local minimum.
 Step number   2 out of a maximum of  116
 All quantities printed in internal units (Hartrees-Bohrs-Radians)
 Mixed Optimization -- RFO/linear search
 Update second derivatives using D2CorX and points    1    2
 DE= -7.02D-02 DEPred=-6.54D-02 R= 1.07D+00
 TightC=F SS=  1.41D+00  RLast= 3.07D-01 DXNew= 5.0454D-01 9.1951D-01
 Trust test= 1.07D+00 RLast= 3.07D-01 DXMaxT set to 5.05D-01
 ITU=  1  0
 Use linear search instead of GDIIS.
 Linear search step of   0.600 exceeds DXMaxT=   0.505 but not scaled.
 Quartic linear search produced a step of  2.00000.
 Iteration  1 RMS(Cart)=  0.11011695 RMS(Int)=  0.01874420
 Iteration  2 RMS(Cart)=  0.02125846 RMS(Int)=  0.00036014
 Iteration  3 RMS(Cart)=  0.00011819 RMS(Int)=  0.00035206
 Iteration  4 RMS(Cart)=  0.00000004 RMS(Int)=  0.00035206
 Iteration  1 RMS(Cart)=  0.00000720 RMS(Int)=  0.00000372
 Iteration  2 RMS(Cart)=  0.00000393 RMS(Int)=  0.00000415
 Iteration  3 RMS(Cart)=  0.00000214 RMS(Int)=  0.00000469
 Iteration  4 RMS(Cart)=  0.00000117 RMS(Int)=  0.00000505
 Iteration  5 RMS(Cart)=  0.00000064 RMS(Int)=  0.00000525
 Variable       Old X    -DE/DX   Delta X   Delta X   Delta X     New X
                                 (Linear)    (Quad)   (Total)
    R1        2.69814  -0.01281  -0.04206   0.00000  -0.04163   2.65651
    R2        2.65386  -0.04811  -0.12010   0.00000  -0.11992   2.53394
    R3        3.04739  -0.10202  -0.29529   0.00000  -0.29529   2.75210
    R4        2.69220  -0.05090  -0.13374   0.00000  -0.13357   2.55863
    R5        2.25923  -0.05776  -0.18281   0.00000  -0.18281   2.07642
    R6        3.36851  -0.01903  -0.05454   0.00000  -0.05485   3.31366
    R7        2.73686  -0.00590  -0.02534   0.00000  -0.02534   2.71152
    R8        3.26731  -0.01093  -0.03880   0.00000  -0.03911   3.22820
    R9        2.04005  -0.00080  -0.00137   0.00000  -0.00137   2.03868
   R10        3.36169  -0.01427  -0.04247   0.00000  -0.04267   3.31903
   R11        2.70400  -0.04991  -0.12565   0.00000  -0.12567   2.57832
   R12        3.26410  -0.00181  -0.00952   0.00000  -0.00958   3.25452
   R13        2.68948  -0.02784  -0.06900   0.00000  -0.06859   2.62089
   R14        2.69086  -0.00086  -0.00756   0.00000  -0.00729   2.68357
   R15        2.69399  -0.00680  -0.02469   0.00000  -0.02451   2.66948
   R16        3.27023  -0.00156  -0.00783   0.00000  -0.00792   3.26231
   R17        2.04156   0.00110   0.00284   0.00000   0.00284   2.04440
   R18        3.31827  -0.01273  -0.03737   0.00000  -0.03767   3.28060
   R19        2.67385  -0.04595  -0.11395   0.00000  -0.11399   2.55986
   R20        2.04193  -0.00066  -0.00195   0.00000  -0.00195   2.03997
   R21        2.05030  -0.00261  -0.00760   0.00000  -0.00760   2.04270
   R22        2.24110  -0.11495  -0.31666   0.00000  -0.31666   1.92444
    A1        1.99181   0.01142   0.04322   0.00000   0.04378   2.03560
    A2        2.13922   0.00597   0.01325   0.00000   0.01303   2.15225
    A3        2.13398  -0.01679  -0.05361   0.00000  -0.05408   2.07990
    A4        1.96589  -0.00203  -0.01196   0.00000  -0.01136   1.95454
    A5        1.99514   0.01788   0.06359   0.00000   0.06329   2.05843
    A6        2.31752  -0.01570  -0.05072   0.00000  -0.05105   2.26647
    A7        1.90629   0.00226   0.00378   0.00000   0.00372   1.91001
    A8        2.30541  -0.00986  -0.02701   0.00000  -0.02698   2.27842
    A9        2.07135   0.00762   0.02326   0.00000   0.02329   2.09464
   A10        1.93525  -0.00838  -0.03627   0.00000  -0.03636   1.89889
   A11        2.19180   0.00813   0.03199   0.00000   0.03201   2.22381
   A12        2.15605   0.00026   0.00441   0.00000   0.00442   2.16047
   A13        1.62553  -0.00327   0.00127   0.00000   0.00021   1.62574
   A14        2.12067  -0.00623  -0.01642   0.00000  -0.01651   2.10415
   A15        2.23840  -0.00082  -0.00438   0.00000  -0.00447   2.23393
   A16        1.92357   0.00712   0.02105   0.00000   0.02119   1.94476
   A17        1.61254  -0.00526  -0.01314   0.00000  -0.01306   1.59948
   A18        1.95131  -0.00711  -0.02060   0.00000  -0.02122   1.93010
   A19        2.25110   0.00650   0.02455   0.00000   0.02378   2.27487
   A20        1.97182   0.00397   0.01357   0.00000   0.01385   1.98568
   A21        1.97395   0.00472   0.01628   0.00000   0.01629   1.99023
   A22        1.95320  -0.00865  -0.02688   0.00000  -0.02731   1.92589
   A23        2.25154   0.00721   0.02730   0.00000   0.02666   2.27820
   A24        1.96273   0.00056  -0.00351   0.00000  -0.00312   1.95961
   A25        2.15833  -0.00213  -0.00557   0.00000  -0.00591   2.15242
   A26        2.15168   0.00210   0.01219   0.00000   0.01184   2.16352
   A27        1.59482  -0.00057   0.00320   0.00000   0.00313   1.59794
   A28        1.96120   0.00242   0.00345   0.00000   0.00334   1.96454
   A29        2.12969  -0.00468  -0.01152   0.00000  -0.01186   2.11783
   A30        2.17791   0.00321   0.01343   0.00000   0.01317   2.19108
   A31        1.94343   0.00284   0.00663   0.00000   0.00696   1.95039
   A32        2.16878   0.00033   0.00720   0.00000   0.00658   2.17535
   A33        2.13895  -0.00152  -0.00433   0.00000  -0.00500   2.13394
   A34        2.23669  -0.05926  -0.20569   0.00000  -0.20569   2.03099
    D1        0.00386  -0.00079  -0.00595   0.00000  -0.00607  -0.00221
    D2        3.05561  -0.00033  -0.00056   0.00000   0.00003   3.05564
    D3       -2.93809  -0.00208  -0.01483   0.00000  -0.01581  -2.95390
    D4        0.11366  -0.00163  -0.00944   0.00000  -0.00972   0.10395
    D5       -0.00315   0.00114   0.00713   0.00000   0.00715   0.00401
    D6       -3.13103  -0.00057  -0.00166   0.00000  -0.00153  -3.13256
    D7        2.93948   0.00533   0.02501   0.00000   0.02448   2.96395
    D8       -0.18840   0.00363   0.01622   0.00000   0.01579  -0.17261
    D9       -0.13145   0.00123   0.00356   0.00000   0.00328  -0.12817
   D10       -3.05731  -0.00362  -0.01826   0.00000  -0.01799  -3.07530
   D11       -0.00272   0.00013   0.00232   0.00000   0.00203  -0.00069
   D12        3.12006   0.00144   0.00487   0.00000   0.00461   3.12466
   D13       -3.03268  -0.00297  -0.01330   0.00000  -0.01319  -3.04587
   D14        0.09010  -0.00166  -0.01075   0.00000  -0.01061   0.07948
   D15        0.00083   0.00045   0.00154   0.00000   0.00166   0.00249
   D16       -3.12485  -0.00044   0.00001   0.00000  -0.00000  -3.12485
   D17        0.26159  -0.00186  -0.00001   0.00000   0.00000   0.26159
   D18       -2.91923   0.00056   0.00867   0.00000   0.00866  -2.91057
   D19       -2.90025  -0.00052   0.00250   0.00000   0.00256  -2.89769
   D20        0.20211   0.00190   0.01118   0.00000   0.01123   0.21334
   D21        0.00129  -0.00090  -0.00494   0.00000  -0.00490  -0.00362
   D22        3.12950   0.00084   0.00398   0.00000   0.00367   3.13317
   D23        3.14002   0.00118   0.00458   0.00000   0.00455  -3.13861
   D24        0.03126  -0.00074  -0.00228   0.00000  -0.00240   0.02885
   D25        3.14155  -0.00150  -0.00637   0.00000  -0.00633   3.13522
   D26       -0.15056   0.00255   0.01633   0.00000   0.01629  -0.13426
   D27       -0.03568   0.00047   0.00081   0.00000   0.00104  -0.03464
   D28        2.95540   0.00452   0.02351   0.00000   0.02366   2.97906
   D29       -0.01905   0.00112   0.00409   0.00000   0.00401  -0.01504
   D30       -2.63402  -0.00684  -0.03594   0.00000  -0.03596  -2.66998
   D31        0.00181  -0.00076  -0.00365   0.00000  -0.00351  -0.00169
   D32       -2.70995  -0.00903  -0.04266   0.00000  -0.04153  -2.75148
   D33        2.70511   0.00733   0.03538   0.00000   0.03469   2.73980
   D34       -0.00665  -0.00094  -0.00363   0.00000  -0.00333  -0.00999
   D35        2.63079   0.00605   0.03500   0.00000   0.03571   2.66650
   D36       -0.24655  -0.00039  -0.00116   0.00000  -0.00085  -0.24740
   D37        0.02076   0.00066   0.00313   0.00000   0.00297   0.02373
   D38       -2.85658  -0.00577  -0.03303   0.00000  -0.03359  -2.89017
   D39        0.02241   0.00018   0.00172   0.00000   0.00157   0.02397
   D40       -2.96934  -0.00343  -0.01898   0.00000  -0.01944  -2.98878
   D41        2.64327   0.00518   0.03097   0.00000   0.03180   2.67507
   D42       -0.34847   0.00157   0.01026   0.00000   0.01079  -0.33768
   D43       -0.00687   0.00094   0.00288   0.00000   0.00271  -0.00416
   D44       -2.63264  -0.00711  -0.03659   0.00000  -0.03641  -2.66905
   D45        0.01887  -0.00048  -0.00089   0.00000  -0.00088   0.01799
   D46        2.98703   0.00557   0.03138   0.00000   0.03096   3.01800
   D47       -0.02579   0.00007  -0.00085   0.00000  -0.00070  -0.02650
   D48        2.85682   0.00669   0.03672   0.00000   0.03684   2.89366
   D49       -2.98829  -0.00524  -0.03094   0.00000  -0.03114  -3.01943
   D50       -0.10567   0.00137   0.00664   0.00000   0.00640  -0.09927
         Item               Value     Threshold  Converged?
 Maximum Force            0.114950     0.000450     NO 
 RMS     Force            0.020514     0.000300     NO 
 Maximum Displacement     0.771584     0.001800     NO 
 RMS     Displacement     0.121536     0.001200     NO 
 Predicted change in Energy=-1.035310D-01
 GradGradGradGradGradGradGradGradGradGradGradGradGradGradGradGradGradGrad

                          Input orientation:                          
 ---------------------------------------------------------------------
 Center     Atomic      Atomic             Coordinates (Angstroms)
 Number     Number       Type             X           Y           Z
 ---------------------------------------------------------------------
      1          6           0       -4.161352   -1.371183   -0.264912
      2          6           0       -2.857440   -1.000604   -0.637274
      3          6           0       -2.004867   -2.052130   -0.612004
      4          6           0       -4.354355   -2.661644    0.044082
      5         16           0       -2.870895   -3.493652   -0.115200
      6          1           0       -5.277607   -3.133175    0.342614
      7          6           0       -0.608180   -2.128375   -0.931885
      8         16           0        0.356512   -0.667529   -1.073567
      9          6           0        1.770192   -1.577838   -1.446234
     10          6           0        1.492073   -2.936541   -1.436040
     11          6           0        0.148757   -3.246491   -1.127903
     12          1           0       -0.212896   -4.249095   -0.942454
     13         16           0        2.939072   -3.843503   -1.183336
     14          6           0        3.890157   -2.393419   -1.102986
     15          6           0        3.141419   -1.272666   -1.238272
     16          1           0        4.934683   -2.421297   -0.831831
     17          1           0        3.522027   -0.291244   -0.992493
     18          1           0       -2.692116    0.032119   -0.974178
     19          8           0       -5.316611   -0.498466   -0.422038
     20          1           0       -5.124571    0.457733   -0.715089
 ---------------------------------------------------------------------
                    Distance matrix (angstroms):
                    1          2          3          4          5
     1  C    0.000000
     2  C    1.405762   0.000000
     3  C    2.287923   1.353967   0.000000
     4  C    1.340902   2.337532   2.514369   0.000000
     5  S    2.488487   2.547161   1.753512   1.708292   0.000000
     6  H    2.172494   3.371238   3.576421   1.078822   2.476247
     7  C    3.693673   2.533344   1.434876   3.907776   2.766014
     8  S    4.643291   3.260488   2.776018   5.236211   4.395634
     9  C    6.051565   4.733138   3.895120   6.395761   5.194389
    10  C    5.981898   4.827437   3.699974   6.037139   4.592437
    11  C    4.778972   3.784434   2.516097   4.689734   3.194519
    12  H    4.932722   4.199933   2.854297   4.543670   2.884441
    13  S    7.574424   6.479183   5.289421   7.489822   5.917688
    14  C    8.159297   6.905569   5.925272   8.328246   6.920842
    15  C    7.368012   6.035026   5.242522   7.730480   6.507072
    16  H    9.173985   7.922967   6.952838   9.333339   7.911419
    17  H    7.792943   6.428606   5.813093   8.290397   7.203784
    18  H    2.151968   1.098796   2.224314   3.325094   3.633299
    19  O    1.456347   2.519125   3.663005   2.412995   3.879022
    20  H    2.115510   2.696791   4.005321   3.301528   4.588286
                    6          7          8          9         10
     6  H    0.000000
     7  C    4.943432   0.000000
     8  S    6.310966   1.756354   0.000000
     9  C    7.435760   2.494855   1.722218   0.000000
    10  C    7.002203   2.306159   2.563065   1.386913   0.000000
    11  C    5.623227   1.364390   2.587887   2.348359   1.412628
    12  H    5.343031   2.157270   3.628916   3.364824   2.207565
    13  S    8.387307   3.948150   4.094933   2.562934   1.726339
    14  C    9.310472   4.509386   3.932710   2.297225   2.481272
    15  C    8.765883   3.858187   2.854650   1.420086   2.351156
    16  H   10.304221   5.551500   4.908542   3.332104   3.533003
    17  H    9.343053   4.520767   3.188831   2.220390   3.363784
    18  H    4.293925   3.002051   3.129460   4.767283   5.151086
    19  O    2.743704   5.008579   5.712915   7.241325   7.302779
    20  H    3.746569   5.208910   5.606870   7.226056   7.471335
                   11         12         13         14         15
    11  C    0.000000
    12  H    1.081849   0.000000
    13  S    2.854007   3.187073   0.000000
    14  C    3.837503   4.506034   1.736018   0.000000
    15  C    3.586669   4.494226   2.579372   1.354621   0.000000
    16  H    4.865562   5.463575   2.475618   1.079508   2.168027
    17  H    4.486733   5.442126   3.604830   2.137023   1.080953
    18  H    4.340906   4.947355   6.839186   7.016134   5.983506
    19  O    6.157932   6.354995   8.940087   9.424389   8.532520
    20  H    6.457529   6.806649   9.151078   9.462814   8.461359
                   16         17         18         19         20
    16  H    0.000000
    17  H    2.560964   0.000000
    18  H    8.012963   6.222577   0.000000
    19  O   10.438115   8.859451   2.733926   0.000000
    20  H   10.463796   8.683408   2.482965   1.018368   0.000000
 Stoichiometry    C10H6OS3
 Framework group  C1[X(C10H6OS3)]
 Deg. of freedom    54
 Full point group                 C1      NOp   1
 Largest Abelian subgroup         C1      NOp   1
 Largest concise Abelian subgroup C1      NOp   1
                         Standard orientation:                         
 ---------------------------------------------------------------------
 Center     Atomic      Atomic             Coordinates (Angstroms)
 Number     Number       Type             X           Y           Z
 ---------------------------------------------------------------------
      1          6           0       -3.762956    0.354019    0.084613
      2          6           0       -2.474257    0.900265   -0.045915
      3          6           0       -1.514054   -0.053926   -0.018398
      4          6           0       -3.841052   -0.978816    0.208998
      5         16           0       -2.261507   -1.628473    0.173747
      6          1           0       -4.733386   -1.576430    0.311253
      7          6           0       -0.088086    0.054141   -0.135903
      8         16           0        0.706798    1.610695    0.037528
[...]
 Stoichiometry    C10H6OS3
 Framework group  C1[X(C10H6OS3)]
 Deg. of freedom    54
 Full point group                 C1      NOp   1
 Largest Abelian subgroup         C1      NOp   1
 Largest concise Abelian subgroup C1      NOp   1
                         Standard orientation:                         
 ---------------------------------------------------------------------
 Center     Atomic      Atomic             Coordinates (Angstroms)
 Number     Number       Type             X           Y           Z
 ---------------------------------------------------------------------
      1          6           0       -3.813345    0.415791   -0.119113
      2          6           0       -2.470198    0.887307   -0.172488
      3          6           0       -1.550757   -0.112391   -0.006655
      4          6           0       -3.901183   -0.926468    0.088306
      5         16           0       -2.337778   -1.636729    0.237505
      6          1           0       -4.794951   -1.524928    0.161636
      7          6           0       -0.100844   -0.006398    0.011606
      8         16           0        0.656865    1.564701    0.199834
      9          6           0        2.232728    0.857621    0.085042
     10          6           0        2.147507   -0.510932   -0.076400
     11          6           0        0.817748   -1.008597   -0.125881
     12          1           0        0.549946   -2.046226   -0.272386
     13         16           0        3.723647   -1.217161   -0.188190
     14          6           0        4.463928    0.344055   -0.013249
     15          6           0        3.565702    1.355858    0.122985
     16          1           0        5.540915    0.420258   -0.020952
     17          1           0        3.842900    2.393503    0.243261
     18          1           0       -2.201892    1.922318   -0.349622
     19          8           0       -4.914847    1.197272   -0.265368
     20          1           0       -4.649600    2.108851   -0.390288
 ---------------------------------------------------------------------
 Rotational constants (GHZ):           1.5248068           0.2411945           0.2094483

 **********************************************************************

            Population analysis using the SCF Density.

 **********************************************************************

 Orbital symmetries:
       Occupied  (A) (A) (A) (A) (A) (A) (A) (A) (A) (A) (A) (A)
                 (A) (A) (A) (A) (A) (A) (A) (A) (A) (A) (A) (A)
                 (A) (A) (A) (A) (A) (A) (A) (A) (A) (A) (A) (A)
                 (A) (A) (A) (A) (A) (A) (A) (A) (A) (A) (A) (A)
                 (A) (A) (A) (A) (A) (A) (A) (A) (A) (A) (A) (A)
                 (A)
       Virtual   (A) (A) (A) (A) (A) (A) (A) (A) (A) (A) (A) (A)
                 (A) (A) (A) (A) (A) (A) (A) (A) (A) (A) (A) (A)
                 (A) (A) (A) (A) (A) (A) (A) (A) (A) (A) (A) (A)
                 (A) (A) (A) (A) (A) (A) (A) (A) (A) (A) (A) (A)
                 (A) (A) (A) (A) (A) (A) (A) (A) (A) (A) (A) (A)
                 (A) (A) (A) (A) (A) (A) (A) (A) (A) (A) (A) (A)
                 (A) (A) (A) (A) (A) (A) (A) (A) (A) (A) (A) (A)
                 (A) (A) (A) (A) (A) (A) (A) (A) (A) (A) (A) (A)
                 (A) (A) (A) (A) (A) (A) (A) (A) (A) (A) (A) (A)
                 (A) (A) (A) (A) (A) (A) (A) (A) (A) (A) (A) (A)
                 (A) (A) (A) (A) (A) (A) (A) (A) (A) (A) (A) (A)
                 (A) (A) (A) (A) (A) (A) (A) (A) (A) (A) (A) (A)
                 (A) (A) (A) (A) (A) (A) (A) (A) (A) (A) (A) (A)
                 (A) (A) (A) (A) (A) (A) (A) (A) (A) (A) (A) (A)
                 (A) (A) (A) (A) (A) (A) (A) (A) (A) (A) (A) (A)
                 (A) (A) (A) (A) (A) (A) (A) (A) (A) (A) (A) (A)
                 (A) (A) (A) (A) (A) (A) (A) (A) (A) (A) (A) (A)
                 (A) (A) (A) (A) (A) (A) (A) (A) (A) (A) (A) (A)
                 (A) (A) (A) (A) (A) (A) (A) (A) (A) (A) (A) (A)
                 (A) (A) (A) (A) (A) (A) (A) (A) (A) (A) (A) (A)
                 (A) (A) (A) (A) (A) (A) (A) (A) (A) (A) (A) (A)
                 (A) (A) (A) (A) (A) (A) (A) (A) (A) (A) (A) (A)
                 (A) (A) (A) (A) (A) (A) (A) (A) (A) (A) (A) (A)
                 (A) (A) (A) (A) (A) (A) (A) (A) (A) (A) (A) (A)
                 (A) (A) (A) (A) (A) (A) (A) (A) (A) (A) (A) (A)
                 (A) (A) (A) (A) (A)
 The electronic state is 1-A.
 Alpha  occ. eigenvalues --  -89.05566 -89.05466 -89.05248 -19.28840 -10.35875
 Alpha  occ. eigenvalues --  -10.34400 -10.34221 -10.32902 -10.32833 -10.32703
 Alpha  occ. eigenvalues --  -10.31001 -10.30910 -10.30873 -10.30310  -8.09620
 Alpha  occ. eigenvalues --   -8.09510  -8.09317  -6.04481  -6.04358  -6.04163
 Alpha  occ. eigenvalues --   -6.04110  -6.03984  -6.03779  -6.03653  -6.03572
 Alpha  occ. eigenvalues --   -6.03393  -1.17929  -1.02747  -0.99977  -0.95736
 Alpha  occ. eigenvalues --   -0.87651  -0.86441  -0.84362  -0.81442  -0.80405
 Alpha  occ. eigenvalues --   -0.72565  -0.68070  -0.67157  -0.64798  -0.63852
 Alpha  occ. eigenvalues --   -0.62212  -0.59010  -0.57119  -0.52580  -0.52514
 Alpha  occ. eigenvalues --   -0.52120  -0.51130  -0.49962  -0.48102  -0.47847
 Alpha  occ. eigenvalues --   -0.46401  -0.45803  -0.45589  -0.43554  -0.42588
 Alpha  occ. eigenvalues --   -0.42379  -0.37508  -0.34727  -0.31807  -0.31249
 Alpha  occ. eigenvalues --   -0.27534
 Alpha virt. eigenvalues --   -0.00296   0.04815   0.05423   0.05556   0.06034
 Alpha virt. eigenvalues --    0.06716   0.07512   0.07666   0.08260   0.08521
 Alpha virt. eigenvalues --    0.08994   0.09408   0.10034   0.10149   0.10206
 Alpha virt. eigenvalues --    0.10899   0.11622   0.11956   0.12543   0.12862
 Alpha virt. eigenvalues --    0.13515   0.13696   0.13981   0.14491   0.14916
 Alpha virt. eigenvalues --    0.15541   0.16217   0.16922   0.17378   0.17646
 Alpha virt. eigenvalues --    0.17798   0.18321   0.18781   0.18948   0.19454
 Alpha virt. eigenvalues --    0.19967   0.20585   0.20966   0.21525   0.21684
 Alpha virt. eigenvalues --    0.22454   0.22688   0.23074   0.23634   0.23884
 Alpha virt. eigenvalues --    0.24079   0.24692   0.24775   0.25743   0.26042
 Alpha virt. eigenvalues --    0.26286   0.26583   0.26881   0.27322   0.27967
 Alpha virt. eigenvalues --    0.28426   0.28604   0.28900   0.29647   0.29857
 Alpha virt. eigenvalues --    0.30669   0.31194   0.31993   0.33002   0.33855
 Alpha virt. eigenvalues --    0.34433   0.34806   0.35775   0.36688   0.36823
 Alpha virt. eigenvalues --    0.37342   0.38906   0.39342   0.40139   0.40453
 Alpha virt. eigenvalues --    0.40732   0.41596   0.41688   0.42449   0.43014
 Alpha virt. eigenvalues --    0.45049   0.46223   0.47274   0.48011   0.49424
 Alpha virt. eigenvalues --    0.50526   0.52440   0.52865   0.54712   0.55500
 Alpha virt. eigenvalues --    0.56664   0.59941   0.61407   0.61836   0.62275
 Alpha virt. eigenvalues --    0.63238   0.63533   0.63927   0.64525   0.65423
 Alpha virt. eigenvalues --    0.66942   0.67881   0.68563   0.69821   0.70201
 Alpha virt. eigenvalues --    0.70828   0.71632   0.72779   0.75743   0.76102
 Alpha virt. eigenvalues --    0.76806   0.78838   0.78983   0.79711   0.80611
 Alpha virt. eigenvalues --    0.80922   0.81771   0.83009   0.83581   0.84512
 Alpha virt. eigenvalues --    0.85526   0.86091   0.86811   0.87115   0.87846
 Alpha virt. eigenvalues --    0.90367   0.90442   0.91347   0.91569   0.92645
 Alpha virt. eigenvalues --    0.93054   0.93428   0.95751   0.96153   0.96733
 Alpha virt. eigenvalues --    0.97157   0.98415   0.99615   1.00474   1.02208
 Alpha virt. eigenvalues --    1.03495   1.04833   1.05811   1.07234   1.08246
 Alpha virt. eigenvalues --    1.10596   1.11446   1.12064   1.12730   1.14038
 Alpha virt. eigenvalues --    1.14619   1.15083   1.16232   1.17144   1.20608
 Alpha virt. eigenvalues --    1.21884   1.22375   1.23354   1.24770   1.26713
 Alpha virt. eigenvalues --    1.29012   1.30200   1.33967   1.35422   1.42672
 Alpha virt. eigenvalues --    1.43669   1.44806   1.46542   1.49791   1.50291
 Alpha virt. eigenvalues --    1.51594   1.60701   1.61611   1.63313   1.64552
 Alpha virt. eigenvalues --    1.65698   1.66891   1.68410   1.68527   1.69008
 Alpha virt. eigenvalues --    1.71682   1.74117   1.75546   1.77020   1.77461
 Alpha virt. eigenvalues --    1.78651   1.80782   1.81572   1.82497   1.84364
 Alpha virt. eigenvalues --    1.85177   1.87456   1.89121   1.90811   1.93583
 Alpha virt. eigenvalues --    1.95135   1.95866   1.97190   1.99622   2.01022
 Alpha virt. eigenvalues --    2.04542   2.05099   2.05976   2.06910   2.08194
 Alpha virt. eigenvalues --    2.10020   2.11191   2.12872   2.13834   2.14299
 Alpha virt. eigenvalues --    2.15833   2.17028   2.18123   2.19387   2.21332
 Alpha virt. eigenvalues --    2.21787   2.24126   2.26709   2.27941   2.29345
 Alpha virt. eigenvalues --    2.31661   2.38518   2.39924   2.45413   2.49966
 Alpha virt. eigenvalues --    2.51132   2.54057   2.59399   2.62515   2.68161
 Alpha virt. eigenvalues --    2.71572   2.76966   2.77703   2.78697   2.79773
 Alpha virt. eigenvalues --    2.80692   2.81734   2.81920   2.83542   2.84555
 Alpha virt. eigenvalues --    2.85784   2.87014   2.92268   2.95145   2.99954
 Alpha virt. eigenvalues --    3.01508   3.04303   3.04771   3.08313   3.12136
 Alpha virt. eigenvalues --    3.16752   3.17640   3.22437   3.24434   3.27022
 Alpha virt. eigenvalues --    3.29288   3.32419   3.37875   3.38463   3.40545
 Alpha virt. eigenvalues --    3.44417   3.47138   3.53922   3.56521   3.57919
 Alpha virt. eigenvalues --    3.66405   3.71676   3.74890   3.95008   3.97742
 Alpha virt. eigenvalues --    4.06776   4.18666   4.21978   4.31755   4.47264
 Alpha virt. eigenvalues --    4.67236   5.11106   5.54133   5.86491   8.09199
 Alpha virt. eigenvalues --    8.11303   8.12157  17.41279  17.42211  17.43286
 Alpha virt. eigenvalues --   17.59542  17.61930  17.64425  17.67770  17.68839
 Alpha virt. eigenvalues --   17.71415  23.60515  23.76450  23.88810  23.94078
 Alpha virt. eigenvalues --   23.98717  24.17242  24.23747  24.25841  24.27608
 Alpha virt. eigenvalues --   24.29583  50.07966 189.34046 189.36545 189.37477
          Condensed to atoms (all electrons):
               1          2          3          4          5          6
     1  C    9.985385  -2.761506  -0.136450  -1.075183   0.621570   0.065862
     2  C   -2.761506  14.147951  -2.929587   0.906090  -2.816649  -0.042933
     3  C   -0.136450  -2.929587   9.708915  -0.636106   0.731091   0.031408
     4  C   -1.075183   0.906090  -0.636106   7.135185  -0.493687   0.361630
     5  S    0.621570  -2.816649   0.731091  -0.493687  17.657013  -0.036158
     6  H    0.065862  -0.042933   0.031408   0.361630  -0.036158   0.440821
     7  C   -0.009926  -0.391783  -0.373415  -0.041838   0.751776  -0.003149
     8  S   -0.245115   0.016611   0.438594   0.114583   0.064821  -0.000810
     9  C   -0.030207  -0.971088  -0.489696  -0.061632   0.268876  -0.000164
    10  C    0.055999   0.092354   0.037269  -0.056659  -0.107565   0.000253
    11  C    0.149830  -0.212569  -0.889795  -0.268536  -0.122926   0.001833
    12  H   -0.003255   0.007282   0.029219   0.004091   0.003548   0.000001
    13  S   -0.000387   0.041915   0.005019  -0.000011  -0.030397   0.000007
    14  C   -0.003145  -0.026543  -0.042189  -0.000125   0.007992  -0.000000
    15  C    0.004191  -0.099787   0.243955   0.000840   0.012987  -0.000008
    16  H   -0.000000   0.000019   0.000029  -0.000000  -0.000005   0.000000
    17  H    0.000017  -0.000187  -0.000900  -0.000004   0.000023   0.000000
    18  H   -0.051649   0.250538   0.151839  -0.057118   0.020741  -0.000011
    19  O    0.191233   0.008112   0.050176  -0.253405   0.020498  -0.005130
    20  H    0.005734  -0.073333  -0.016368   0.102817  -0.007345   0.000238
               7          8          9         10         11         12
     1  C   -0.009926  -0.245115  -0.030207   0.055999   0.149830  -0.003255
     2  C   -0.391783   0.016611  -0.971088   0.092354  -0.212569   0.007282
     3  C   -0.373415   0.438594  -0.489696   0.037269  -0.889795   0.029219
     4  C   -0.041838   0.114583  -0.061632  -0.056659  -0.268536   0.004091
     5  S    0.751776   0.064821   0.268876  -0.107565  -0.122926   0.003548
     6  H   -0.003149  -0.000810  -0.000164   0.000253   0.001833   0.000001
     7  C   10.581235   0.713193  -1.189912  -2.257239  -0.471942   0.046732
     8  S    0.713193  17.841248  -0.191174  -0.935316  -0.859150   0.013806
     9  C   -1.189912  -0.191174  15.572033  -4.856114   0.342941  -0.077095
    10  C   -2.257239  -0.935316  -4.856114  12.819056   0.303179  -0.046627
    11  C   -0.471942  -0.859150   0.342941   0.303179   8.651637   0.364467
    12  H    0.046732   0.013806  -0.077095  -0.046627   0.364467   0.475918
    13  S   -1.142592   0.040330   0.123149  -0.404427   0.082186   0.008677
    14  C   -0.210595  -0.062112   0.732088  -0.859430   0.070135  -0.003226
    15  C   -0.041786  -0.359597  -3.486090   1.931857  -1.280623   0.007328
    16  H    0.004970  -0.000765   0.017075   0.027762  -0.000342  -0.000003
    17  H   -0.006706   0.014114   0.017618  -0.053986   0.002001   0.000002
    18  H    0.019423   0.015774   0.009830   0.000294  -0.004595   0.000028
    19  O   -0.002135   0.005878   0.001058  -0.001656  -0.001239  -0.000002
    20  H    0.000281   0.001372  -0.000283   0.000143  -0.000490   0.000000
              13         14         15         16         17         18
     1  C   -0.000387  -0.003145   0.004191  -0.000000   0.000017  -0.051649
     2  C    0.041915  -0.026543  -0.099787   0.000019  -0.000187   0.250538
     3  C    0.005019  -0.042189   0.243955   0.000029  -0.000900   0.151839
     4  C   -0.000011  -0.000125   0.000840  -0.000000  -0.000004  -0.057118
     5  S   -0.030397   0.007992   0.012987  -0.000005   0.000023   0.020741
     6  H    0.000007  -0.000000  -0.000008   0.000000   0.000000  -0.000011
     7  C   -1.142592  -0.210595  -0.041786   0.004970  -0.006706   0.019423
     8  S    0.040330  -0.062112  -0.359597  -0.000765   0.014114   0.015774
     9  C    0.123149   0.732088  -3.486090   0.017075   0.017618   0.009830
    10  C   -0.404427  -0.859430   1.931857   0.027762  -0.053986   0.000294
    11  C    0.082186   0.070135  -1.280623  -0.000342   0.002001  -0.004595
    12  H    0.008677  -0.003226   0.007328  -0.000003   0.000002   0.000028
    13  S   17.704900   0.406976  -0.337696  -0.041456   0.007366  -0.000061
    14  C    0.406976   5.644976   0.070751   0.390199   0.025004   0.000080
    15  C   -0.337696   0.070751   9.331246  -0.029567   0.355762  -0.000083
    16  H   -0.041456   0.390199  -0.029567   0.440781  -0.003564  -0.000000
    17  H    0.007366   0.025004   0.355762  -0.003564   0.480998   0.000000
    18  H   -0.000061   0.000080  -0.000083  -0.000000   0.000000   0.497486
    19  O   -0.000047   0.000002   0.000080   0.000000   0.000000  -0.003042
    20  H    0.000001   0.000000  -0.000000   0.000000  -0.000000   0.002504
              19         20
     1  C    0.191233   0.005734
     2  C    0.008112  -0.073333
     3  C    0.050176  -0.016368
     4  C   -0.253405   0.102817
     5  S    0.020498  -0.007345
     6  H   -0.005130   0.000238
     7  C   -0.002135   0.000281
     8  S    0.005878   0.001372
     9  C    0.001058  -0.000283
    10  C   -0.001656   0.000143
    11  C   -0.001239  -0.000490
    12  H   -0.000002   0.000000
    13  S   -0.000047   0.000001
    14  C    0.000002   0.000000
    15  C    0.000080  -0.000000
    16  H    0.000000   0.000000
    17  H    0.000000  -0.000000
    18  H   -0.003042   0.002504
    19  O    7.995380   0.266400
    20  H    0.266400   0.453569
 Mulliken charges:
               1
     1  C   -0.762998
     2  C    0.855092
     3  C    0.086990
     4  C    0.319067
     5  S   -0.546204
     6  H    0.186308
     7  C    0.025411
     8  S   -0.626287
     9  C    0.268787
    10  C    0.310852
    11  C    0.143997
    12  H    0.169109
    13  S   -0.463455
    14  C   -0.140839
    15  C   -0.323761
    16  H    0.194867
    17  H    0.162442
    18  H    0.148022
    19  O   -0.272162
    20  H    0.264760
 Sum of Mulliken charges =  -0.00000
 Mulliken charges with hydrogens summed into heavy atoms:
               1
     1  C   -0.762998
     2  C    1.003115
     3  C    0.086990
     4  C    0.505376
     5  S   -0.546204
     7  C    0.025411
     8  S   -0.626287
     9  C    0.268787
    10  C    0.310852
    11  C    0.313106
    13  S   -0.463455
    14  C    0.054028
    15  C   -0.161320
    19  O   -0.007401
 Electronic spatial extent (au):  <R**2>=           4747.2916
 Charge=              0.0000 electrons
 Dipole moment (field-independent basis, Debye):
    X=              1.1529    Y=              1.5392    Z=             -0.2653  Tot=              1.9413
 Quadrupole moment (field-independent basis, Debye-Ang):
   XX=            -96.1381   YY=            -90.5200   ZZ=           -107.9699
   XY=             -0.3525   XZ=              0.7644   YZ=             -0.6684
 Traceless Quadrupole moment (field-independent basis, Debye-Ang):
   XX=              2.0712   YY=              7.6893   ZZ=             -9.7606
   XY=             -0.3525   XZ=              0.7644   YZ=             -0.6684
 Octapole moment (field-independent basis, Debye-Ang**2):
  XXX=             78.0044  YYY=             21.5602  ZZZ=             -0.9999  XYY=            -28.9063
  XXY=             23.0349  XXZ=              0.7805  XZZ=             -8.3493  YZZ=              1.4901
  YYZ=             -2.7620  XYZ=              8.4647
 Hexadecapole moment (field-independent basis, Debye-Ang**3):
 XXXX=          -5230.4621 YYYY=           -855.9328 ZZZZ=           -150.7544 XXXY=             69.7736
 XXXZ=             -5.0391 YYYX=            -62.1066 YYYZ=             -5.7285 ZZZX=              4.6834
 ZZZY=             -2.2446 XXYY=           -884.5558 XXZZ=           -993.9126 YYZZ=           -190.0725
 XXYZ=            -18.6785 YYXZ=             15.7719 ZZXY=            -16.4185
 N-N= 1.110398955684D+03 E-N=-6.131996818167D+03  KE= 1.651140612608D+03
 Unable to Open any file for archive entry.
 1\1\GINC-CX3-12-16\FOpt\RwB97XD\6-311+G(d,p)\C10H6O1S3\NS5018\27-Oct-2
 021\0\\# opt=modredundant wb97xd/6-311+g(d,p)\\pg2T_TT_15.pdb\\0,1\C,-
 4.2566846408,-1.3353289223,-0.4306074113\C,-2.8900455996,-1.0251933819
 ,-0.6862115152\C,-2.0663520262,-2.1093118225,-0.5502624441\C,-4.456531
 1911,-2.6409733599,-0.1023553492\S,-2.9698253761,-3.5129739239,-0.0854
 033981\H,-5.3907537082,-3.1268400461,0.1289760143\C,-0.6233089254,-2.1
 685967502,-0.7173816818\S,0.3123867004,-0.6850305938,-0.754944681\C,1.
 7773727426,-1.5737496597,-1.0008711731\C,1.5293829586,-2.9315277824,-1
 .0355528592\C,0.1598346664,-3.2762940442,-0.8811146869\H,-0.231664375,
 -4.2842317686,-0.9065400958\S,2.9951215049,-3.8192253611,-1.2786156847
 \C,3.9108724115,-2.3443920207,-1.3263723533\C,3.1486495509,-1.22958999
 62,-1.167159613\H,4.9797259939,-2.3924191214,-1.4713300895\H,3.5460039
 172,-0.2245434054,-1.1688196029\H,-2.5404182203,-0.0425247127,-0.98072
 05734\O,-5.280137552,-0.4452999834,-0.5067779561\H,-4.9396288318,0.419
 0466567,-0.7389348458\\Version=ES64L-G16RevC.01\State=1-A\HF=-1654.412
 0932\RMSD=2.778e-09\RMSF=4.010e-04\Dipole=0.4968967,0.5410288,-0.20910
 43\Quadrupole=1.5149428,5.5804184,-7.0953612,0.0625255,-0.6438938,-1.4
 787882\PG=C01 [X(C10H6O1S3)]\\@
 The archive entry for this job was punched.


 KNOWLEDGE IS EXPERIMENT'S DAUGHTER.
 -- LEONARDO DA VINCI, IN "PENSIERI" CA. 1492
 Job cpu time:       0 days  5 hours  5 minutes 44.6 seconds.
 Elapsed time:       0 days  0 hours 38 minutes 31.9 seconds.
 File lengths (MBytes):  RWF=     86 Int=      0 D2E=      0 Chk=     11 Scr=      1
 Normal termination of Gaussian 16 at Wed Oct 27 00:11:46 2021.
