 Entering Gaussian System, Link 0=g16
 Input=NDI_140.gjf
 Output=NDI_140.log
 Initial command:
 /apps/gaussian/g16-c01-avx/g16/l1.exe "/tmp/pbs.2575785[32].pbs/Gau-1121384.inp" -scrdir="/tmp/pbs.2575785[32].pbs/"
 Entering Link 1 = /apps/gaussian/g16-c01-avx/g16/l1.exe PID=   1121385.
  
 Copyright (c) 1988-2019, Gaussian, Inc.  All Rights Reserved.
  
 This is part of the Gaussian(R) 16 program.  It is based on
 the Gaussian(R) 09 system (copyright 2009, Gaussian, Inc.),
 the Gaussian(R) 03 system (copyright 2003, Gaussian, Inc.),
 the Gaussian(R) 98 system (copyright 1998, Gaussian, Inc.),
 the Gaussian(R) 94 system (copyright 1995, Gaussian, Inc.),
 the Gaussian 92(TM) system (copyright 1992, Gaussian, Inc.),
 the Gaussian 90(TM) system (copyright 1990, Gaussian, Inc.),
 the Gaussian 88(TM) system (copyright 1988, Gaussian, Inc.),
 the Gaussian 86(TM) system (copyright 1986, Carnegie Mellon
 University), and the Gaussian 82(TM) system (copyright 1983,
 Carnegie Mellon University). Gaussian is a federally registered
 trademark of Gaussian, Inc.
  
 This software contains proprietary and confidential information,
 including trade secrets, belonging to Gaussian, Inc.
  
 This software is provided under written license and may be
 used, copied, transmitted, or stored only in accord with that
 written license.
  
 The following legend is applicable only to US Government
 contracts under FAR:
  
                    RESTRICTED RIGHTS LEGEND
  
 Use, reproduction and disclosure by the US Government is
 subject to restrictions as set forth in subparagraphs (a)
 and (c) of the Commercial Computer Software - Restricted
 Rights clause in FAR 52.227-19.
  
 Gaussian, Inc.
 340 Quinnipiac St., Bldg. 40, Wallingford CT 06492
  
  
 ---------------------------------------------------------------
 Warning -- This program may not be used in any manner that
 competes with the business of Gaussian, Inc. or will provide
 assistance to any competitor of Gaussian, Inc.  The licensee
 of this program is prohibited from giving any competitor of
 Gaussian, Inc. access to this program.  By using this program,
 the user acknowledges that Gaussian, Inc. is engaged in the
 business of creating and licensing software in the field of
 computational chemistry and represents and warrants to the
 licensee that it is not a competitor of Gaussian, Inc. and that
 it will not use this program in any manner prohibited above.
 ---------------------------------------------------------------
  

 Cite this work as:
 Gaussian 16, Revision C.01,
 M. J. Frisch, G. W. Trucks, H. B. Schlegel, G. E. Scuseria, 
 M. A. Robb, J. R. Cheeseman, G. Scalmani, V. Barone, 
 G. A. Petersson, H. Nakatsuji, X. Li, M. Caricato, A. V. Marenich, 
 J. Bloino, B. G. Janesko, R. Gomperts, B. Mennucci, H. P. Hratchian, 
 J. V. Ortiz, A. F. Izmaylov, J. L. Sonnenberg, D. Williams-Young, 
 F. Ding, F. Lipparini, F. Egidi, J. Goings, B. Peng, A. Petrone, 
 T. Henderson, D. Ranasinghe, V. G. Zakrzewski, J. Gao, N. Rega, 
 G. Zheng, W. Liang, M. Hada, M. Ehara, K. Toyota, R. Fukuda, 
 J. Hasegawa, M. Ishida, T. Nakajima, Y. Honda, O. Kitao, H. Nakai, 
 T. Vreven, K. Throssell, J. A. Montgomery, Jr., J. E. Peralta, 
 F. Ogliaro, M. J. Bearpark, J. J. Heyd, E. N. Brothers, K. N. Kudin, 
 V. N. Staroverov, T. A. Keith, R. Kobayashi, J. Normand, 
 K. Raghavachari, A. P. Rendell, J. C. Burant, S. S. Iyengar, 
 J. Tomasi, M. Cossi, J. M. Millam, M. Klene, C. Adamo, R. Cammi, 
 J. W. Ochterski, R. L. Martin, K. Morokuma, O. Farkas, 
 J. B. Foresman, and D. J. Fox, Gaussian, Inc., Wallingford CT, 2019.
 
 ******************************************
 Gaussian 16:  ES64L-G16RevC.01  3-Jul-2019
                17-Nov-2020 
 ******************************************
 %mem=10GB
 %nprocshared=8
 Will use up to    8 processors via shared memory.
 --------------------------------------
 # opt=modredundant wb97xd/6-311+g(d,p)
 --------------------------------------
 1/18=120,19=15,26=3,38=1/1,3;
 2/9=110,12=2,17=6,18=5,40=1/2;
 3/5=4,6=6,7=111,11=2,25=1,30=1,71=1,74=-58/1,2,3;
 4//1;
 5/5=2,38=5/2;
 6/7=2,8=2,9=2,10=2,28=1/1;
 7//1,2,3,16;
 1/18=20,19=15,26=3/3(2);
 2/9=110/2;
 99//99;
 2/9=110/2;
 3/5=4,6=6,7=111,11=2,25=1,30=1,71=1,74=-58/1,2,3;
 4/5=5,16=3,69=1/1;
 5/5=2,38=5/2;
 7//1,2,3,16;
 1/18=20,19=15,26=3/3(-5);
 2/9=110/2;
 6/7=2,8=2,9=2,10=2,19=2,28=1/1;
 99/9=1/99;
 -----------
 NDI_140.pdb
 -----------
 Symbolic Z-matrix:
 Charge =  0 Multiplicity = 1
 C                    -2.56     -2.99     -0.41 
 C                    -2.26     -1.55     -0.22 
 C                    -3.3      -0.61     -0.08 
 C                    -4.65     -1.02     -0.12 
 C                    -4.99     -2.46     -0.3 
 C                    -0.95     -1.14     -0.22 
 C                    -2.96      0.76      0.1 
 C                    -1.6       1.19      0.12 
 C                    -0.56      0.23     -0.07 
 C                    -1.33      2.62      0.45 
 C                    -3.78      3.12      0.51 
 C                    -4.03      1.68      0.27 
 C                    -5.36      1.25      0.23 
 C                    -5.67     -0.1       0.04 
 H                    -6.7      -0.44      0.01 
 H                    -6.13      2.        0.36 
 H                    -0.19     -1.9      -0.37 
 N                    -2.43      3.48      0.61 
 N                    -3.92     -3.35     -0.44 
 O                    -1.69     -3.85     -0.53 
 O                    -6.15     -2.85     -0.34 
 O                    -4.68      3.94      0.63 
 O                    -0.21      3.1       0.6 
 C                     0.88      0.48     -0.18 
 C                     1.954    -0.214     0.329 
 S                     1.426     1.961    -0.957 
 C                     3.194     0.427     0.107 
 H                     1.862    -1.159     0.849 
 C                     3.099     1.625    -0.605 
 O                     4.421    -0.026     0.5 
 C                     4.175     2.485    -1.019 
 C                     4.08      3.695    -1.702 
 S                     5.871     2.112    -0.728 
 C                     5.331     4.305    -1.983 
 O                     2.855     4.172    -2.037 
 C                     6.386     3.56     -1.508 
 H                     5.459     5.243    -2.498 
 H                     7.441     3.79     -1.583 
 H                     2.729     5.21     -2.323 
 H                     4.4      -1.001     0.75 
 H                    -4.23     -4.36     -0.17 
 H                    -2.15      4.41      0.36 
 
 The following ModRedundant input section has been read:
 D       8       9      24      25 F                                           
 

 GradGradGradGradGradGradGradGradGradGradGradGradGradGradGradGradGradGrad
 Berny optimization.
 Initialization pass.
                           ----------------------------
                           !    Initial Parameters    !
                           ! (Angstroms and Degrees)  !
 --------------------------                            --------------------------
 ! Name  Definition              Value          Derivative Info.                !
 --------------------------------------------------------------------------------
 ! R1    R(1,2)                  1.4831         estimate D2E/DX2                !
 ! R2    R(1,19)                 1.4072         estimate D2E/DX2                !
 ! R3    R(1,20)                 1.2292         estimate D2E/DX2                !
 ! R4    R(2,3)                  1.4088         estimate D2E/DX2                !
 ! R5    R(2,6)                  1.3727         estimate D2E/DX2                !
 ! R6    R(3,4)                  1.4115         estimate D2E/DX2                !
 ! R7    R(3,7)                  1.423          estimate D2E/DX2                !
 ! R8    R(4,5)                  1.4905         estimate D2E/DX2                !
 ! R9    R(4,14)                 1.3829         estimate D2E/DX2                !
 ! R10   R(5,19)                 1.3988         estimate D2E/DX2                !
 ! R11   R(5,21)                 1.2245         estimate D2E/DX2                !
 ! R12   R(6,9)                  1.4323         estimate D2E/DX2                !
 ! R13   R(6,17)                 1.0852         estimate D2E/DX2                !
 ! R14   R(7,8)                  1.4265         estimate D2E/DX2                !
 ! R15   R(7,12)                 1.4213         estimate D2E/DX2                !
 ! R16   R(8,9)                  1.428          estimate D2E/DX2                !
 ! R17   R(8,10)                 1.4922         estimate D2E/DX2                !
 ! R18   R(9,24)                 1.4657         estimate D2E/DX2                !
 ! R19   R(10,18)                1.4054         estimate D2E/DX2                !
 ! R20   R(10,23)                1.2277         estimate D2E/DX2                !
 ! R21   R(11,12)                1.4811         estimate D2E/DX2                !
 ! R22   R(11,18)                1.4007         estimate D2E/DX2                !
 ! R23   R(11,22)                1.2234         estimate D2E/DX2                !
 ! R24   R(12,13)                1.3984         estimate D2E/DX2                !
 ! R25   R(13,14)                1.3981         estimate D2E/DX2                !
 ! R26   R(13,16)                1.0827         estimate D2E/DX2                !
 ! R27   R(14,15)                1.0851         estimate D2E/DX2                !
 ! R28   R(18,42)                1.0029         estimate D2E/DX2                !
 ! R29   R(19,41)                1.0905         estimate D2E/DX2                !
 ! R30   R(24,25)                1.3763         estimate D2E/DX2                !
 ! R31   R(24,26)                1.7593         estimate D2E/DX2                !
 ! R32   R(25,27)                1.4134         estimate D2E/DX2                !
 ! R33   R(25,28)                1.0825         estimate D2E/DX2                !
 ! R34   R(26,29)                1.7423         estimate D2E/DX2                !
 ! R35   R(27,29)                1.3968         estimate D2E/DX2                !
 ! R36   R(27,30)                1.3657         estimate D2E/DX2                !
 ! R37   R(29,31)                1.4383         estimate D2E/DX2                !
 ! R38   R(30,40)                1.0068         estimate D2E/DX2                !
 ! R39   R(31,32)                1.3927         estimate D2E/DX2                !
 ! R40   R(31,33)                1.7607         estimate D2E/DX2                !
 ! R41   R(32,34)                1.4199         estimate D2E/DX2                !
 ! R42   R(32,35)                1.3566         estimate D2E/DX2                !
 ! R43   R(33,36)                1.7235         estimate D2E/DX2                !
 ! R44   R(34,36)                1.3761         estimate D2E/DX2                !
 ! R45   R(34,37)                1.0777         estimate D2E/DX2                !
 ! R46   R(35,39)                1.084          estimate D2E/DX2                !
 ! R47   R(36,38)                1.0824         estimate D2E/DX2                !
 ! A1    A(2,1,19)             116.527          estimate D2E/DX2                !
 ! A2    A(2,1,20)             123.2737         estimate D2E/DX2                !
 ! A3    A(19,1,20)            120.1979         estimate D2E/DX2                !
 ! A4    A(1,2,3)              120.7455         estimate D2E/DX2                !
 ! A5    A(1,2,6)              118.8843         estimate D2E/DX2                !
 ! A6    A(3,2,6)              120.3454         estimate D2E/DX2                !
 ! A7    A(2,3,4)              120.6259         estimate D2E/DX2                !
 ! A8    A(2,3,7)              118.5916         estimate D2E/DX2                !
 ! A9    A(4,3,7)              120.7824         estimate D2E/DX2                !
 ! A10   A(3,4,5)              120.1483         estimate D2E/DX2                !
 ! A11   A(3,4,14)             120.5934         estimate D2E/DX2                !
 ! A12   A(5,4,14)             119.2388         estimate D2E/DX2                !
 ! A13   A(4,5,19)             116.8914         estimate D2E/DX2                !
 ! A14   A(4,5,21)             121.8545         estimate D2E/DX2                !
 ! A15   A(19,5,21)            121.2488         estimate D2E/DX2                !
 ! A16   A(2,6,9)              123.0626         estimate D2E/DX2                !
 ! A17   A(2,6,17)             117.3337         estimate D2E/DX2                !
 ! A18   A(9,6,17)             119.5802         estimate D2E/DX2                !
 ! A19   A(3,7,8)              121.3176         estimate D2E/DX2                !
 ! A20   A(3,7,12)             117.2859         estimate D2E/DX2                !
 ! A21   A(8,7,12)             121.3945         estimate D2E/DX2                !
 ! A22   A(7,8,9)              119.3284         estimate D2E/DX2                !
 ! A23   A(7,8,10)             117.6762         estimate D2E/DX2                !
 ! A24   A(9,8,10)             122.8113         estimate D2E/DX2                !
 ! A25   A(6,9,8)              117.2994         estimate D2E/DX2                !
 ! A26   A(6,9,24)             115.0121         estimate D2E/DX2                !
 ! A27   A(8,9,24)             127.6498         estimate D2E/DX2                !
 ! A28   A(8,10,18)            118.0319         estimate D2E/DX2                !
 ! A29   A(8,10,23)            124.524          estimate D2E/DX2                !
 ! A30   A(18,10,23)           117.4428         estimate D2E/DX2                !
 ! A31   A(12,11,18)           115.0947         estimate D2E/DX2                !
 ! A32   A(12,11,22)           122.9128         estimate D2E/DX2                !
 ! A33   A(18,11,22)           121.9866         estimate D2E/DX2                !
 ! A34   A(7,12,11)            121.4411         estimate D2E/DX2                !
 ! A35   A(7,12,13)            120.9006         estimate D2E/DX2                !
 ! A36   A(11,12,13)           117.6548         estimate D2E/DX2                !
 ! A37   A(12,13,14)           120.7772         estimate D2E/DX2                !
 ! A38   A(12,13,16)           117.3846         estimate D2E/DX2                !
 ! A39   A(14,13,16)           121.8361         estimate D2E/DX2                !
 ! A40   A(4,14,13)            119.6408         estimate D2E/DX2                !
 ! A41   A(4,14,15)            119.2412         estimate D2E/DX2                !
 ! A42   A(13,14,15)           121.1172         estimate D2E/DX2                !
 ! A43   A(10,18,11)           126.0815         estimate D2E/DX2                !
 ! A44   A(10,18,42)           108.6957         estimate D2E/DX2                !
 ! A45   A(11,18,42)           119.3146         estimate D2E/DX2                !
 ! A46   A(1,19,5)             125.0576         estimate D2E/DX2                !
 ! A47   A(1,19,41)            120.4267         estimate D2E/DX2                !
 ! A48   A(5,19,41)            110.3085         estimate D2E/DX2                !
 ! A49   A(9,24,25)            130.7621         estimate D2E/DX2                !
 ! A50   A(9,24,26)            118.7928         estimate D2E/DX2                !
 ! A51   A(25,24,26)           110.2206         estimate D2E/DX2                !
 ! A52   A(24,25,27)           113.443          estimate D2E/DX2                !
 ! A53   A(24,25,28)           123.4712         estimate D2E/DX2                !
 ! A54   A(27,25,28)           123.0858         estimate D2E/DX2                !
 ! A55   A(24,26,29)            92.6615         estimate D2E/DX2                !
 ! A56   A(25,27,29)           114.1637         estimate D2E/DX2                !
 ! A57   A(25,27,30)           126.3396         estimate D2E/DX2                !
 ! A58   A(29,27,30)           119.489          estimate D2E/DX2                !
 ! A59   A(26,29,27)           109.492          estimate D2E/DX2                !
 ! A60   A(26,29,31)           123.0156         estimate D2E/DX2                !
 ! A61   A(27,29,31)           127.4913         estimate D2E/DX2                !
 ! A62   A(27,30,40)           111.9592         estimate D2E/DX2                !
 ! A63   A(29,31,32)           127.5613         estimate D2E/DX2                !
 ! A64   A(29,31,33)           123.1169         estimate D2E/DX2                !
 ! A65   A(32,31,33)           109.3178         estimate D2E/DX2                !
 ! A66   A(31,32,34)           114.218          estimate D2E/DX2                !
 ! A67   A(31,32,35)           119.2214         estimate D2E/DX2                !
 ! A68   A(34,32,35)           126.5596         estimate D2E/DX2                !
 ! A69   A(31,33,36)            92.0085         estimate D2E/DX2                !
 ! A70   A(32,34,36)           111.9979         estimate D2E/DX2                !
 ! A71   A(32,34,37)           124.9692         estimate D2E/DX2                !
 ! A72   A(36,34,37)           123.031          estimate D2E/DX2                !
 ! A73   A(32,35,39)           120.4503         estimate D2E/DX2                !
 ! A74   A(33,36,34)           112.4565         estimate D2E/DX2                !
 ! A75   A(33,36,38)           120.076          estimate D2E/DX2                !
 ! A76   A(34,36,38)           127.4668         estimate D2E/DX2                !
 ! D1    D(19,1,2,3)            -0.0402         estimate D2E/DX2                !
 ! D2    D(19,1,2,6)          -178.232          estimate D2E/DX2                !
 ! D3    D(20,1,2,3)          -179.6115         estimate D2E/DX2                !
 ! D4    D(20,1,2,6)             2.1967         estimate D2E/DX2                !
 ! D5    D(2,1,19,5)            -0.2714         estimate D2E/DX2                !
 ! D6    D(2,1,19,41)         -154.9401         estimate D2E/DX2                !
 ! D7    D(20,1,19,5)          179.3139         estimate D2E/DX2                !
 ! D8    D(20,1,19,41)          24.6452         estimate D2E/DX2                !
 ! D9    D(1,2,3,4)             -0.105          estimate D2E/DX2                !
 ! D10   D(1,2,3,7)           -179.9973         estimate D2E/DX2                !
 ! D11   D(6,2,3,4)            178.0603         estimate D2E/DX2                !
 ! D12   D(6,2,3,7)             -1.832          estimate D2E/DX2                !
 ! D13   D(1,2,6,9)            178.7655         estimate D2E/DX2                !
 ! D14   D(1,2,6,17)             0.5382         estimate D2E/DX2                !
 ! D15   D(3,2,6,9)              0.5662         estimate D2E/DX2                !
 ! D16   D(3,2,6,17)          -177.661          estimate D2E/DX2                !
 ! D17   D(2,3,4,5)              0.5238         estimate D2E/DX2                !
 ! D18   D(2,3,4,14)           178.9053         estimate D2E/DX2                !
 ! D19   D(7,3,4,5)           -179.5863         estimate D2E/DX2                !
 ! D20   D(7,3,4,14)            -1.2048         estimate D2E/DX2                !
 ! D21   D(2,3,7,8)              0.9439         estimate D2E/DX2                !
 ! D22   D(2,3,7,12)          -178.5478         estimate D2E/DX2                !
 ! D23   D(4,3,7,8)           -178.9482         estimate D2E/DX2                !
 ! D24   D(4,3,7,12)             1.56           estimate D2E/DX2                !
 ! D25   D(3,4,5,19)            -0.7863         estimate D2E/DX2                !
 ! D26   D(3,4,5,21)          -179.9543         estimate D2E/DX2                !
 ! D27   D(14,4,5,19)         -179.1897         estimate D2E/DX2                !
 ! D28   D(14,4,5,21)            1.6423         estimate D2E/DX2                !
 ! D29   D(3,4,14,13)            0.6262         estimate D2E/DX2                !
 ! D30   D(3,4,14,15)         -179.7176         estimate D2E/DX2                !
 ! D31   D(5,4,14,13)          179.0223         estimate D2E/DX2                !
 ! D32   D(5,4,14,15)           -1.3214         estimate D2E/DX2                !
 ! D33   D(4,5,19,1)             0.6724         estimate D2E/DX2                !
 ! D34   D(4,5,19,41)          157.5074         estimate D2E/DX2                !
 ! D35   D(21,5,19,1)          179.8457         estimate D2E/DX2                !
 ! D36   D(21,5,19,41)         -23.3193         estimate D2E/DX2                !
 ! D37   D(2,6,9,8)              1.5899         estimate D2E/DX2                !
 ! D38   D(2,6,9,24)          -176.322          estimate D2E/DX2                !
 ! D39   D(17,6,9,8)           179.779          estimate D2E/DX2                !
 ! D40   D(17,6,9,24)            1.8672         estimate D2E/DX2                !
 ! D41   D(3,7,8,9)              1.2142         estimate D2E/DX2                !
 ! D42   D(3,7,8,10)          -173.9942         estimate D2E/DX2                !
 ! D43   D(12,7,8,9)          -179.3149         estimate D2E/DX2                !
 ! D44   D(12,7,8,10)            5.4766         estimate D2E/DX2                !
 ! D45   D(3,7,12,11)          177.9024         estimate D2E/DX2                !
 ! D46   D(3,7,12,13)           -1.4077         estimate D2E/DX2                !
 ! D47   D(8,7,12,11)           -1.5889         estimate D2E/DX2                !
 ! D48   D(8,7,12,13)          179.1009         estimate D2E/DX2                !
 ! D49   D(7,8,9,6)             -2.414          estimate D2E/DX2                !
 ! D50   D(7,8,9,24)           175.1958         estimate D2E/DX2                !
 ! D51   D(10,8,9,6)           172.5365         estimate D2E/DX2                !
 ! D52   D(10,8,9,24)           -9.8537         estimate D2E/DX2                !
 ! D53   D(7,8,10,18)           -5.2348         estimate D2E/DX2                !
 ! D54   D(7,8,10,23)          174.3306         estimate D2E/DX2                !
 ! D55   D(9,8,10,18)          179.736          estimate D2E/DX2                !
 ! D56   D(9,8,10,23)           -0.6986         estimate D2E/DX2                !
 ! D57   D(6,9,24,25)          -42.3639         estimate D2E/DX2                !
 ! D58   D(6,9,24,26)          143.6683         estimate D2E/DX2                !
 ! D59   D(8,9,24,25)          139.9799         Frozen                          !
 ! D60   D(8,9,24,26)          -33.9879         estimate D2E/DX2                !
 ! D61   D(8,10,18,11)           1.0927         estimate D2E/DX2                !
 ! D62   D(8,10,18,42)        -151.3012         estimate D2E/DX2                !
 ! D63   D(23,10,18,11)       -178.5038         estimate D2E/DX2                !
 ! D64   D(23,10,18,42)         29.1023         estimate D2E/DX2                !
 ! D65   D(18,11,12,7)          -2.5592         estimate D2E/DX2                !
 ! D66   D(18,11,12,13)        176.7725         estimate D2E/DX2                !
 ! D67   D(22,11,12,7)         178.3061         estimate D2E/DX2                !
 ! D68   D(22,11,12,13)         -2.3622         estimate D2E/DX2                !
 ! D69   D(12,11,18,10)          2.7627         estimate D2E/DX2                !
 ! D70   D(12,11,18,42)        152.5373         estimate D2E/DX2                !
 ! D71   D(22,11,18,10)       -178.0937         estimate D2E/DX2                !
 ! D72   D(22,11,18,42)        -28.3191         estimate D2E/DX2                !
 ! D73   D(7,12,13,14)           0.8911         estimate D2E/DX2                !
 ! D74   D(7,12,13,16)        -179.6245         estimate D2E/DX2                !
 ! D75   D(11,12,13,14)       -178.4444         estimate D2E/DX2                !
 ! D76   D(11,12,13,16)          1.04           estimate D2E/DX2                !
 ! D77   D(12,13,14,4)          -0.4717         estimate D2E/DX2                !
 ! D78   D(12,13,14,15)        179.8786         estimate D2E/DX2                !
 ! D79   D(16,13,14,4)        -179.9328         estimate D2E/DX2                !
 ! D80   D(16,13,14,15)          0.4175         estimate D2E/DX2                !
 ! D81   D(9,24,25,27)        -174.1785         estimate D2E/DX2                !
 ! D82   D(9,24,25,28)           5.8372         estimate D2E/DX2                !
 ! D83   D(26,24,25,27)          0.1892         estimate D2E/DX2                !
 ! D84   D(26,24,25,28)       -179.7951         estimate D2E/DX2                !
 ! D85   D(9,24,26,29)         175.7066         estimate D2E/DX2                !
 ! D86   D(25,24,26,29)          0.5725         estimate D2E/DX2                !
 ! D87   D(24,25,27,29)         -1.1275         estimate D2E/DX2                !
 ! D88   D(24,25,27,30)        179.8967         estimate D2E/DX2                !
 ! D89   D(28,25,27,29)        178.8568         estimate D2E/DX2                !
 ! D90   D(28,25,27,30)         -0.1189         estimate D2E/DX2                !
 ! D91   D(24,26,29,27)         -1.1721         estimate D2E/DX2                !
 ! D92   D(24,26,29,31)        178.4712         estimate D2E/DX2                !
 ! D93   D(25,27,29,26)          1.5106         estimate D2E/DX2                !
 ! D94   D(25,27,29,31)       -178.1125         estimate D2E/DX2                !
 ! D95   D(30,27,29,26)       -179.4372         estimate D2E/DX2                !
 ! D96   D(30,27,29,31)          0.9397         estimate D2E/DX2                !
 ! D97   D(25,27,30,40)         16.0122         estimate D2E/DX2                !
 ! D98   D(29,27,30,40)       -162.9142         estimate D2E/DX2                !
 ! D99   D(26,29,31,32)          2.0328         estimate D2E/DX2                !
 ! D100  D(26,29,31,33)       -177.1659         estimate D2E/DX2                !
 ! D101  D(27,29,31,32)       -178.391          estimate D2E/DX2                !
 ! D102  D(27,29,31,33)          2.4103         estimate D2E/DX2                !
 ! D103  D(29,31,32,34)       -179.3128         estimate D2E/DX2                !
 ! D104  D(29,31,32,35)          0.3558         estimate D2E/DX2                !
 ! D105  D(33,31,32,34)         -0.024          estimate D2E/DX2                !
 ! D106  D(33,31,32,35)        179.6446         estimate D2E/DX2                !
 ! D107  D(29,31,33,36)        179.5297         estimate D2E/DX2                !
 ! D108  D(32,31,33,36)          0.2028         estimate D2E/DX2                !
 ! D109  D(31,32,34,36)         -0.2307         estimate D2E/DX2                !
 ! D110  D(31,32,34,37)       -179.7379         estimate D2E/DX2                !
 ! D111  D(35,32,34,36)       -179.8706         estimate D2E/DX2                !
 ! D112  D(35,32,34,37)          0.6221         estimate D2E/DX2                !
 ! D113  D(31,32,35,39)        163.622          estimate D2E/DX2                !
 ! D114  D(34,32,35,39)        -16.7542         estimate D2E/DX2                !
 ! D115  D(31,33,36,34)         -0.341          estimate D2E/DX2                !
 ! D116  D(31,33,36,38)        179.9488         estimate D2E/DX2                !
 ! D117  D(32,34,36,33)          0.3846         estimate D2E/DX2                !
 ! D118  D(32,34,36,38)       -179.9314         estimate D2E/DX2                !
 ! D119  D(37,34,36,33)        179.903          estimate D2E/DX2                !
 ! D120  D(37,34,36,38)         -0.4131         estimate D2E/DX2                !
 --------------------------------------------------------------------------------
 Trust Radius=3.00D-01 FncErr=1.00D-07 GrdErr=1.00D-06 EigMax=2.50D+02 EigMin=1.00D-04
 Number of steps in this run=    252 maximum allowed number of steps=    252.
 GradGradGradGradGradGradGradGradGradGradGradGradGradGradGradGradGradGrad

                          Input orientation:                          
 ---------------------------------------------------------------------
 Center     Atomic      Atomic             Coordinates (Angstroms)
 Number     Number       Type             X           Y           Z
 ---------------------------------------------------------------------
      1          6           0       -2.560000   -2.990000   -0.410000
      2          6           0       -2.260000   -1.550000   -0.220000
      3          6           0       -3.300000   -0.610000   -0.080000
      4          6           0       -4.650000   -1.020000   -0.120000
      5          6           0       -4.990000   -2.460000   -0.300000
      6          6           0       -0.950000   -1.140000   -0.220000
      7          6           0       -2.960000    0.760000    0.100000
      8          6           0       -1.600000    1.190000    0.120000
      9          6           0       -0.560000    0.230000   -0.070000
     10          6           0       -1.330000    2.620000    0.450000
     11          6           0       -3.780000    3.120000    0.510000
     12          6           0       -4.030000    1.680000    0.270000
     13          6           0       -5.360000    1.250000    0.230000
     14          6           0       -5.670000   -0.100000    0.040000
     15          1           0       -6.700000   -0.440000    0.010000
     16          1           0       -6.130000    2.000000    0.360000
     17          1           0       -0.190000   -1.900000   -0.370000
     18          7           0       -2.430000    3.480000    0.610000
     19          7           0       -3.920000   -3.350000   -0.440000
     20          8           0       -1.690000   -3.850000   -0.530000
     21          8           0       -6.150000   -2.850000   -0.340000
     22          8           0       -4.680000    3.940000    0.630000
     23          8           0       -0.210000    3.100000    0.600000
     24          6           0        0.880000    0.480000   -0.180000
     25          6           0        1.954000   -0.214000    0.329000
     26         16           0        1.426000    1.961000   -0.957000
     27          6           0        3.194000    0.427000    0.107000
     28          1           0        1.862000   -1.159000    0.849000
     29          6           0        3.099000    1.625000   -0.605000
     30          8           0        4.421000   -0.026000    0.500000
     31          6           0        4.175000    2.485000   -1.019000
     32          6           0        4.080000    3.695000   -1.702000
     33         16           0        5.871000    2.112000   -0.728000
     34          6           0        5.331000    4.305000   -1.983000
     35          8           0        2.855000    4.172000   -2.037000
     36          6           0        6.386000    3.560000   -1.508000
     37          1           0        5.459000    5.243000   -2.498000
     38          1           0        7.441000    3.790000   -1.583000
     39          1           0        2.729000    5.210000   -2.323000
     40          1           0        4.400000   -1.001000    0.750000
     41          1           0       -4.230000   -4.360000   -0.170000
     42          1           0       -2.150000    4.410000    0.360000
 ---------------------------------------------------------------------
                    Distance matrix (angstroms):
                    1          2          3          4          5
     1  C    0.000000
     2  C    1.483139   0.000000
     3  C    2.514140   1.408829   0.000000
     4  C    2.886711   2.450102   1.411453   0.000000
     5  C    2.489558   2.878784   2.515353   1.490503   0.000000
     6  C    2.459817   1.372662   2.413089   3.703296   4.250929
     7  C    3.805601   2.434851   1.422990   2.464325   3.827440
     8  C    4.321447   2.838803   2.483948   3.774149   4.999100
     9  C    3.805785   2.465948   2.865886   4.277043   5.187861
    10  C    5.807289   4.324662   3.820301   4.959526   6.305910
    11  C    6.298166   4.965098   3.806757   4.277078   5.766854
    12  C    4.942894   3.715629   2.428889   2.797588   4.287902
    13  C    5.121250   4.201488   2.792723   2.404059   3.765886
    14  C    4.269274   3.714593   2.427221   1.382896   2.479435
    15  H    4.880420   4.582423   3.405437   2.134432   2.664695
    16  H    6.183680   5.283540   3.874868   3.397234   4.650462
    17  H    2.608946   2.104733   3.379393   4.552856   4.833063
    18  N    6.551198   5.100853   4.238054   5.070631   6.531868
    19  N    1.407160   2.458455   2.832243   2.462560   1.398785
    20  O    1.229187   2.389770   3.645847   4.115653   3.588175
    21  O    3.593411   4.103230   3.634240   2.376405   1.224459
    22  O    7.321264   6.059620   4.807390   5.016473   6.474643
    23  O    6.605354   5.147563   4.875920   6.099705   7.387286
    24  C    4.891564   3.739265   4.320937   5.730140   6.566194
    25  C    5.350560   4.454671   5.284753   6.668137   7.325250
    26  S    6.379640   5.143626   5.451078   6.819436   7.819332
    27  C    6.712056   5.810471   6.578934   7.979579   8.687823
    28  H    4.948912   4.276275   5.273584   6.585167   7.068430
    29  C    7.304829   6.240812   6.798386   8.202332   9.067093
    30  O    7.638570   6.890336   7.764747   9.146337   9.753526
    31  C    8.700961   7.637333   8.144714   9.538021  10.438736
    32  C    9.510420   8.360739   8.696454  10.047231  11.050544
    33  S    9.859680   8.932047   9.588349  10.994113  11.791848
    34  C   10.860904   9.747434  10.113001  11.465023  12.454748
    35  O    9.124889   7.887078   8.036255   9.325062  10.418475
    36  C   11.141769  10.125431  10.641742  12.028975  12.927221
    37  H   11.681027  10.531718  10.808534  12.127322  13.166207
    38  H   12.139371  11.157185  11.704191  13.094608  13.972772
    39  H    9.943495   8.660850   8.674808   9.905339  11.068170
    40  H    7.330984   6.752622   7.754468   9.091741   9.560506
    41  H    2.173338   3.432128   3.864647   3.366675   2.050488
    42  H    7.451242   5.989165   5.168801   5.997108   7.463116
                    6          7          8          9         10
     6  C    0.000000
     7  C    2.784331   0.000000
     8  C    2.442744   1.426499   0.000000
     9  C    1.432306   2.463696   1.428041   0.000000
    10  C    3.838085   2.497799   1.492213   2.564254   0.000000
    11  C    5.166178   2.531818   2.937584   4.365421   2.501220
    12  C    4.204628   1.421337   2.483445   3.776109   2.864612
    13  C    5.036139   2.452957   3.762087   4.916340   4.262183
    14  C    4.840207   2.843818   4.270293   5.121826   5.138297
    15  H    5.797016   3.928829   5.355278   6.176965   6.196297
    16  H    6.085097   3.413810   4.608102   5.860264   4.840713
    17  H    1.085219   3.869031   3.431661   2.182613   4.733117
    18  N    4.921758   2.817694   2.484572   3.810748   1.405418
    19  N    3.708558   4.255032   5.129093   4.923708   6.568188
    20  O    2.826270   4.823059   5.082539   4.258509   6.553694
    21  O    5.475263   4.837541   6.102106   6.388067   7.333308
    22  O    6.359387   3.653998   4.160409   5.588247   3.605177
    23  O    4.381507   3.645285   2.410519   2.967878   1.227721
    24  C    2.444361   3.860363   2.597018   1.465674   3.140159
    25  C    3.097110   5.014829   3.826985   2.583899   4.339453
    26  S    3.975518   4.668688   3.303187   2.779807   3.163774
    27  C    4.442427   6.163007   4.854356   3.763330   5.039194
    28  H    3.008399   5.243591   4.246727   2.939382   4.962752
    29  C    4.918115   6.160903   4.774458   3.952282   4.660375
    30  O    5.532363   7.433502   6.154307   5.020040   6.330704
    31  C    6.328084   7.425363   6.027020   5.329714   5.699229
    32  C    7.132633   7.837285   6.469707   6.016581   5.920712
    33  S    7.573613   8.972182   7.575291   6.732952   7.314380
    34  C    8.497479   9.254545   7.884453   7.414113   7.288871
    35  O    6.782098   7.072675   5.778581   5.574108   5.109608
    36  C    8.807147   9.888042   8.487843   7.836049   8.015861
    37  H    9.327768   9.885669   8.550451   8.200836   7.852474
    38  H    9.827082  10.963311   9.560329   8.887000   9.079231
    39  H    7.634144   7.618277   6.392878   6.379179   5.556358
    40  H    5.439000   7.595605   6.418519   5.175844   6.784876
    41  H    4.596662   5.282064   6.148455   5.877670   7.583851
    42  H    5.707793   3.747826   3.275439   4.492816   1.970939
                   11         12         13         14         15
    11  C    0.000000
    12  C    1.481114   0.000000
    13  C    2.464082   1.398356   0.000000
    14  C    3.763164   2.431234   1.398106   0.000000
    15  H    4.631414   3.419196   2.167971   1.085081   0.000000
    16  H    2.607566   2.126147   1.082728   2.173476   2.530020
    17  H    6.234012   5.288818   6.083700   5.782603   6.682522
    18  N    1.400750   2.432201   3.701648   4.861985   5.827461
    19  N    6.540872   5.081053   4.866467   3.722284   4.049568
    20  O    7.350551   6.057764   6.329020   5.497981   6.084390
    21  O    6.479221   5.038591   4.214143   2.817321   2.496618
    22  O    1.223438   2.379012   2.803302   4.201167   4.863044
    23  O    3.571190   4.088728   5.484697   6.353361   7.416185
    24  C    5.400120   5.074505   6.300683   6.579308   7.637991
    25  C    6.635290   6.276860   7.459738   7.630327   8.662826
    26  S    5.531528   5.599324   6.925625   7.456202   8.528292
    27  C    7.486744   7.333673   8.594380   8.879905   9.932388
    28  H    7.089212   6.565883   7.638306   7.648986   8.633002
    29  C    7.127334   7.182708   8.508380   8.960302  10.033088
    30  O    8.783725   8.624543   9.867575  10.101750  11.139485
    31  C    8.125459   8.344553   9.695435  10.233657  11.308408
    32  C    8.185546   8.586100   9.941039  10.606559  11.672085
    33  S    9.782153   9.960544  11.304697  11.776139  12.848634
    34  C    9.519958   9.979727  11.337013  12.021587  13.085566
    35  O    7.184507   7.676948   9.009084   9.759075  10.805498
    36  C   10.373692  10.732602  12.096498  12.694055  13.767633
    37  H    9.945568  10.507041  11.850603  12.603322  13.653858
    38  H   11.434176  11.809723  13.175894  13.771875  14.845822
    39  H    7.400072   8.054106   9.361161  10.213867  11.237056
    40  H    9.162567   8.859067  10.029706  10.135127  11.138776
    41  H    7.524314   6.059307   5.736637   4.501700   4.636777
    42  H    2.084107   3.315931   4.506285   5.730000   6.659392
                   16         17         18         19         20
    16  H    0.000000
    17  H    7.143284   0.000000
    18  N    3.992856   5.909518   0.000000
    19  N    5.843509   4.002537   7.069052   0.000000
    20  O    7.397851   2.465380   7.454938   2.287138   0.000000
    21  O    4.900296   6.035313   7.403364   2.287553   4.574680
    22  O    2.437006   7.434090   2.296628   7.407199   8.424358
    23  O    6.026110   5.093260   2.252310   7.513202   7.195123
    24  C    7.193198   2.616372   4.536541   6.146259   5.047405
    25  C    8.381755   2.815659   5.739691   6.702964   5.218919
    26  S    7.670016   4.226505   4.430755   7.553392   6.607534
    27  C    9.459139   4.134479   6.418971   8.073037   6.523186
    28  H    8.607582   2.499149   6.324453   6.316132   4.664743
    29  C    9.286888   4.826839   5.957104   8.604895   7.274323
    30  O   10.744667   5.052732   7.696774   9.028004   7.282046
    31  C   10.408165   6.221145   6.875296   9.995574   8.646940
    32  C   10.553150   7.163180   6.911705  10.734275   9.570450
    33  S   12.050738   7.277364   8.518701  11.215171   9.630855
    34  C   11.922969   8.460806   8.224196  12.106233  10.858622
    35  O    9.549524   6.994290   5.951193  10.248489   9.342406
    36  C   12.750423   8.622669   9.067204  12.454010  11.003925
    37  H   12.368918   9.352114   8.660494  12.885676  11.733025
    38  H   13.825751   9.595813  10.116422  13.466936  11.952137
    39  H    9.797166   7.930124   6.181478  11.001295  10.238457
    40  H   10.956231   4.809439   8.169936   8.726758   6.844217
    41  H    6.658866   4.734258   8.081708   1.090459   2.615588
    42  H    4.652795   6.647601   1.002896   7.999406   8.320535
                   21         22         23         24         25
    21  O    0.000000
    22  O    7.014692   0.000000
    23  O    8.459888   4.548340   0.000000
    24  C    7.780450   6.598583   2.942941   0.000000
    25  C    8.548150   7.833025   3.967232   1.376297   0.000000
    26  S    8.995676   6.611977   2.529440   1.759320   2.581318
    27  C    9.912057   8.637973   4.356053   2.332332   1.413423
    28  H    8.274379   8.297320   4.742812   2.170135   1.082538
    29  C   10.278125   8.209585   3.818001   2.532906   2.359089
    30  O   10.973906   9.928457   5.588205   3.641032   2.480055
    31  C   11.641688   9.123993   4.714617   3.947274   3.746271
    32  C   12.220678   9.068398   4.904827   4.784633   4.891331
    33  S   13.010628  10.793950   6.302245   5.279565   4.676581
    34  C   13.627430  10.352831   6.231099   6.139449   6.096789
    35  O   11.544623   7.996433   4.182963   4.580386   5.064262
    36  C   14.128115  11.277047   6.939919   6.447171   6.104119
    37  H   14.315114  10.690253   6.806439   7.001895   7.075013
    38  H   15.177283  12.322277   7.986200   7.481392   7.056552
    39  H   12.154527   8.076286   4.651210   5.512182   6.087159
    40  H   10.766123  10.338002   6.171937   3.930478   2.603752
    41  H    2.448551   8.350599   8.509107   7.038309   7.461915
    42  H    8.318509   2.587412   2.353147   4.991733   6.182649
                   26         27         28         29         30
    26  S    0.000000
    27  C    2.571201   0.000000
    28  H    3.631271   2.200042   0.000000
    29  C    1.742334   1.396844   3.375639   0.000000
    30  O    3.878278   1.365718   2.820279   2.386317   0.000000
    31  C    2.799182   2.542755   4.702991   1.438323   2.944995
    32  C    3.256608   3.838919   5.915103   2.539817   4.337156
    33  S    4.453456   3.271510   5.409108   2.817141   2.860337
    34  C    4.668623   4.896300   7.064664   3.750081   5.074539
    35  O    2.845516   4.328589   6.142850   2.932127   5.148974
    36  C    5.240420   4.755289   6.949172   3.919694   4.555511
    37  H    5.423218   5.925378   8.070094   4.716246   6.150432
    38  H    6.318017   5.674758   7.844263   4.949411   5.293500
    39  H    3.757628   5.384999   7.167805   3.992574   6.184488
    40  H    4.531222   1.976631   2.544840   3.228700   1.006760
    41  H    8.518494   8.837866   6.956811   9.472259   9.699085
    42  H    4.529886   6.669830   6.881063   6.019921   7.929422
                   31         32         33         34         35
    31  C    0.000000
    32  C    1.392700   0.000000
    33  S    1.760746   2.581133   0.000000
    34  C    2.361786   1.419881   2.583771   0.000000
    35  O    2.371644   1.356606   3.879863   2.480157   0.000000
    36  C    2.506645   2.318080   1.723464   1.376109   3.622478
    37  H    3.382700   2.220712   3.620194   1.077707   2.853135
    38  H    3.562005   3.364448   2.451858   2.208467   4.624223
    39  H    3.349173   2.122750   4.691886   2.775793   1.084028
    40  H    3.915633   5.307270   3.746878   6.040669   6.075716
    41  H   10.872849  11.674166  12.009511  13.030039  11.246241
    42  H    6.753732   6.601210   8.414332   7.840028   5.554483
                   36         37         38         39         40
    36  C    0.000000
    37  H    2.161462   0.000000
    38  H    1.082382   2.622357   0.000000
    39  H    4.093944   2.735802   4.976640   0.000000
    40  H    5.463102   7.117480   6.135491   7.128260   0.000000
    41  H   13.312254  13.838855  14.304940  12.026969   9.306244
    42  H    8.779249   8.170614   9.805454   5.625223   8.504912
                   41         42
    41  H    0.000000
    42  H    9.028854   0.000000
 Stoichiometry    C22H10N2O6S2
 Framework group  C1[X(C22H10N2O6S2)]
 Deg. of freedom   120
 Full point group                 C1      NOp   1
 Largest Abelian subgroup         C1      NOp   1
 Largest concise Abelian subgroup C1      NOp   1
                         Standard orientation:                         
 ---------------------------------------------------------------------
 Center     Atomic      Atomic             Coordinates (Angstroms)
 Number     Number       Type             X           Y           Z
 ---------------------------------------------------------------------
      1          6           0        3.542669   -2.832444    0.309199
      2          6           0        2.766562   -1.586410    0.097640
      3          6           0        3.408294   -0.332344    0.080419
      4          6           0        4.804116   -0.236287    0.266579
      5          6           0        5.618346   -1.467617    0.472626
      6          6           0        1.403829   -1.670087   -0.044341
      7          6           0        2.619189    0.833653   -0.126137
      8          6           0        1.204896    0.751773   -0.293382
      9          6           0        0.565308   -0.523283   -0.226615
     10          6           0        0.474313    2.005658   -0.640831
     11          6           0        2.574282    3.347282   -0.425717
     12          6           0        3.298958    2.081126   -0.169999
     13          6           0        4.683400    2.151397    0.013803
     14          6           0        5.436482    0.992923    0.227123
     15          1           0        6.511252    1.040862    0.368443
     16          1           0        5.141786    3.131548   -0.024739
     17          1           0        0.956298   -2.656941    0.015111
     18          7           0        1.202449    3.207346   -0.671871
     19          7           0        4.930829   -2.685696    0.486891
     20          8           0        3.031981   -3.950397    0.325937
     21          8           0        6.830685   -1.420530    0.637907
     22          8           0        3.127164    4.438581   -0.439426
     23          8           0       -0.722137    2.061922   -0.910353
     24          6           0       -0.871701   -0.807682   -0.274822
     25          6           0       -1.567930   -1.814098   -0.904572
     26         16           0       -1.988161    0.344116    0.447730
     27          6           0       -2.970976   -1.667569   -0.816498
     28          1           0       -1.091010   -2.639188   -1.418053
     29          6           0       -3.384519   -0.548697   -0.089670
     30          8           0       -3.907360   -2.508907   -1.346142
     31          6           0       -4.733326   -0.148306    0.208960
     32          6           0       -5.148256    0.983114    0.907054
     33         16           0       -6.143888   -1.086674   -0.270630
     34          6           0       -6.556323    1.094052    1.052323
     35          8           0       -4.216502    1.848834    1.379010
     36          6           0       -7.220040    0.045220    0.458095
     37          1           0       -7.063632    1.900025    1.556800
     38          1           0       -8.289098   -0.119164    0.417561
     39          1           0       -4.500956    2.849202    1.684733
     40          1           0       -3.512741   -3.399817   -1.599363
     41          1           0        5.608193   -3.505463    0.245519
     42          1           0        0.583651    3.964056   -0.447638
 ---------------------------------------------------------------------
 Rotational constants (GHZ):           0.2558599           0.0655078           0.0540803
 Standard basis: 6-311+G(d,p) (5D, 7F)
 There are   812 symmetry adapted cartesian basis functions of A   symmetry.
 There are   780 symmetry adapted basis functions of A   symmetry.
   780 basis functions,  1260 primitive gaussians,   812 cartesian basis functions
   118 alpha electrons      118 beta electrons
       nuclear repulsion energy      3340.9525804056 Hartrees.
 NAtoms=   42 NActive=   42 NUniq=   42 SFac= 1.00D+00 NAtFMM=   60 NAOKFM=F Big=F
 Integral buffers will be    131072 words long.
 Raffenetti 2 integral format.
 Two-electron integral symmetry is turned on.
 Nuclear repulsion after empirical dispersion term =     3340.9219446724 Hartrees.
 One-electron integrals computed using PRISM.
 NBasis=   780 RedAO= T EigKep=  1.72D-06  NBF=   780
 NBsUse=   768 1.00D-06 EigRej=  9.41D-07 NBFU=   768
 ExpMin= 4.05D-02 ExpMax= 9.34D+04 ExpMxC= 3.17D+03 IAcc=3 IRadAn=         5 AccDes= 0.00D+00
 Harris functional with IExCor= 4639 and IRadAn=       5 diagonalized for initial guess.
 HarFok:  IExCor= 4639 AccDes= 0.00D+00 IRadAn=         5 IDoV= 1 UseB2=F ITyADJ=14
 ICtDFT=  3500011 ScaDFX=  1.000000  1.000000  1.000000  1.000000
 FoFCou: FMM=F IPFlag=           0 FMFlag=      100000 FMFlg1=           0
         NFxFlg=           0 DoJE=T BraDBF=F KetDBF=T FulRan=T
         wScrn=  0.000000 ICntrl=       500 IOpCl=  0 I1Cent=   200000004 NGrid=           0
         NMat0=    1 NMatS0=      1 NMatT0=    0 NMatD0=    1 NMtDS0=    0 NMtDT0=    0
 Petite list used in FoFCou.
 Requested convergence on RMS density matrix=1.00D-08 within 128 cycles.
 Requested convergence on MAX density matrix=1.00D-06.
 Requested convergence on             energy=1.00D-06.
 No special actions if energy rises.
 SCF Done:  E(RwB97XD) =  -2201.51544098     A.U. after   19 cycles
            NFock= 19  Conv=0.87D-08     -V/T= 2.0032

 **********************************************************************

            Population analysis using the SCF Density.

 **********************************************************************

 Orbital symmetries:
       Occupied  (A) (A) (A) (A) (A) (A) (A) (A) (A) (A) (A) (A)
                 (A) (A) (A) (A) (A) (A) (A) (A) (A) (A) (A) (A)
                 (A) (A) (A) (A) (A) (A) (A) (A) (A) (A) (A) (A)
                 (A) (A) (A) (A) (A) (A) (A) (A) (A) (A) (A) (A)
                 (A) (A) (A) (A) (A) (A) (A) (A) (A) (A) (A) (A)
                 (A) (A) (A) (A) (A) (A) (A) (A) (A) (A) (A) (A)
                 (A) (A) (A) (A) (A) (A) (A) (A) (A) (A) (A) (A)
                 (A) (A) (A) (A) (A) (A) (A) (A) (A) (A) (A) (A)
                 (A) (A) (A) (A) (A) (A) (A) (A) (A) (A) (A) (A)
                 (A) (A) (A) (A) (A) (A) (A) (A) (A) (A)
       Virtual   (A) (A) (A) (A) (A) (A) (A) (A) (A) (A) (A) (A)
                 (A) (A) (A) (A) (A) (A) (A) (A) (A) (A) (A) (A)
                 (A) (A) (A) (A) (A) (A) (A) (A) (A) (A) (A) (A)
                 (A) (A) (A) (A) (A) (A) (A) (A) (A) (A) (A) (A)
                 (A) (A) (A) (A) (A) (A) (A) (A) (A) (A) (A) (A)
                 (A) (A) (A) (A) (A) (A) (A) (A) (A) (A) (A) (A)
                 (A) (A) (A) (A) (A) (A) (A) (A) (A) (A) (A) (A)
                 (A) (A) (A) (A) (A) (A) (A) (A) (A) (A) (A) (A)
                 (A) (A) (A) (A) (A) (A) (A) (A) (A) (A) (A) (A)
                 (A) (A) (A) (A) (A) (A) (A) (A) (A) (A) (A) (A)
                 (A) (A) (A) (A) (A) (A) (A) (A) (A) (A) (A) (A)
                 (A) (A) (A) (A) (A) (A) (A) (A) (A) (A) (A) (A)
                 (A) (A) (A) (A) (A) (A) (A) (A) (A) (A) (A) (A)
                 (A) (A) (A) (A) (A) (A) (A) (A) (A) (A) (A) (A)
                 (A) (A) (A) (A) (A) (A) (A) (A) (A) (A) (A) (A)
                 (A) (A) (A) (A) (A) (A) (A) (A) (A) (A) (A) (A)
                 (A) (A) (A) (A) (A) (A) (A) (A) (A) (A) (A) (A)
                 (A) (A) (A) (A) (A) (A) (A) (A) (A) (A) (A) (A)
                 (A) (A) (A) (A) (A) (A) (A) (A) (A) (A) (A) (A)
                 (A) (A) (A) (A) (A) (A) (A) (A) (A) (A) (A) (A)
                 (A) (A) (A) (A) (A) (A) (A) (A) (A) (A) (A) (A)
                 (A) (A) (A) (A) (A) (A) (A) (A) (A) (A) (A) (A)
                 (A) (A) (A) (A) (A) (A) (A) (A) (A) (A) (A) (A)
                 (A) (A) (A) (A) (A) (A) (A) (A) (A) (A) (A) (A)
                 (A) (A) (A) (A) (A) (A) (A) (A) (A) (A) (A) (A)
                 (A) (A) (A) (A) (A) (A) (A) (A) (A) (A) (A) (A)
                 (A) (A) (A) (A) (A) (A) (A) (A) (A) (A) (A) (A)
                 (A) (A) (A) (A) (A) (A) (A) (A) (A) (A) (A) (A)
                 (A) (A) (A) (A) (A) (A) (A) (A) (A) (A) (A) (A)
                 (A) (A) (A) (A) (A) (A) (A) (A) (A) (A) (A) (A)
                 (A) (A) (A) (A) (A) (A) (A) (A) (A) (A) (A) (A)
                 (A) (A) (A) (A) (A) (A) (A) (A) (A) (A) (A) (A)
                 (A) (A) (A) (A) (A) (A) (A) (A) (A) (A) (A) (A)
                 (A) (A) (A) (A) (A) (A) (A) (A) (A) (A) (A) (A)
                 (A) (A) (A) (A) (A) (A) (A) (A) (A) (A) (A) (A)
                 (A) (A) (A) (A) (A) (A) (A) (A) (A) (A) (A) (A)
                 (A) (A) (A) (A) (A) (A) (A) (A) (A) (A) (A) (A)
                 (A) (A) (A) (A) (A) (A) (A) (A) (A) (A) (A) (A)
                 (A) (A) (A) (A) (A) (A) (A) (A) (A) (A) (A) (A)
                 (A) (A) (A) (A) (A) (A) (A) (A) (A) (A) (A) (A)
                 (A) (A) (A) (A) (A) (A) (A) (A) (A) (A) (A) (A)
                 (A) (A) (A) (A) (A) (A) (A) (A) (A) (A) (A) (A)
                 (A) (A) (A) (A) (A) (A) (A) (A) (A) (A) (A) (A)
                 (A) (A) (A) (A) (A) (A) (A) (A) (A) (A) (A) (A)
                 (A) (A) (A) (A) (A) (A) (A) (A) (A) (A) (A) (A)
                 (A) (A) (A) (A) (A) (A) (A) (A) (A) (A) (A) (A)
                 (A) (A) (A) (A) (A) (A) (A) (A) (A) (A) (A) (A)
                 (A) (A) (A) (A) (A) (A) (A) (A) (A) (A) (A) (A)
                 (A) (A) (A) (A) (A) (A) (A) (A) (A) (A) (A) (A)
                 (A) (A) (A) (A) (A) (A) (A) (A) (A) (A) (A) (A)
                 (A) (A) (A) (A) (A) (A) (A) (A) (A) (A) (A) (A)
                 (A) (A) (A) (A) (A) (A) (A) (A) (A) (A) (A) (A)
                 (A) (A) (A) (A) (A) (A) (A) (A) (A) (A) (A) (A)
                 (A) (A) (A) (A) (A) (A) (A) (A) (A) (A) (A) (A)
                 (A) (A)
 The electronic state is 1-A.
 Alpha  occ. eigenvalues --  -89.05134 -89.04715 -19.30167 -19.29671 -19.25960
 Alpha  occ. eigenvalues --  -19.25754 -19.25326 -19.25065 -14.51305 -14.49954
 Alpha  occ. eigenvalues --  -10.44200 -10.43694 -10.43569 -10.43344 -10.36725
 Alpha  occ. eigenvalues --  -10.36572 -10.36044 -10.35549 -10.35290 -10.34996
 Alpha  occ. eigenvalues --  -10.34840 -10.34626 -10.34488 -10.33933 -10.33805
 Alpha  occ. eigenvalues --  -10.33792 -10.33496 -10.33329 -10.33097 -10.32630
 Alpha  occ. eigenvalues --  -10.31247 -10.30258  -8.09098  -8.08702  -6.03948
 Alpha  occ. eigenvalues --   -6.03554  -6.03553  -6.03181  -6.03137  -6.02775
 Alpha  occ. eigenvalues --   -1.18991  -1.18852  -1.17298  -1.17228  -1.16960
 Alpha  occ. eigenvalues --   -1.16407  -1.06230  -1.05815  -1.03026  -1.00252
 Alpha  occ. eigenvalues --   -0.98759  -0.97234  -0.94419  -0.90788  -0.89131
 Alpha  occ. eigenvalues --   -0.87399  -0.84092  -0.83414  -0.82559  -0.81034
 Alpha  occ. eigenvalues --   -0.80505  -0.77087  -0.76383  -0.74731  -0.72032
 Alpha  occ. eigenvalues --   -0.70689  -0.70381  -0.69102  -0.67925  -0.66118
 Alpha  occ. eigenvalues --   -0.65346  -0.64074  -0.63216  -0.61663  -0.60976
 Alpha  occ. eigenvalues --   -0.60264  -0.59534  -0.59009  -0.57901  -0.56882
 Alpha  occ. eigenvalues --   -0.56530  -0.56160  -0.56010  -0.55081  -0.54614
 Alpha  occ. eigenvalues --   -0.54355  -0.53901  -0.53205  -0.52635  -0.51739
 Alpha  occ. eigenvalues --   -0.51688  -0.51590  -0.50989  -0.50949  -0.50801
 Alpha  occ. eigenvalues --   -0.48930  -0.47599  -0.47105  -0.46430  -0.46116
 Alpha  occ. eigenvalues --   -0.45535  -0.44199  -0.43729  -0.42742  -0.41475
 Alpha  occ. eigenvalues --   -0.41041  -0.40253  -0.39321  -0.39057  -0.38856
 Alpha  occ. eigenvalues --   -0.37899  -0.37773  -0.37175  -0.35198  -0.33590
 Alpha  occ. eigenvalues --   -0.32148  -0.30765  -0.26117
 Alpha virt. eigenvalues --   -0.08317  -0.01927  -0.00761   0.01507   0.02889
 Alpha virt. eigenvalues --    0.03448   0.04690   0.05165   0.06013   0.06185
 Alpha virt. eigenvalues --    0.06435   0.06916   0.07279   0.07674   0.07969
 Alpha virt. eigenvalues --    0.08120   0.08414   0.08739   0.08855   0.09281
 Alpha virt. eigenvalues --    0.09538   0.10085   0.10327   0.10481   0.10850
 Alpha virt. eigenvalues --    0.11113   0.11451   0.11805   0.12050   0.12282
 Alpha virt. eigenvalues --    0.12783   0.12913   0.13330   0.13776   0.13953
 Alpha virt. eigenvalues --    0.14438   0.15012   0.15127   0.15307   0.15450
 Alpha virt. eigenvalues --    0.15558   0.16362   0.16563   0.16807   0.17293
 Alpha virt. eigenvalues --    0.17370   0.17720   0.17938   0.18139   0.18485
 Alpha virt. eigenvalues --    0.18682   0.18904   0.19252   0.19626   0.19840
 Alpha virt. eigenvalues --    0.20021   0.20354   0.20397   0.21018   0.21246
 Alpha virt. eigenvalues --    0.21531   0.21618   0.21650   0.21760   0.22137
 Alpha virt. eigenvalues --    0.22238   0.22540   0.22795   0.23074   0.23287
 Alpha virt. eigenvalues --    0.23629   0.23728   0.23950   0.24347   0.24676
 Alpha virt. eigenvalues --    0.24885   0.25473   0.25650   0.25908   0.25982
 Alpha virt. eigenvalues --    0.26248   0.26292   0.26409   0.26789   0.26893
 Alpha virt. eigenvalues --    0.27293   0.27779   0.27863   0.28127   0.28244
 Alpha virt. eigenvalues --    0.28477   0.28683   0.28945   0.29228   0.29490
 Alpha virt. eigenvalues --    0.29666   0.29903   0.30129   0.30289   0.30405
 Alpha virt. eigenvalues --    0.30897   0.31015   0.31206   0.31404   0.31450
 Alpha virt. eigenvalues --    0.31648   0.32131   0.32375   0.32716   0.32862
 Alpha virt. eigenvalues --    0.33012   0.33225   0.33564   0.33860   0.34308
 Alpha virt. eigenvalues --    0.34610   0.34745   0.35064   0.35368   0.35580
 Alpha virt. eigenvalues --    0.35852   0.36106   0.36237   0.36499   0.36808
 Alpha virt. eigenvalues --    0.37024   0.37136   0.37598   0.37785   0.38091
 Alpha virt. eigenvalues --    0.38519   0.38965   0.39185   0.39320   0.39565
 Alpha virt. eigenvalues --    0.39931   0.40186   0.40676   0.40910   0.41180
 Alpha virt. eigenvalues --    0.41278   0.41610   0.41969   0.42371   0.43023
 Alpha virt. eigenvalues --    0.43201   0.43602   0.44226   0.44438   0.45103
 Alpha virt. eigenvalues --    0.45173   0.45702   0.46111   0.46667   0.47380
 Alpha virt. eigenvalues --    0.47786   0.48202   0.48401   0.49471   0.49856
 Alpha virt. eigenvalues --    0.50242   0.50656   0.52284   0.52597   0.52719
 Alpha virt. eigenvalues --    0.52850   0.53787   0.53863   0.54438   0.55128
 Alpha virt. eigenvalues --    0.55499   0.55709   0.56618   0.57057   0.57668
 Alpha virt. eigenvalues --    0.57898   0.58684   0.59570   0.60046   0.60260
 Alpha virt. eigenvalues --    0.61199   0.61290   0.62255   0.62610   0.63156
 Alpha virt. eigenvalues --    0.63743   0.64112   0.64320   0.65281   0.65748
 Alpha virt. eigenvalues --    0.66059   0.66394   0.67104   0.67517   0.67649
 Alpha virt. eigenvalues --    0.68185   0.68407   0.68992   0.69249   0.69489
 Alpha virt. eigenvalues --    0.69957   0.70372   0.70672   0.71588   0.71898
 Alpha virt. eigenvalues --    0.72356   0.72784   0.73012   0.73791   0.74195
 Alpha virt. eigenvalues --    0.74331   0.74770   0.75521   0.76104   0.76115
 Alpha virt. eigenvalues --    0.76856   0.77344   0.78224   0.78443   0.78827
 Alpha virt. eigenvalues --    0.79334   0.79396   0.79999   0.80334   0.80953
 Alpha virt. eigenvalues --    0.81535   0.81742   0.82144   0.82578   0.83258
 Alpha virt. eigenvalues --    0.84243   0.84352   0.84839   0.85390   0.86042
 Alpha virt. eigenvalues --    0.86701   0.86843   0.87689   0.87921   0.89266
 Alpha virt. eigenvalues --    0.89440   0.90516   0.90759   0.91247   0.91896
 Alpha virt. eigenvalues --    0.92746   0.93104   0.94005   0.94678   0.94983
 Alpha virt. eigenvalues --    0.95398   0.95867   0.96395   0.97070   0.97379
 Alpha virt. eigenvalues --    0.98161   0.98495   0.98722   0.98857   0.99339
 Alpha virt. eigenvalues --    0.99737   1.00208   1.00537   1.01135   1.01610
 Alpha virt. eigenvalues --    1.01815   1.02217   1.02514   1.02855   1.04144
 Alpha virt. eigenvalues --    1.04776   1.04931   1.05617   1.06139   1.06483
 Alpha virt. eigenvalues --    1.06634   1.06826   1.08104   1.09350   1.09523
 Alpha virt. eigenvalues --    1.10326   1.11350   1.11605   1.11831   1.12605
 Alpha virt. eigenvalues --    1.12691   1.13380   1.14029   1.14570   1.15284
 Alpha virt. eigenvalues --    1.15715   1.16331   1.16853   1.17509   1.18304
 Alpha virt. eigenvalues --    1.18631   1.19137   1.19819   1.20504   1.21482
 Alpha virt. eigenvalues --    1.22272   1.22690   1.23318   1.23868   1.24497
 Alpha virt. eigenvalues --    1.25301   1.25802   1.26677   1.27570   1.28064
 Alpha virt. eigenvalues --    1.29437   1.29552   1.29887   1.30630   1.31495
 Alpha virt. eigenvalues --    1.31779   1.32008   1.33264   1.34034   1.34595
 Alpha virt. eigenvalues --    1.35210   1.36052   1.36460   1.37051   1.38298
 Alpha virt. eigenvalues --    1.38658   1.40542   1.42691   1.43297   1.43705
 Alpha virt. eigenvalues --    1.44044   1.44555   1.46005   1.47704   1.47999
 Alpha virt. eigenvalues --    1.49092   1.49998   1.50638   1.51996   1.52539
 Alpha virt. eigenvalues --    1.52792   1.54175   1.54277   1.54915   1.55145
 Alpha virt. eigenvalues --    1.55869   1.56066   1.56418   1.56749   1.58228
 Alpha virt. eigenvalues --    1.58797   1.59896   1.61501   1.62119   1.62855
 Alpha virt. eigenvalues --    1.63020   1.63527   1.63992   1.65663   1.66832
 Alpha virt. eigenvalues --    1.66990   1.67165   1.68686   1.69694   1.70917
 Alpha virt. eigenvalues --    1.71876   1.72314   1.72763   1.73963   1.74516
 Alpha virt. eigenvalues --    1.75171   1.75994   1.76450   1.77468   1.78178
 Alpha virt. eigenvalues --    1.79105   1.79904   1.80278   1.80952   1.81506
 Alpha virt. eigenvalues --    1.82142   1.83338   1.84886   1.85278   1.85873
 Alpha virt. eigenvalues --    1.86487   1.87370   1.88652   1.89516   1.90347
 Alpha virt. eigenvalues --    1.91899   1.92422   1.93314   1.93622   1.94162
 Alpha virt. eigenvalues --    1.94680   1.95008   1.95455   1.96302   1.96798
 Alpha virt. eigenvalues --    1.97198   1.98201   1.98591   1.99157   1.99588
 Alpha virt. eigenvalues --    2.00259   2.01255   2.02092   2.02969   2.03928
 Alpha virt. eigenvalues --    2.04516   2.05393   2.05854   2.06381   2.07185
 Alpha virt. eigenvalues --    2.08140   2.09003   2.09389   2.10037   2.12162
 Alpha virt. eigenvalues --    2.13090   2.13643   2.14618   2.15139   2.15264
 Alpha virt. eigenvalues --    2.16559   2.18222   2.18492   2.19286   2.19724
 Alpha virt. eigenvalues --    2.20415   2.21684   2.22338   2.23815   2.24276
 Alpha virt. eigenvalues --    2.24685   2.25408   2.27323   2.27495   2.28564
 Alpha virt. eigenvalues --    2.29631   2.33387   2.33493   2.36015   2.37940
 Alpha virt. eigenvalues --    2.38939   2.39640   2.42072   2.44377   2.46158
 Alpha virt. eigenvalues --    2.48252   2.49349   2.49693   2.50395   2.52715
 Alpha virt. eigenvalues --    2.54911   2.56342   2.56947   2.59394   2.62076
 Alpha virt. eigenvalues --    2.64204   2.65780   2.66473   2.67919   2.68724
 Alpha virt. eigenvalues --    2.69950   2.70833   2.71885   2.72372   2.72982
 Alpha virt. eigenvalues --    2.73308   2.75802   2.77060   2.77456   2.77833
 Alpha virt. eigenvalues --    2.78669   2.79297   2.79873   2.80527   2.81815
 Alpha virt. eigenvalues --    2.82313   2.82705   2.84040   2.84883   2.85410
 Alpha virt. eigenvalues --    2.85712   2.87074   2.87414   2.89601   2.90983
 Alpha virt. eigenvalues --    2.92265   2.92727   2.93724   2.94390   2.95294
 Alpha virt. eigenvalues --    2.96444   2.97436   2.97808   2.98780   2.99712
 Alpha virt. eigenvalues --    3.00622   3.00959   3.01617   3.02158   3.02329
 Alpha virt. eigenvalues --    3.03445   3.03836   3.04344   3.06111   3.06326
 Alpha virt. eigenvalues --    3.07233   3.08258   3.09180   3.11494   3.13386
 Alpha virt. eigenvalues --    3.13772   3.15252   3.18476   3.20046   3.21601
 Alpha virt. eigenvalues --    3.22681   3.23278   3.24681   3.26018   3.26768
 Alpha virt. eigenvalues --    3.27190   3.28519   3.29979   3.31032   3.31586
 Alpha virt. eigenvalues --    3.33453   3.36148   3.37039   3.39274   3.40267
 Alpha virt. eigenvalues --    3.41574   3.41652   3.42271   3.43042   3.43452
 Alpha virt. eigenvalues --    3.43739   3.45620   3.46005   3.48048   3.48376
 Alpha virt. eigenvalues --    3.50238   3.50568   3.51661   3.52253   3.52758
 Alpha virt. eigenvalues --    3.55516   3.56709   3.58530   3.61912   3.63810
 Alpha virt. eigenvalues --    3.66117   3.67582   3.67749   3.69695   3.72654
 Alpha virt. eigenvalues --    3.74353   3.76308   3.83807   3.87870   3.90251
 Alpha virt. eigenvalues --    3.93898   3.94782   3.95314   3.96221   3.98948
 Alpha virt. eigenvalues --    4.01073   4.03167   4.07263   4.10476   4.11753
 Alpha virt. eigenvalues --    4.17983   4.20887   4.26769   4.30207   4.32289
 Alpha virt. eigenvalues --    4.33772   4.42425   4.43992   4.46238   4.57954
 Alpha virt. eigenvalues --    4.72650   4.76788   4.88197   4.92700   4.93769
 Alpha virt. eigenvalues --    5.12384   5.12657   5.14178   5.15682   5.16303
 Alpha virt. eigenvalues --    5.19083   5.19596   5.21157   5.30717   5.33546
 Alpha virt. eigenvalues --    5.35286   5.37489   5.41096   5.51569   5.79256
 Alpha virt. eigenvalues --    5.82236   5.84456   5.88539   5.89450   5.92774
 Alpha virt. eigenvalues --    8.11350   8.15211  17.42788  17.48699  17.62513
 Alpha virt. eigenvalues --   17.66154  17.71925  17.76835  23.58663  23.66803
 Alpha virt. eigenvalues --   23.81714  23.90340  23.92525  23.94295  23.94930
 Alpha virt. eigenvalues --   23.97219  23.97907  23.98526  24.00389  24.04860
 Alpha virt. eigenvalues --   24.06655  24.09726  24.12642  24.13545  24.14446
 Alpha virt. eigenvalues --   24.15715  24.23969  24.25098  24.25632  24.26018
 Alpha virt. eigenvalues --   35.68626  35.74727  50.05413  50.07535  50.12476
 Alpha virt. eigenvalues --   50.14319  50.17485  50.19246 189.36392 189.40985
          Condensed to atoms (all electrons):
               1          2          3          4          5          6
     1  C   14.135156  -5.273910  -0.925366   2.356161  -3.112333  -0.733344
     2  C   -5.273910  12.961331   0.485254  -0.665610   2.088788  -0.481625
     3  C   -0.925366   0.485254   6.729240   0.719754  -0.687471   0.487395
     4  C    2.356161  -0.665610   0.719754  13.289860  -3.707679  -0.510190
     5  C   -3.112333   2.088788  -0.687471  -3.707679  11.360715   0.177036
     6  C   -0.733344  -0.481625   0.487395  -0.510190   0.177036   9.862382
     7  C   -1.237087   0.940441   1.162259  -0.331976  -0.206930   0.539114
     8  C   -0.390029  -0.378406   0.363301   0.168986   0.164162   1.205263
     9  C   -0.554820  -0.536268  -0.322263  -0.218148   0.352101  -1.649703
    10  C    0.045879  -0.581257  -0.129339  -0.105160  -0.108531  -1.626941
    11  C    0.134086   0.537300  -1.169398   0.386330  -0.104109  -0.076114
    12  C    0.318081   0.094728   0.670874  -0.099402  -0.241570   0.184555
    13  C    0.196570  -0.915200  -0.702888  -5.007727   0.010412   0.363664
    14  C   -0.325026  -1.219382  -0.458662  -0.339267  -0.308514   0.271002
    15  H    0.001615  -0.004062   0.010898  -0.045331  -0.008041  -0.000313
    16  H   -0.000907  -0.002110  -0.002901  -0.000353   0.005699   0.000146
    17  H    0.009484  -0.037290   0.007184  -0.005590   0.000503   0.417125
    18  N   -0.002568   0.035634   0.003557   0.011233   0.002369   0.046933
    19  N    0.124663  -0.312409  -0.046891  -0.132895  -0.001335   0.133212
    20  O    0.268404  -0.138505  -0.004843  -0.036571   0.088253   0.055792
    21  O    0.103958  -0.062110   0.017095  -0.225720   0.303566   0.002330
    22  O    0.000747  -0.002236  -0.012066   0.011060   0.000136  -0.000586
    23  O   -0.000978   0.000162   0.022619   0.002997   0.000768  -0.022940
    24  C    0.605392  -0.581150  -0.479208   0.077073  -0.022751  -1.609865
    25  C    0.065956   0.182278  -0.033932  -0.006064  -0.036827   0.634626
    26  S   -0.100088  -0.149317   0.078663   0.014599   0.021104  -0.004918
    27  C    0.029546   0.014869  -0.022009  -0.010026  -0.007483   0.064050
    28  H   -0.003238   0.002022   0.001783   0.000224  -0.000067   0.023002
    29  C    0.046342   0.001074  -0.077377   0.007902  -0.000948  -1.365011
    30  O   -0.000043   0.000113   0.000034   0.000037   0.000004  -0.001413
    31  C   -0.000245  -0.010246   0.004590  -0.000255  -0.000017  -0.034592
    32  C    0.000357  -0.003423  -0.002492  -0.000191  -0.000014  -0.142472
    33  S    0.000029  -0.000029  -0.000039  -0.000041  -0.000004   0.008493
    34  C   -0.000127  -0.002464  -0.000322  -0.000018   0.000005  -0.011274
    35  O   -0.000015  -0.000177   0.000131   0.000000  -0.000001  -0.002694
    36  C    0.000030   0.000395   0.000009   0.000000  -0.000001  -0.001625
    37  H    0.000000   0.000000  -0.000000   0.000000   0.000000   0.000000
    38  H    0.000000   0.000000  -0.000000  -0.000000  -0.000000  -0.000000
    39  H    0.000001   0.000019   0.000006   0.000000  -0.000000  -0.000259
    40  H   -0.000117  -0.000593   0.000015  -0.000015  -0.000000   0.005133
    41  H    0.021568  -0.038231  -0.007447   0.013179  -0.023214   0.017492
    42  H   -0.000278  -0.003248   0.001474  -0.000499  -0.000037   0.002953
               7          8          9         10         11         12
     1  C   -1.237087  -0.390029  -0.554820   0.045879   0.134086   0.318081
     2  C    0.940441  -0.378406  -0.536268  -0.581257   0.537300   0.094728
     3  C    1.162259   0.363301  -0.322263  -0.129339  -1.169398   0.670874
     4  C   -0.331976   0.168986  -0.218148  -0.105160   0.386330  -0.099402
     5  C   -0.206930   0.164162   0.352101  -0.108531  -0.104109  -0.241570
     6  C    0.539114   1.205263  -1.649703  -1.626941  -0.076114   0.184555
     7  C    7.558938  -0.077473  -0.428993  -0.552608  -1.223984   0.816675
     8  C   -0.077473   8.931703   0.188244  -2.098257   0.613943   0.324260
     9  C   -0.428993   0.188244   8.312373   0.706512  -0.274895  -0.192586
    10  C   -0.552608  -2.098257   0.706512  11.574718  -2.397410   1.585414
    11  C   -1.223984   0.613943  -0.274895  -2.397410  12.874247  -4.296636
    12  C    0.816675   0.324260  -0.192586   1.585414  -4.296636  14.784491
    13  C   -0.503231  -0.996530   0.032184  -0.383272   0.183081  -0.674134
    14  C    0.042139  -1.418024  -0.165415  -0.216867   0.252287  -6.700048
    15  H   -0.008201  -0.000793   0.000044  -0.000704   0.005579   0.013056
    16  H    0.021833  -0.010598   0.001360   0.003363  -0.029487  -0.045810
    17  H   -0.014434   0.017559  -0.037310   0.004865  -0.000466   0.001515
    18  N    0.043576  -0.039317   0.003655  -0.205583   0.059190  -0.064557
    19  N   -0.069513   0.038478   0.028576   0.008712  -0.002156   0.004102
    20  O   -0.029148   0.022936   0.082786   0.002482   0.000516  -0.001160
    21  O   -0.030067   0.002629   0.001320   0.000233   0.002595   0.028493
    22  O   -0.000362  -0.069212   0.004177   0.099910   0.237465  -0.227254
    23  O    0.036677  -0.091221   0.097838   0.270684  -0.042916  -0.014329
    24  C   -0.667457   0.340775   0.439939   0.520789   0.293555  -0.448729
    25  C   -0.106261  -0.675340  -0.760770  -0.280516   0.066603  -0.080105
    26  S    0.088359   0.635819   0.476715  -0.326591  -0.201728   0.014016
    27  C   -0.021555  -0.452516  -0.361342  -0.048413   0.029772  -0.019279
    28  H   -0.000456   0.012026   0.002816   0.001721  -0.000275   0.000460
    29  C    0.016286  -0.510362   0.783835   0.355749   0.040265  -0.008063
    30  O   -0.000107   0.002998  -0.003112   0.000587  -0.000021   0.000103
    31  C   -0.019733   0.015408  -0.119065   0.013489  -0.002323   0.006255
    32  C   -0.012136  -0.046731  -0.045893   0.069175   0.001060   0.001053
    33  S    0.000439  -0.004775   0.016972   0.003206   0.000012   0.000011
    34  C   -0.000383  -0.023709   0.027122   0.025250  -0.000379   0.000115
    35  O   -0.000640  -0.002776   0.008634   0.008711  -0.000852   0.001017
    36  C   -0.000366   0.001996  -0.009185   0.000548   0.000071   0.000055
    37  H    0.000000   0.000000   0.000023  -0.000012  -0.000000  -0.000000
    38  H    0.000000  -0.000000   0.000012  -0.000001  -0.000000  -0.000000
    39  H   -0.000051   0.000166  -0.000662  -0.000027  -0.000072   0.000032
    40  H    0.000024  -0.001307  -0.001825   0.000022  -0.000000  -0.000023
    41  H   -0.005105   0.001670   0.000340   0.000136   0.000115   0.002127
    42  H   -0.006227  -0.005712   0.002916   0.032693  -0.059527   0.039078
              13         14         15         16         17         18
     1  C    0.196570  -0.325026   0.001615  -0.000907   0.009484  -0.002568
     2  C   -0.915200  -1.219382  -0.004062  -0.002110  -0.037290   0.035634
     3  C   -0.702888  -0.458662   0.010898  -0.002901   0.007184   0.003557
     4  C   -5.007727  -0.339267  -0.045331  -0.000353  -0.005590   0.011233
     5  C    0.010412  -0.308514  -0.008041   0.005699   0.000503   0.002369
     6  C    0.363664   0.271002  -0.000313   0.000146   0.417125   0.046933
     7  C   -0.503231   0.042139  -0.008201   0.021833  -0.014434   0.043576
     8  C   -0.996530  -1.418024  -0.000793  -0.010598   0.017559  -0.039317
     9  C    0.032184  -0.165415   0.000044   0.001360  -0.037310   0.003655
    10  C   -0.383272  -0.216867  -0.000704   0.003363   0.004865  -0.205583
    11  C    0.183081   0.252287   0.005579  -0.029487  -0.000466   0.059190
    12  C   -0.674134  -6.700048   0.013056  -0.045810   0.001515  -0.064557
    13  C   14.771936  -0.381042  -0.043874   0.452840  -0.000531   0.005151
    14  C   -0.381042  17.202097   0.436081  -0.036906  -0.000968  -0.006017
    15  H   -0.043874   0.436081   0.449038  -0.004141  -0.000000   0.000109
    16  H    0.452840  -0.036906  -0.004141   0.446661   0.000000  -0.001585
    17  H   -0.000531  -0.000968  -0.000000   0.000000   0.448712   0.000013
    18  N    0.005151  -0.006017   0.000109  -0.001585   0.000013   7.347290
    19  N    0.038344   0.031352  -0.002066   0.000082  -0.001966  -0.000032
    20  O   -0.001626   0.000789  -0.000001   0.000000   0.011798  -0.000020
    21  O    0.152101   0.017889   0.007510   0.000055  -0.000011  -0.000044
    22  O    0.102079   0.192401   0.000032   0.008340   0.000001  -0.054951
    23  O   -0.026397  -0.012338   0.000001  -0.000012  -0.000084  -0.132743
    24  C   -0.164752  -0.229413  -0.000064  -0.000259  -0.068546  -0.002691
    25  C    0.016211   0.021536  -0.000010   0.000002   0.053060  -0.005202
    26  S   -0.027103  -0.014082   0.000006  -0.000001  -0.010112  -0.090679
    27  C    0.002971   0.002513  -0.000001  -0.000001   0.020133   0.006909
    28  H    0.000047   0.000078  -0.000000   0.000000   0.000282   0.000025
    29  C    0.004880  -0.001585  -0.000000  -0.000004  -0.004396   0.002928
    30  O    0.000007   0.000004   0.000000   0.000000   0.000035  -0.000015
    31  C    0.000806   0.000480  -0.000000   0.000000   0.001125   0.006728
    32  C    0.000050  -0.000056  -0.000000  -0.000000  -0.000058   0.002051
    33  S    0.000005   0.000003  -0.000000  -0.000000   0.000119   0.000462
    34  C   -0.000027  -0.000005  -0.000000   0.000000   0.000011   0.000117
    35  O    0.000061   0.000011  -0.000000  -0.000000  -0.000001  -0.000787
    36  C    0.000006   0.000001   0.000000   0.000000   0.000005   0.000136
    37  H   -0.000000  -0.000000   0.000000   0.000000  -0.000000   0.000000
    38  H   -0.000000  -0.000000   0.000000   0.000000  -0.000000  -0.000000
    39  H   -0.000002  -0.000000   0.000000  -0.000000  -0.000000  -0.000042
    40  H   -0.000001  -0.000001  -0.000000  -0.000000  -0.000013  -0.000001
    41  H    0.004703   0.014915  -0.000014  -0.000000  -0.000017  -0.000001
    42  H    0.013907   0.004326  -0.000000  -0.000028   0.000000   0.276502
              19         20         21         22         23         24
     1  C    0.124663   0.268404   0.103958   0.000747  -0.000978   0.605392
     2  C   -0.312409  -0.138505  -0.062110  -0.002236   0.000162  -0.581150
     3  C   -0.046891  -0.004843   0.017095  -0.012066   0.022619  -0.479208
     4  C   -0.132895  -0.036571  -0.225720   0.011060   0.002997   0.077073
     5  C   -0.001335   0.088253   0.303566   0.000136   0.000768  -0.022751
     6  C    0.133212   0.055792   0.002330  -0.000586  -0.022940  -1.609865
     7  C   -0.069513  -0.029148  -0.030067  -0.000362   0.036677  -0.667457
     8  C    0.038478   0.022936   0.002629  -0.069212  -0.091221   0.340775
     9  C    0.028576   0.082786   0.001320   0.004177   0.097838   0.439939
    10  C    0.008712   0.002482   0.000233   0.099910   0.270684   0.520789
    11  C   -0.002156   0.000516   0.002595   0.237465  -0.042916   0.293555
    12  C    0.004102  -0.001160   0.028493  -0.227254  -0.014329  -0.448729
    13  C    0.038344  -0.001626   0.152101   0.102079  -0.026397  -0.164752
    14  C    0.031352   0.000789   0.017889   0.192401  -0.012338  -0.229413
    15  H   -0.002066  -0.000001   0.007510   0.000032   0.000001  -0.000064
    16  H    0.000082   0.000000   0.000055   0.008340  -0.000012  -0.000259
    17  H   -0.001966   0.011798  -0.000011   0.000001  -0.000084  -0.068546
    18  N   -0.000032  -0.000020  -0.000044  -0.054951  -0.132743  -0.002691
    19  N    7.251748  -0.061195  -0.049675  -0.000018   0.000046   0.030734
    20  O   -0.061195   7.974548   0.001446  -0.000000  -0.000004   0.027369
    21  O   -0.049675   0.001446   7.986246   0.000017   0.000000   0.000041
    22  O   -0.000018  -0.000000   0.000017   7.978885  -0.000592  -0.003134
    23  O    0.000046  -0.000004   0.000000  -0.000592   8.344300  -0.289354
    24  C    0.030734   0.027369   0.000041  -0.003134  -0.289354  14.999478
    25  C    0.000293  -0.000340  -0.000057  -0.000136  -0.135133  -0.831393
    26  S    0.001189   0.000351   0.000018  -0.000165   0.164209  -0.235252
    27  C    0.000353   0.000594  -0.000012  -0.000005  -0.077299  -2.540166
    28  H    0.000000  -0.000012   0.000000   0.000000  -0.000375   0.011730
    29  C    0.000995   0.000613  -0.000000  -0.000002   0.097509  -2.526807
    30  O    0.000001  -0.000001   0.000000  -0.000000   0.000210   0.059131
    31  C    0.000025   0.000010  -0.000000   0.000024  -0.027141   0.079672
    32  C    0.000000   0.000007  -0.000000  -0.000000   0.000084  -1.263422
    33  S    0.000001  -0.000000  -0.000000   0.000001   0.000653   0.201845
    34  C   -0.000000   0.000000  -0.000000   0.000001  -0.000375  -0.078576
    35  O    0.000000  -0.000000  -0.000000   0.000002   0.010218  -0.050237
    36  C    0.000000  -0.000000  -0.000000  -0.000000  -0.000187  -0.041496
    37  H    0.000000  -0.000000   0.000000   0.000000   0.000001   0.000106
    38  H   -0.000000   0.000000  -0.000000  -0.000000  -0.000000  -0.000117
    39  H    0.000000  -0.000000   0.000000  -0.000000  -0.000163  -0.003891
    40  H   -0.000000   0.000000  -0.000000  -0.000000  -0.000057  -0.059787
    41  H    0.282539   0.007829   0.007736   0.000000  -0.000000   0.000648
    42  H    0.000001  -0.000000  -0.000000   0.009665   0.014444  -0.010287
              25         26         27         28         29         30
     1  C    0.065956  -0.100088   0.029546  -0.003238   0.046342  -0.000043
     2  C    0.182278  -0.149317   0.014869   0.002022   0.001074   0.000113
     3  C   -0.033932   0.078663  -0.022009   0.001783  -0.077377   0.000034
     4  C   -0.006064   0.014599  -0.010026   0.000224   0.007902   0.000037
     5  C   -0.036827   0.021104  -0.007483  -0.000067  -0.000948   0.000004
     6  C    0.634626  -0.004918   0.064050   0.023002  -1.365011  -0.001413
     7  C   -0.106261   0.088359  -0.021555  -0.000456   0.016286  -0.000107
     8  C   -0.675340   0.635819  -0.452516   0.012026  -0.510362   0.002998
     9  C   -0.760770   0.476715  -0.361342   0.002816   0.783835  -0.003112
    10  C   -0.280516  -0.326591  -0.048413   0.001721   0.355749   0.000587
    11  C    0.066603  -0.201728   0.029772  -0.000275   0.040265  -0.000021
    12  C   -0.080105   0.014016  -0.019279   0.000460  -0.008063   0.000103
[...]
    33  S   -0.000016  -0.000014  -0.000000  -0.000000   0.000156  -0.000008
    34  C   -0.000006  -0.000015  -0.000000   0.000000   0.000007   0.000014
    35  O    0.000007   0.000006  -0.000000  -0.000000  -0.000004  -0.000213
    36  C   -0.000009  -0.000001  -0.000000   0.000000   0.000007  -0.000052
    37  H   -0.000000  -0.000000   0.000000  -0.000000   0.000000   0.000000
    38  H    0.000000  -0.000000   0.000000   0.000000  -0.000000  -0.000000
    39  H    0.000001   0.000001  -0.000000  -0.000000  -0.000000  -0.000024
    40  H    0.000002   0.000002   0.000000  -0.000000   0.000007   0.000004
    41  H    0.001651   0.002661  -0.000011   0.000000  -0.000017  -0.000001
    42  H   -0.004512  -0.000715   0.000000  -0.000007  -0.000000   0.337749
              19         20         21         22         23         24
     1  C    0.125980   0.289601   0.096159   0.000444  -0.003412   0.559766
     2  C   -0.220980  -0.143664  -0.058234  -0.004178  -0.019856   0.166131
     3  C   -0.091489   0.014286   0.026837  -0.015707  -0.010626  -0.619209
     4  C   -0.107632  -0.040214  -0.201240  -0.000238   0.001258   0.085548
     5  C    0.056861   0.082783   0.278877  -0.000784   0.000473  -0.021620
     6  C    0.093563   0.053320   0.002593  -0.001216   0.021877  -1.169146
     7  C   -0.092057  -0.028941  -0.033371   0.023156   0.025664  -0.428781
     8  C    0.034774   0.019392   0.003089  -0.085535  -0.209636  -0.542723
     9  C    0.011508   0.048151   0.001230   0.001199  -0.035272   0.142423
    10  C    0.008787   0.001367   0.000231   0.106204   0.503584   1.030520
    11  C   -0.005291   0.000728   0.002551   0.243524   0.066454   0.170134
    12  C    0.003711  -0.000372   0.028652  -0.252887  -0.009640  -0.490817
    13  C    0.041675  -0.002248   0.137041   0.107054   0.007297  -0.189494
    14  C    0.012412  -0.001432   0.009640   0.184469   0.000614  -0.235541
    15  H   -0.001308  -0.000006   0.006825   0.000056   0.000001  -0.000069
    16  H    0.000138   0.000000   0.000060   0.006347  -0.000010  -0.000333
    17  H   -0.001077   0.009742  -0.000010   0.000001   0.000010  -0.040584
    18  N   -0.000107   0.000005  -0.000065  -0.049405  -0.059553  -0.097783
    19  N    7.308469  -0.051866  -0.036424  -0.000037  -0.000049   0.019220
    20  O   -0.051866   7.991315   0.001744  -0.000000   0.000007   0.021562
    21  O   -0.036424   0.001744   7.994385   0.000017   0.000000   0.000194
    22  O   -0.000037  -0.000000   0.000017   8.007855   0.001759  -0.000702
    23  O   -0.000049   0.000007   0.000000   0.001759   8.002181  -0.049027
    24  C    0.019220   0.021562   0.000194  -0.000702  -0.049027  13.950064
    25  C    0.001316  -0.007677   0.000017   0.000251  -0.067849  -0.005632
    26  S    0.000674   0.001397  -0.000003  -0.000099   0.066325  -0.045020
    27  C    0.000757   0.000709  -0.000007   0.000055  -0.047216  -3.369300
    28  H   -0.000007   0.000018  -0.000000   0.000000  -0.000651   0.003945
    29  C    0.000410   0.001828   0.000004   0.000045   0.026643  -2.405620
    30  O    0.000000  -0.000000   0.000000  -0.000000   0.000292   0.140978
    31  C    0.000032   0.000028  -0.000000  -0.000000  -0.010912   0.012925
    32  C    0.000006   0.000016  -0.000000  -0.000008   0.000019  -0.956108
    33  S    0.000001  -0.000000  -0.000000   0.000000  -0.000648   0.126740
    34  C    0.000000   0.000001  -0.000000   0.000001   0.000888  -0.098116
    35  O    0.000000  -0.000000  -0.000000  -0.000000   0.000566   0.007160
    36  C   -0.000000  -0.000000  -0.000000  -0.000000  -0.000391   0.005053
    37  H    0.000000   0.000000   0.000000  -0.000000  -0.000000   0.000106
    38  H   -0.000000   0.000000  -0.000000   0.000000   0.000000  -0.000099
    39  H    0.000000  -0.000000  -0.000000   0.000000   0.000015  -0.011652
    40  H    0.000000  -0.000001  -0.000000   0.000000   0.000050  -0.085760
    41  H    0.340148   0.003396   0.002268  -0.000000  -0.000000   0.000241
    42  H   -0.000000  -0.000000  -0.000000   0.001421   0.004599  -0.002865
              25         26         27         28         29         30
     1  C    0.241249  -0.142878   0.089929   0.001335   0.026179  -0.000814
     2  C   -0.082476  -0.072864  -0.062376   0.003468  -0.126170  -0.000614
     3  C   -0.213222   0.144175  -0.055755   0.002903  -0.078401   0.000023
     4  C    0.025017   0.001869  -0.001297  -0.000160  -0.004491   0.000024
     5  C   -0.017378   0.015564  -0.003585  -0.000116  -0.001008   0.000012
     6  C   -0.393139   0.410757  -0.511682   0.017545  -0.528049   0.006872
     7  C   -0.192125   0.068778  -0.046347  -0.000608   0.016119   0.000327
     8  C   -0.836591   0.898908  -0.620693   0.009409  -0.391457   0.007821
     9  C   -0.327603   0.555446  -0.190483   0.012360   0.013633   0.002719
    10  C   -0.016444  -0.423189  -0.048422  -0.000506   0.220744  -0.001031
    11  C    0.057590  -0.092151   0.015698  -0.000302   0.040218   0.000017
    12  C   -0.064899   0.063302  -0.029423   0.000576  -0.029639   0.000038
    13  C    0.015096   0.002201  -0.000206  -0.000005   0.002922   0.000002
    14  C    0.017985   0.001526  -0.000044   0.000002   0.000866   0.000002
    15  H   -0.000001  -0.000000  -0.000001  -0.000000   0.000000   0.000000
    16  H   -0.000004   0.000026  -0.000002   0.000000  -0.000004   0.000000
    17  H    0.042751  -0.009585   0.013038  -0.000277  -0.004639   0.000056
    18  N   -0.016652   0.035193   0.003239  -0.000024  -0.006648   0.000016
    19  N    0.001316   0.000674   0.000757  -0.000007   0.000410   0.000000
    20  O   -0.007677   0.001397   0.000709   0.000018   0.001828  -0.000000
    21  O    0.000017  -0.000003  -0.000007  -0.000000   0.000004   0.000000
    22  O    0.000251  -0.000099   0.000055   0.000000   0.000045  -0.000000
    23  O   -0.067849   0.066325  -0.047216  -0.000651   0.026643   0.000292
    24  C   -0.005632  -0.045020  -3.369300   0.003945  -2.405620   0.140978
    25  C   12.889750  -3.197354   2.481912   0.389849  -2.823177  -0.032678
    26  S   -3.197354  20.706683  -2.443656   0.021663  -0.034281   0.038197
    27  C    2.481912  -2.443656  12.885669  -0.120809   0.093789   0.163642
    28  H    0.389849   0.021663  -0.120809   0.506275   0.012576  -0.003083
    29  C   -2.823177  -0.034281   0.093789   0.012576  11.948802  -0.277414
    30  O   -0.032678   0.038197   0.163642  -0.003083  -0.277414   8.057955
    31  C   -0.695797   0.409533  -0.307860  -0.005544   0.216564  -0.041894
    32  C   -0.129670  -0.330035  -1.337077   0.000038  -0.723872   0.040503
    33  S   -0.186566   0.036937   0.112172   0.001073   0.651898  -0.071289
    34  C   -0.262719  -0.160903  -0.070961   0.000035  -0.371322  -0.011013
    35  O   -0.003363  -0.023286   0.044276   0.000013  -0.005427  -0.000940
    36  C   -0.052663   0.157285  -0.427542   0.000100   0.003086   0.011563
    37  H   -0.000026   0.000979   0.000822   0.000000  -0.002573   0.000023
    38  H    0.000406  -0.001338   0.005426   0.000000  -0.004826  -0.000037
    39  H    0.002648  -0.002631  -0.003170   0.000000   0.045678  -0.000017
    40  H   -0.160764  -0.021162   0.162101   0.001220   0.095892   0.206972
    41  H    0.000086  -0.000031   0.000010   0.000000   0.000000  -0.000000
    42  H   -0.001732   0.000034  -0.000592   0.000000   0.000853   0.000000
              31         32         33         34         35         36
     1  C    0.000294  -0.001250   0.000574  -0.000063  -0.000033  -0.000005
     2  C   -0.015275  -0.021769   0.002048   0.000464  -0.000215  -0.000387
     3  C   -0.001119  -0.002652   0.000027   0.000174   0.000117  -0.000030
     4  C   -0.000165  -0.000843   0.000029   0.000017  -0.000014  -0.000009
     5  C   -0.000087  -0.000023   0.000000   0.000007  -0.000002  -0.000001
     6  C   -0.077384  -0.071966  -0.007720  -0.003668   0.000719  -0.001707
     7  C   -0.010072  -0.008790   0.000031   0.000191  -0.000169  -0.000269
     8  C   -0.040847  -0.043866  -0.010823  -0.009220  -0.001418   0.000126
     9  C   -0.085005  -0.159913   0.026419   0.045099   0.005214  -0.008462
    10  C    0.009251   0.043249   0.005617   0.003453   0.005148  -0.000283
    11  C   -0.004193  -0.000690  -0.000083  -0.000455  -0.000085  -0.000041
    12  C    0.000486  -0.002623  -0.000009   0.000218   0.000173  -0.000085
    13  C   -0.000395  -0.000290  -0.000016  -0.000006   0.000007  -0.000009
    14  C    0.000083  -0.000045  -0.000014  -0.000015   0.000006  -0.000001
    15  H   -0.000000  -0.000000  -0.000000  -0.000000  -0.000000  -0.000000
    16  H    0.000000  -0.000000  -0.000000   0.000000  -0.000000   0.000000
    17  H    0.000920  -0.000112   0.000156   0.000007  -0.000004   0.000007
    18  N   -0.000325  -0.003277  -0.000008   0.000014  -0.000213  -0.000052
    19  N    0.000032   0.000006   0.000001   0.000000   0.000000  -0.000000
    20  O    0.000028   0.000016  -0.000000   0.000001  -0.000000  -0.000000
    21  O   -0.000000  -0.000000  -0.000000  -0.000000  -0.000000  -0.000000
    22  O   -0.000000  -0.000008   0.000000   0.000001  -0.000000  -0.000000
    23  O   -0.010912   0.000019  -0.000648   0.000888   0.000566  -0.000391
    24  C    0.012925  -0.956108   0.126740  -0.098116   0.007160   0.005053
    25  C   -0.695797  -0.129670  -0.186566  -0.262719  -0.003363  -0.052663
    26  S    0.409533  -0.330035   0.036937  -0.160903  -0.023286   0.157285
    27  C   -0.307860  -1.337077   0.112172  -0.070961   0.044276  -0.427542
    28  H   -0.005544   0.000038   0.001073   0.000035   0.000013   0.000100
    29  C    0.216564  -0.723872   0.651898  -0.371322  -0.005427   0.003086
    30  O   -0.041894   0.040503  -0.071289  -0.011013  -0.000940   0.011563
    31  C   10.494388  -5.065784   0.359919   1.118296   0.037509  -1.110789
    32  C   -5.065784  21.823291  -2.355997  -7.399672  -0.128796   2.356756
    33  S    0.359919  -2.355997  17.432337   0.246524   0.034437  -0.087627
    34  C    1.118296  -7.399672   0.246524  14.360927   0.036844  -1.363511
    35  O    0.037509  -0.128796   0.034437   0.036844   8.064413   0.005959
    36  C   -1.110789   2.356756  -0.087627  -1.363511   0.005959   6.439309
    37  H    0.025877  -0.135923   0.011175   0.435891  -0.002413   0.022883
    38  H    0.050135  -0.077098  -0.032046   0.086908  -0.000343   0.339677
    39  H   -0.036672   0.338429  -0.011751  -0.289078   0.187654   0.005183
    40  H    0.041395   0.000021   0.007993   0.003269  -0.000027  -0.004633
    41  H    0.000000  -0.000000   0.000000  -0.000000   0.000000  -0.000000
    42  H   -0.000100   0.000077  -0.000002   0.000000   0.000006  -0.000000
              37         38         39         40         41         42
     1  C    0.000000   0.000000  -0.000000   0.000092  -0.018720  -0.000066
     2  C    0.000000   0.000000  -0.000028   0.000139  -0.003216   0.000466
     3  C   -0.000000   0.000000   0.000004   0.000004   0.003575   0.000209
     4  C    0.000000  -0.000000  -0.000002   0.000007   0.009660   0.001069
     5  C    0.000000   0.000000  -0.000000  -0.000003  -0.035213  -0.000018
     6  C    0.000001   0.000002  -0.000353  -0.004146   0.005819   0.000084
     7  C    0.000000   0.000000  -0.000112  -0.000108  -0.002095   0.007997
     8  C    0.000001   0.000000  -0.000185  -0.000960   0.000504   0.028167
     9  C    0.000014   0.000009  -0.001488  -0.005820  -0.000018   0.002457
    10  C   -0.000001  -0.000000   0.000355   0.000306   0.000043  -0.039100
    11  C    0.000000   0.000000  -0.000024   0.000005  -0.000093  -0.023300
    12  C   -0.000000   0.000000   0.000026   0.000031   0.000079  -0.001551
    13  C   -0.000000   0.000000   0.000001   0.000002   0.001651  -0.004512
    14  C   -0.000000  -0.000000   0.000001   0.000002   0.002661  -0.000715
    15  H    0.000000   0.000000  -0.000000   0.000000  -0.000011   0.000000
    16  H   -0.000000   0.000000  -0.000000  -0.000000   0.000000  -0.000007
    17  H    0.000000  -0.000000  -0.000000   0.000007  -0.000017  -0.000000
    18  N    0.000000  -0.000000  -0.000024   0.000004  -0.000001   0.337749
    19  N    0.000000  -0.000000   0.000000   0.000000   0.340148  -0.000000
    20  O    0.000000   0.000000  -0.000000  -0.000001   0.003396  -0.000000
    21  O    0.000000  -0.000000  -0.000000  -0.000000   0.002268  -0.000000
    22  O   -0.000000   0.000000   0.000000   0.000000  -0.000000   0.001421
    23  O   -0.000000   0.000000   0.000015   0.000050  -0.000000   0.004599
    24  C    0.000106  -0.000099  -0.011652  -0.085760   0.000241  -0.002865
    25  C   -0.000026   0.000406   0.002648  -0.160764   0.000086  -0.001732
    26  S    0.000979  -0.001338  -0.002631  -0.021162  -0.000031   0.000034
    27  C    0.000822   0.005426  -0.003170   0.162101   0.000010  -0.000592
    28  H    0.000000   0.000000   0.000000   0.001220   0.000000   0.000000
    29  C   -0.002573  -0.004826   0.045678   0.095892   0.000000   0.000853
    30  O    0.000023  -0.000037  -0.000017   0.206972  -0.000000   0.000000
    31  C    0.025877   0.050135  -0.036672   0.041395   0.000000  -0.000100
    32  C   -0.135923  -0.077098   0.338429   0.000021  -0.000000   0.000077
    33  S    0.011175  -0.032046  -0.011751   0.007993   0.000000  -0.000002
    34  C    0.435891   0.086908  -0.289078   0.003269  -0.000000   0.000000
    35  O   -0.002413  -0.000343   0.187654  -0.000027   0.000000   0.000006
    36  C    0.022883   0.339677   0.005183  -0.004633  -0.000000  -0.000000
    37  H    0.502185  -0.003604   0.002034   0.000000  -0.000000  -0.000000
    38  H   -0.003604   0.447657   0.000020  -0.000002   0.000000   0.000000
    39  H    0.002034   0.000020   0.492092   0.000000   0.000000   0.000000
    40  H    0.000000  -0.000002   0.000000   0.481867   0.000000  -0.000000
    41  H   -0.000000   0.000000   0.000000   0.000000   0.292433   0.000000
    42  H   -0.000000   0.000000   0.000000  -0.000000   0.000000   0.301043
 Mulliken charges:
               1
     1  C    0.466255
     2  C   -0.141835
     3  C    0.174707
     4  C    0.206281
     5  C    0.290939
     6  C   -0.279938
     7  C    0.097790
     8  C   -0.152731
     9  C    0.184819
    10  C    0.113467
    11  C    0.274162
    12  C    0.096589
    13  C   -0.420534
    14  C   -0.621111
    15  H    0.191742
    16  H    0.191773
    17  H    0.192521
    18  N   -0.378688
    19  N   -0.452119
    20  O   -0.264975
    21  O   -0.263060
    22  O   -0.273061
    23  O   -0.205826
    24  C    0.423289
    25  C   -0.377720
    26  S   -0.636989
    27  C   -0.374738
    28  H    0.147687
    29  C    0.400268
    30  O   -0.237231
    31  C    0.732587
    32  C    0.355742
    33  S   -0.291511
    34  C   -0.298506
    35  O   -0.263473
    36  C   -0.288489
    37  H    0.142547
    38  H    0.189153
    39  H    0.283045
    40  H    0.282005
    41  H    0.396839
    42  H    0.388326
 Sum of Mulliken charges =  -0.00000
 Mulliken charges with hydrogens summed into heavy atoms:
               1
     1  C    0.466255
     2  C   -0.141835
     3  C    0.174707
     4  C    0.206281
     5  C    0.290939
     6  C   -0.087417
     7  C    0.097790
     8  C   -0.152731
     9  C    0.184819
    10  C    0.113467
    11  C    0.274162
    12  C    0.096589
    13  C   -0.228761
    14  C   -0.429370
    18  N    0.009638
    19  N   -0.055279
    20  O   -0.264975
    21  O   -0.263060
    22  O   -0.273061
    23  O   -0.205826
    24  C    0.423289
    25  C   -0.230032
    26  S   -0.636989
    27  C   -0.374738
    29  C    0.400268
    30  O    0.044774
    31  C    0.732587
    32  C    0.355742
    33  S   -0.291511
    34  C   -0.155960
    35  O    0.019572
    36  C   -0.099336
 Electronic spatial extent (au):  <R**2>=          17812.0193
 Charge=              0.0000 electrons
 Dipole moment (field-independent basis, Debye):
    X=             -2.3144    Y=              0.1971    Z=              0.3103  Tot=              2.3434
 Quadrupole moment (field-independent basis, Debye-Ang):
   XX=           -187.3654   YY=           -203.2911   ZZ=           -187.2913
   XY=             -6.0603   XZ=            -11.2385   YZ=             14.6358
 Traceless Quadrupole moment (field-independent basis, Debye-Ang):
   XX=              5.2838   YY=            -10.6419   ZZ=              5.3580
   XY=             -6.0603   XZ=            -11.2385   YZ=             14.6358
 Octapole moment (field-independent basis, Debye-Ang**2):
  XXX=           -309.5297  YYY=            -16.3755  ZZZ=             -1.1689  XYY=            -80.8832
  XXY=             66.9408  XXZ=             45.9335  XZZ=            -35.4571  YZZ=             -4.8633
  YYZ=             -6.1327  XYZ=            -49.2314
 Hexadecapole moment (field-independent basis, Debye-Ang**3):
 XXXX=         -18034.3267 YYYY=          -4777.2612 ZZZZ=           -908.4230 XXXY=              6.7854
 XXXZ=           -628.1647 YYYX=           -373.7134 YYYZ=             65.4138 ZZZX=            -13.1208
 ZZZY=            113.8258 XXYY=          -3860.6156 XXZZ=          -3166.2740 YYZZ=           -768.9361
 XXYZ=            320.8909 YYXZ=              0.1343 ZZXY=            -46.7785
 N-N= 3.348215553864D+03 E-N=-1.187204414180D+04  KE= 2.195622345145D+03
 Unable to Open any file for archive entry.
 1\1\GINC-CX3-3-11\FOpt\RwB97XD\6-311+G(d,p)\C22H10N2O6S2\NS5018\18-Nov
 -2020\0\\# opt=modredundant wb97xd/6-311+g(d,p)\\NDI_140.pdb\\0,1\C,-2
 .3993243393,-2.8989537641,-0.5295313411\C,-2.1602188965,-1.4612956349,
 -0.2282480725\C,-3.2527228609,-0.5714811536,-0.0995652656\C,-4.5843915
 845,-1.0133004251,-0.2733319988\C,-4.8553287038,-2.4424584339,-0.58627
 87087\C,-0.8784026384,-1.0021157028,-0.1180618042\C,-2.993451617,0.781
 5222477,0.2107909944\C,-1.6517687289,1.2298059637,0.382790414\C,-0.589
 466084,0.3581747772,0.1657007642\C,-1.4461009094,2.6038231847,0.931540
 4083\C,-3.8807443706,3.0939899012,0.6536008671\C,-4.098969257,1.662087
 1953,0.3242446523\C,-5.3856245343,1.2135774398,0.1375673661\C,-5.63453
 60204,-0.1339686644,-0.1597808293\H,-6.6445903166,-0.498061352,-0.3027
 788107\H,-6.1990181463,1.9236325247,0.2264975535\H,-0.0615709098,-1.69
 41710831,-0.2848927939\N,-2.5645995254,3.4340013503,0.9049096617\N,-3.
 7321249575,-3.2546776907,-0.6793687366\O,-1.5199338232,-3.7192322447,-
 0.6398341295\O,-5.9623182714,-2.8965172927,-0.7491167384\O,-4.76639120
 62,3.913424801,0.7243788645\O,-0.4154192028,3.0088250462,1.4083252808\
 C,0.828562449,0.738984852,0.1135651635\C,1.8720444085,0.0320859993,0.6
 448797135\S,1.3914980095,2.020268455,-0.8978608289\C,3.1303704327,0.56
 40208642,0.2815932068\H,1.7455868582,-0.8253736743,1.2955733769\C,3.05
 74136938,1.6457110221,-0.5654185549\O,4.3308248331,0.0734381055,0.6915
 901864\C,4.1536864328,2.4066332138,-1.1279531969\C,4.0771230273,3.4703
 655257,-1.9947359005\S,5.8260345139,2.0749521332,-0.7553022506\C,5.337
 249269,4.0182024503,-2.354538027\O,2.8769416252,3.9206007259,-2.447675
 5775\C,6.3650245962,3.3596301822,-1.7543612928\H,5.4627279278,4.856731
 545,-3.0282577274\H,7.4214210219,3.5596250518,-1.8499767469\H,2.998889
 8556,4.7162664267,-2.9667081004\H,4.2016505304,-0.5890077044,1.3708723
 732\H,-3.9089238762,-4.229633423,-0.886774143\H,-2.4081087045,4.374867
 2592,1.2439307289\\Version=ES64L-G16RevC.01\State=1-A\HF=-2201.568447\
 RMSD=8.573e-09\RMSF=3.549e-04\Dipole=0.8101628,0.3883414,-0.207\Quadru
 pole=-1.2314798,-1.9880584,3.2195382,5.6434901,-3.2341878,-14.3263524\
 PG=C01 [X(C22H10N2O6S2)]\\@
 The archive entry for this job was punched.


 IT IS NOT EASY TO DESCRIBE
     THE SEA WITH THE MOUTH

                   -- KOKYU
 Job cpu time:       3 days  1 hours 58 minutes 23.4 seconds.
 Elapsed time:       0 days  9 hours 19 minutes 45.6 seconds.
 File lengths (MBytes):  RWF=    361 Int=      0 D2E=      0 Chk=     44 Scr=      1
 Normal termination of Gaussian 16 at Wed Nov 18 00:31:19 2020.
