 Entering Gaussian System, Link 0=g16
 Input=NDI_10.gjf
 Output=NDI_10.log
 Initial command:
 /apps/gaussian/g16-c01-avx/g16/l1.exe "/tmp/pbs.2575785[19].pbs/Gau-1892349.inp" -scrdir="/tmp/pbs.2575785[19].pbs/"
 Entering Link 1 = /apps/gaussian/g16-c01-avx/g16/l1.exe PID=   1892352.
  
 Copyright (c) 1988-2019, Gaussian, Inc.  All Rights Reserved.
  
 This is part of the Gaussian(R) 16 program.  It is based on
 the Gaussian(R) 09 system (copyright 2009, Gaussian, Inc.),
 the Gaussian(R) 03 system (copyright 2003, Gaussian, Inc.),
 the Gaussian(R) 98 system (copyright 1998, Gaussian, Inc.),
 the Gaussian(R) 94 system (copyright 1995, Gaussian, Inc.),
 the Gaussian 92(TM) system (copyright 1992, Gaussian, Inc.),
 the Gaussian 90(TM) system (copyright 1990, Gaussian, Inc.),
 the Gaussian 88(TM) system (copyright 1988, Gaussian, Inc.),
 the Gaussian 86(TM) system (copyright 1986, Carnegie Mellon
 University), and the Gaussian 82(TM) system (copyright 1983,
 Carnegie Mellon University). Gaussian is a federally registered
 trademark of Gaussian, Inc.
  
 This software contains proprietary and confidential information,
 including trade secrets, belonging to Gaussian, Inc.
  
 This software is provided under written license and may be
 used, copied, transmitted, or stored only in accord with that
 written license.
  
 The following legend is applicable only to US Government
 contracts under FAR:
  
                    RESTRICTED RIGHTS LEGEND
  
 Use, reproduction and disclosure by the US Government is
 subject to restrictions as set forth in subparagraphs (a)
 and (c) of the Commercial Computer Software - Restricted
 Rights clause in FAR 52.227-19.
  
 Gaussian, Inc.
 340 Quinnipiac St., Bldg. 40, Wallingford CT 06492
  
  
 ---------------------------------------------------------------
 Warning -- This program may not be used in any manner that
 competes with the business of Gaussian, Inc. or will provide
 assistance to any competitor of Gaussian, Inc.  The licensee
 of this program is prohibited from giving any competitor of
 Gaussian, Inc. access to this program.  By using this program,
 the user acknowledges that Gaussian, Inc. is engaged in the
 business of creating and licensing software in the field of
 computational chemistry and represents and warrants to the
 licensee that it is not a competitor of Gaussian, Inc. and that
 it will not use this program in any manner prohibited above.
 ---------------------------------------------------------------
  

 Cite this work as:
 Gaussian 16, Revision C.01,
 M. J. Frisch, G. W. Trucks, H. B. Schlegel, G. E. Scuseria, 
 M. A. Robb, J. R. Cheeseman, G. Scalmani, V. Barone, 
 G. A. Petersson, H. Nakatsuji, X. Li, M. Caricato, A. V. Marenich, 
 J. Bloino, B. G. Janesko, R. Gomperts, B. Mennucci, H. P. Hratchian, 
 J. V. Ortiz, A. F. Izmaylov, J. L. Sonnenberg, D. Williams-Young, 
 F. Ding, F. Lipparini, F. Egidi, J. Goings, B. Peng, A. Petrone, 
 T. Henderson, D. Ranasinghe, V. G. Zakrzewski, J. Gao, N. Rega, 
 G. Zheng, W. Liang, M. Hada, M. Ehara, K. Toyota, R. Fukuda, 
 J. Hasegawa, M. Ishida, T. Nakajima, Y. Honda, O. Kitao, H. Nakai, 
 T. Vreven, K. Throssell, J. A. Montgomery, Jr., J. E. Peralta, 
 F. Ogliaro, M. J. Bearpark, J. J. Heyd, E. N. Brothers, K. N. Kudin, 
 V. N. Staroverov, T. A. Keith, R. Kobayashi, J. Normand, 
 K. Raghavachari, A. P. Rendell, J. C. Burant, S. S. Iyengar, 
 J. Tomasi, M. Cossi, J. M. Millam, M. Klene, C. Adamo, R. Cammi, 
 J. W. Ochterski, R. L. Martin, K. Morokuma, O. Farkas, 
 J. B. Foresman, and D. J. Fox, Gaussian, Inc., Wallingford CT, 2019.
 
 ******************************************
 Gaussian 16:  ES64L-G16RevC.01  3-Jul-2019
                17-Nov-2020 
 ******************************************
 %mem=10GB
 %nprocshared=8
 Will use up to    8 processors via shared memory.
 --------------------------------------
 # opt=modredundant wb97xd/6-311+g(d,p)
 --------------------------------------
 1/18=120,19=15,26=3,38=1/1,3;
 2/9=110,12=2,17=6,18=5,40=1/2;
 3/5=4,6=6,7=111,11=2,25=1,30=1,71=1,74=-58/1,2,3;
 4//1;
 5/5=2,38=5/2;
 6/7=2,8=2,9=2,10=2,28=1/1;
 7//1,2,3,16;
 1/18=20,19=15,26=3/3(2);
 2/9=110/2;
 99//99;
 2/9=110/2;
 3/5=4,6=6,7=111,11=2,25=1,30=1,71=1,74=-58/1,2,3;
 4/5=5,16=3,69=1/1;
 5/5=2,38=5/2;
 7//1,2,3,16;
 1/18=20,19=15,26=3/3(-5);
 2/9=110/2;
 6/7=2,8=2,9=2,10=2,19=2,28=1/1;
 99/9=1/99;
 ----------
 NDI_10.pdb
 ----------
 Symbolic Z-matrix:
 Charge =  0 Multiplicity = 1
 C                    -2.56     -2.99     -0.41 
 C                    -2.26     -1.55     -0.22 
 C                    -3.3      -0.61     -0.08 
 C                    -4.65     -1.02     -0.12 
 C                    -4.99     -2.46     -0.3 
 C                    -0.95     -1.14     -0.22 
 C                    -2.96      0.76      0.1 
 C                    -1.6       1.19      0.12 
 C                    -0.56      0.23     -0.07 
 C                    -1.33      2.62      0.45 
 C                    -3.78      3.12      0.51 
 C                    -4.03      1.68      0.27 
 C                    -5.36      1.25      0.23 
 C                    -5.67     -0.1       0.04 
 H                    -6.7      -0.44      0.01 
 H                    -6.13      2.        0.36 
 H                    -0.19     -1.9      -0.37 
 N                    -2.43      3.48      0.61 
 N                    -3.92     -3.35     -0.44 
 O                    -1.69     -3.85     -0.53 
 O                    -6.15     -2.85     -0.34 
 O                    -4.68      3.94      0.63 
 O                    -0.21      3.1       0.6 
 C                     0.88      0.48     -0.18 
 C                     1.614     1.622     0.045 
 S                     1.913    -0.787    -0.828 
 C                     2.978     1.491    -0.298 
 H                     1.19      2.535     0.446 
 C                     3.329     0.226    -0.775 
 O                     3.937     2.457    -0.185 
 C                     4.634    -0.23     -1.168 
 C                     4.981    -1.481    -1.673 
 S                     6.08      0.769    -1.048 
 C                     6.365    -1.634    -1.955 
 O                     4.014    -2.418    -1.842 
 C                     7.077    -0.491    -1.669 
 H                     6.819    -2.525    -2.353 
 H                     8.141    -0.332    -1.789 
 H                     4.193    -3.287    -2.464 
 H                     3.643     3.213     0.41 
 H                    -4.23     -4.36     -0.17 
 H                    -2.15      4.41      0.36 
 
 The following ModRedundant input section has been read:
 D       8       9      24      25 F                                           
 

 GradGradGradGradGradGradGradGradGradGradGradGradGradGradGradGradGradGrad
 Berny optimization.
 Initialization pass.
                           ----------------------------
                           !    Initial Parameters    !
                           ! (Angstroms and Degrees)  !
 --------------------------                            --------------------------
 ! Name  Definition              Value          Derivative Info.                !
 --------------------------------------------------------------------------------
 ! R1    R(1,2)                  1.4831         estimate D2E/DX2                !
 ! R2    R(1,19)                 1.4072         estimate D2E/DX2                !
 ! R3    R(1,20)                 1.2292         estimate D2E/DX2                !
 ! R4    R(2,3)                  1.4088         estimate D2E/DX2                !
 ! R5    R(2,6)                  1.3727         estimate D2E/DX2                !
 ! R6    R(3,4)                  1.4115         estimate D2E/DX2                !
 ! R7    R(3,7)                  1.423          estimate D2E/DX2                !
 ! R8    R(4,5)                  1.4905         estimate D2E/DX2                !
 ! R9    R(4,14)                 1.3829         estimate D2E/DX2                !
 ! R10   R(5,19)                 1.3988         estimate D2E/DX2                !
 ! R11   R(5,21)                 1.2245         estimate D2E/DX2                !
 ! R12   R(6,9)                  1.4323         estimate D2E/DX2                !
 ! R13   R(6,17)                 1.0852         estimate D2E/DX2                !
 ! R14   R(7,8)                  1.4265         estimate D2E/DX2                !
 ! R15   R(7,12)                 1.4213         estimate D2E/DX2                !
 ! R16   R(8,9)                  1.428          estimate D2E/DX2                !
 ! R17   R(8,10)                 1.4922         estimate D2E/DX2                !
 ! R18   R(9,24)                 1.4657         estimate D2E/DX2                !
 ! R19   R(10,18)                1.4054         estimate D2E/DX2                !
 ! R20   R(10,23)                1.2277         estimate D2E/DX2                !
 ! R21   R(11,12)                1.4811         estimate D2E/DX2                !
 ! R22   R(11,18)                1.4007         estimate D2E/DX2                !
 ! R23   R(11,22)                1.2234         estimate D2E/DX2                !
 ! R24   R(12,13)                1.3984         estimate D2E/DX2                !
 ! R25   R(13,14)                1.3981         estimate D2E/DX2                !
 ! R26   R(13,16)                1.0827         estimate D2E/DX2                !
 ! R27   R(14,15)                1.0851         estimate D2E/DX2                !
 ! R28   R(18,42)                1.0029         estimate D2E/DX2                !
 ! R29   R(19,41)                1.0905         estimate D2E/DX2                !
 ! R30   R(24,25)                1.3761         estimate D2E/DX2                !
 ! R31   R(24,26)                1.7585         estimate D2E/DX2                !
 ! R32   R(25,27)                1.4126         estimate D2E/DX2                !
 ! R33   R(25,28)                1.0836         estimate D2E/DX2                !
 ! R34   R(26,29)                1.7418         estimate D2E/DX2                !
 ! R35   R(27,29)                1.3968         estimate D2E/DX2                !
 ! R36   R(27,30)                1.3659         estimate D2E/DX2                !
 ! R37   R(29,31)                1.4372         estimate D2E/DX2                !
 ! R38   R(30,40)                1.006          estimate D2E/DX2                !
 ! R39   R(31,32)                1.393          estimate D2E/DX2                !
 ! R40   R(31,33)                1.7616         estimate D2E/DX2                !
 ! R41   R(32,34)                1.4207         estimate D2E/DX2                !
 ! R42   R(32,35)                1.3571         estimate D2E/DX2                !
 ! R43   R(33,36)                1.7226         estimate D2E/DX2                !
 ! R44   R(34,36)                1.3767         estimate D2E/DX2                !
 ! R45   R(34,37)                1.0763         estimate D2E/DX2                !
 ! R46   R(35,39)                1.0836         estimate D2E/DX2                !
 ! R47   R(36,38)                1.0825         estimate D2E/DX2                !
 ! A1    A(2,1,19)             116.527          estimate D2E/DX2                !
 ! A2    A(2,1,20)             123.2737         estimate D2E/DX2                !
 ! A3    A(19,1,20)            120.1979         estimate D2E/DX2                !
 ! A4    A(1,2,3)              120.7455         estimate D2E/DX2                !
 ! A5    A(1,2,6)              118.8843         estimate D2E/DX2                !
 ! A6    A(3,2,6)              120.3454         estimate D2E/DX2                !
 ! A7    A(2,3,4)              120.6259         estimate D2E/DX2                !
 ! A8    A(2,3,7)              118.5916         estimate D2E/DX2                !
 ! A9    A(4,3,7)              120.7824         estimate D2E/DX2                !
 ! A10   A(3,4,5)              120.1483         estimate D2E/DX2                !
 ! A11   A(3,4,14)             120.5934         estimate D2E/DX2                !
 ! A12   A(5,4,14)             119.2388         estimate D2E/DX2                !
 ! A13   A(4,5,19)             116.8914         estimate D2E/DX2                !
 ! A14   A(4,5,21)             121.8545         estimate D2E/DX2                !
 ! A15   A(19,5,21)            121.2488         estimate D2E/DX2                !
 ! A16   A(2,6,9)              123.0626         estimate D2E/DX2                !
 ! A17   A(2,6,17)             117.3337         estimate D2E/DX2                !
 ! A18   A(9,6,17)             119.5802         estimate D2E/DX2                !
 ! A19   A(3,7,8)              121.3176         estimate D2E/DX2                !
 ! A20   A(3,7,12)             117.2859         estimate D2E/DX2                !
 ! A21   A(8,7,12)             121.3945         estimate D2E/DX2                !
 ! A22   A(7,8,9)              119.3284         estimate D2E/DX2                !
 ! A23   A(7,8,10)             117.6762         estimate D2E/DX2                !
 ! A24   A(9,8,10)             122.8113         estimate D2E/DX2                !
 ! A25   A(6,9,8)              117.2994         estimate D2E/DX2                !
 ! A26   A(6,9,24)             115.0121         estimate D2E/DX2                !
 ! A27   A(8,9,24)             127.6498         estimate D2E/DX2                !
 ! A28   A(8,10,18)            118.0319         estimate D2E/DX2                !
 ! A29   A(8,10,23)            124.524          estimate D2E/DX2                !
 ! A30   A(18,10,23)           117.4428         estimate D2E/DX2                !
 ! A31   A(12,11,18)           115.0947         estimate D2E/DX2                !
 ! A32   A(12,11,22)           122.9128         estimate D2E/DX2                !
 ! A33   A(18,11,22)           121.9866         estimate D2E/DX2                !
 ! A34   A(7,12,11)            121.4411         estimate D2E/DX2                !
 ! A35   A(7,12,13)            120.9006         estimate D2E/DX2                !
 ! A36   A(11,12,13)           117.6548         estimate D2E/DX2                !
 ! A37   A(12,13,14)           120.7772         estimate D2E/DX2                !
 ! A38   A(12,13,16)           117.3846         estimate D2E/DX2                !
 ! A39   A(14,13,16)           121.8361         estimate D2E/DX2                !
 ! A40   A(4,14,13)            119.6408         estimate D2E/DX2                !
 ! A41   A(4,14,15)            119.2412         estimate D2E/DX2                !
 ! A42   A(13,14,15)           121.1172         estimate D2E/DX2                !
 ! A43   A(10,18,11)           126.0815         estimate D2E/DX2                !
 ! A44   A(10,18,42)           108.6957         estimate D2E/DX2                !
 ! A45   A(11,18,42)           119.3146         estimate D2E/DX2                !
 ! A46   A(1,19,5)             125.0576         estimate D2E/DX2                !
 ! A47   A(1,19,41)            120.4267         estimate D2E/DX2                !
 ! A48   A(5,19,41)            110.3085         estimate D2E/DX2                !
 ! A49   A(9,24,25)            130.7945         estimate D2E/DX2                !
 ! A50   A(9,24,26)            118.8099         estimate D2E/DX2                !
 ! A51   A(25,24,26)           110.1733         estimate D2E/DX2                !
 ! A52   A(24,25,27)           113.4784         estimate D2E/DX2                !
 ! A53   A(24,25,28)           123.439          estimate D2E/DX2                !
 ! A54   A(27,25,28)           123.0826         estimate D2E/DX2                !
 ! A55   A(24,26,29)            92.7117         estimate D2E/DX2                !
 ! A56   A(25,27,29)           114.178          estimate D2E/DX2                !
 ! A57   A(25,27,30)           126.3207         estimate D2E/DX2                !
 ! A58   A(29,27,30)           119.4943         estimate D2E/DX2                !
 ! A59   A(26,29,27)           109.4394         estimate D2E/DX2                !
 ! A60   A(26,29,31)           123.0471         estimate D2E/DX2                !
 ! A61   A(27,29,31)           127.5125         estimate D2E/DX2                !
 ! A62   A(27,30,40)           112.0387         estimate D2E/DX2                !
 ! A63   A(29,31,32)           127.61           estimate D2E/DX2                !
 ! A64   A(29,31,33)           123.1472         estimate D2E/DX2                !
 ! A65   A(32,31,33)           109.2388         estimate D2E/DX2                !
 ! A66   A(31,32,34)           114.2893         estimate D2E/DX2                !
 ! A67   A(31,32,35)           119.191          estimate D2E/DX2                !
 ! A68   A(34,32,35)           126.5186         estimate D2E/DX2                !
 ! A69   A(31,33,36)            92.0472         estimate D2E/DX2                !
 ! A70   A(32,34,36)           111.912          estimate D2E/DX2                !
 ! A71   A(32,34,37)           124.993          estimate D2E/DX2                !
 ! A72   A(36,34,37)           123.0927         estimate D2E/DX2                !
 ! A73   A(32,35,39)           120.4986         estimate D2E/DX2                !
 ! A74   A(33,36,34)           112.5112         estimate D2E/DX2                !
 ! A75   A(33,36,38)           120.0944         estimate D2E/DX2                !
 ! A76   A(34,36,38)           127.3935         estimate D2E/DX2                !
 ! D1    D(19,1,2,3)            -0.0402         estimate D2E/DX2                !
 ! D2    D(19,1,2,6)          -178.232          estimate D2E/DX2                !
 ! D3    D(20,1,2,3)          -179.6115         estimate D2E/DX2                !
 ! D4    D(20,1,2,6)             2.1967         estimate D2E/DX2                !
 ! D5    D(2,1,19,5)            -0.2714         estimate D2E/DX2                !
 ! D6    D(2,1,19,41)         -154.9401         estimate D2E/DX2                !
 ! D7    D(20,1,19,5)          179.3139         estimate D2E/DX2                !
 ! D8    D(20,1,19,41)          24.6452         estimate D2E/DX2                !
 ! D9    D(1,2,3,4)             -0.105          estimate D2E/DX2                !
 ! D10   D(1,2,3,7)           -179.9973         estimate D2E/DX2                !
 ! D11   D(6,2,3,4)            178.0603         estimate D2E/DX2                !
 ! D12   D(6,2,3,7)             -1.832          estimate D2E/DX2                !
 ! D13   D(1,2,6,9)            178.7655         estimate D2E/DX2                !
 ! D14   D(1,2,6,17)             0.5382         estimate D2E/DX2                !
 ! D15   D(3,2,6,9)              0.5662         estimate D2E/DX2                !
 ! D16   D(3,2,6,17)          -177.661          estimate D2E/DX2                !
 ! D17   D(2,3,4,5)              0.5238         estimate D2E/DX2                !
 ! D18   D(2,3,4,14)           178.9053         estimate D2E/DX2                !
 ! D19   D(7,3,4,5)           -179.5863         estimate D2E/DX2                !
 ! D20   D(7,3,4,14)            -1.2048         estimate D2E/DX2                !
 ! D21   D(2,3,7,8)              0.9439         estimate D2E/DX2                !
 ! D22   D(2,3,7,12)          -178.5478         estimate D2E/DX2                !
 ! D23   D(4,3,7,8)           -178.9482         estimate D2E/DX2                !
 ! D24   D(4,3,7,12)             1.56           estimate D2E/DX2                !
 ! D25   D(3,4,5,19)            -0.7863         estimate D2E/DX2                !
 ! D26   D(3,4,5,21)          -179.9543         estimate D2E/DX2                !
 ! D27   D(14,4,5,19)         -179.1897         estimate D2E/DX2                !
 ! D28   D(14,4,5,21)            1.6423         estimate D2E/DX2                !
 ! D29   D(3,4,14,13)            0.6262         estimate D2E/DX2                !
 ! D30   D(3,4,14,15)         -179.7176         estimate D2E/DX2                !
 ! D31   D(5,4,14,13)          179.0223         estimate D2E/DX2                !
 ! D32   D(5,4,14,15)           -1.3214         estimate D2E/DX2                !
 ! D33   D(4,5,19,1)             0.6724         estimate D2E/DX2                !
 ! D34   D(4,5,19,41)          157.5074         estimate D2E/DX2                !
 ! D35   D(21,5,19,1)          179.8457         estimate D2E/DX2                !
 ! D36   D(21,5,19,41)         -23.3193         estimate D2E/DX2                !
 ! D37   D(2,6,9,8)              1.5899         estimate D2E/DX2                !
 ! D38   D(2,6,9,24)          -176.322          estimate D2E/DX2                !
 ! D39   D(17,6,9,8)           179.779          estimate D2E/DX2                !
 ! D40   D(17,6,9,24)            1.8672         estimate D2E/DX2                !
 ! D41   D(3,7,8,9)              1.2142         estimate D2E/DX2                !
 ! D42   D(3,7,8,10)          -173.9942         estimate D2E/DX2                !
 ! D43   D(12,7,8,9)          -179.3149         estimate D2E/DX2                !
 ! D44   D(12,7,8,10)            5.4766         estimate D2E/DX2                !
 ! D45   D(3,7,12,11)          177.9024         estimate D2E/DX2                !
 ! D46   D(3,7,12,13)           -1.4077         estimate D2E/DX2                !
 ! D47   D(8,7,12,11)           -1.5889         estimate D2E/DX2                !
 ! D48   D(8,7,12,13)          179.1009         estimate D2E/DX2                !
 ! D49   D(7,8,9,6)             -2.414          estimate D2E/DX2                !
 ! D50   D(7,8,9,24)           175.1958         estimate D2E/DX2                !
 ! D51   D(10,8,9,6)           172.5365         estimate D2E/DX2                !
 ! D52   D(10,8,9,24)           -9.8537         estimate D2E/DX2                !
 ! D53   D(7,8,10,18)           -5.2348         estimate D2E/DX2                !
 ! D54   D(7,8,10,23)          174.3306         estimate D2E/DX2                !
 ! D55   D(9,8,10,18)          179.736          estimate D2E/DX2                !
 ! D56   D(9,8,10,23)           -0.6986         estimate D2E/DX2                !
 ! D57   D(6,9,24,25)         -172.3328         estimate D2E/DX2                !
 ! D58   D(6,9,24,26)           13.6701         estimate D2E/DX2                !
 ! D59   D(8,9,24,25)           10.011          Frozen                          !
 ! D60   D(8,9,24,26)         -163.9861         estimate D2E/DX2                !
 ! D61   D(8,10,18,11)           1.0927         estimate D2E/DX2                !
 ! D62   D(8,10,18,42)        -151.3012         estimate D2E/DX2                !
 ! D63   D(23,10,18,11)       -178.5038         estimate D2E/DX2                !
 ! D64   D(23,10,18,42)         29.1023         estimate D2E/DX2                !
 ! D65   D(18,11,12,7)          -2.5592         estimate D2E/DX2                !
 ! D66   D(18,11,12,13)        176.7725         estimate D2E/DX2                !
 ! D67   D(22,11,12,7)         178.3061         estimate D2E/DX2                !
 ! D68   D(22,11,12,13)         -2.3622         estimate D2E/DX2                !
 ! D69   D(12,11,18,10)          2.7627         estimate D2E/DX2                !
 ! D70   D(12,11,18,42)        152.5373         estimate D2E/DX2                !
 ! D71   D(22,11,18,10)       -178.0937         estimate D2E/DX2                !
 ! D72   D(22,11,18,42)        -28.3191         estimate D2E/DX2                !
 ! D73   D(7,12,13,14)           0.8911         estimate D2E/DX2                !
 ! D74   D(7,12,13,16)        -179.6245         estimate D2E/DX2                !
 ! D75   D(11,12,13,14)       -178.4444         estimate D2E/DX2                !
 ! D76   D(11,12,13,16)          1.04           estimate D2E/DX2                !
 ! D77   D(12,13,14,4)          -0.4717         estimate D2E/DX2                !
 ! D78   D(12,13,14,15)        179.8786         estimate D2E/DX2                !
 ! D79   D(16,13,14,4)        -179.9328         estimate D2E/DX2                !
 ! D80   D(16,13,14,15)          0.4175         estimate D2E/DX2                !
 ! D81   D(9,24,25,27)        -174.1968         estimate D2E/DX2                !
 ! D82   D(9,24,25,28)           5.7871         estimate D2E/DX2                !
 ! D83   D(26,24,25,27)          0.2009         estimate D2E/DX2                !
 ! D84   D(26,24,25,28)       -179.8152         estimate D2E/DX2                !
 ! D85   D(9,24,26,29)         175.7233         estimate D2E/DX2                !
 ! D86   D(25,24,26,29)          0.5618         estimate D2E/DX2                !
 ! D87   D(24,25,27,29)         -1.1342         estimate D2E/DX2                !
 ! D88   D(24,25,27,30)        179.8422         estimate D2E/DX2                !
 ! D89   D(28,25,27,29)        178.8819         estimate D2E/DX2                !
 ! D90   D(28,25,27,30)         -0.1417         estimate D2E/DX2                !
 ! D91   D(24,26,29,27)         -1.1645         estimate D2E/DX2                !
 ! D92   D(24,26,29,31)        178.5065         estimate D2E/DX2                !
 ! D93   D(25,27,29,26)          1.5079         estimate D2E/DX2                !
 ! D94   D(25,27,29,31)       -178.1445         estimate D2E/DX2                !
 ! D95   D(30,27,29,26)       -179.3959         estimate D2E/DX2                !
 ! D96   D(30,27,29,31)          0.9517         estimate D2E/DX2                !
 ! D97   D(25,27,30,40)         16.038          estimate D2E/DX2                !
 ! D98   D(29,27,30,40)       -162.9386         estimate D2E/DX2                !
 ! D99   D(26,29,31,32)          2.0101         estimate D2E/DX2                !
 ! D100  D(26,29,31,33)       -177.1884         estimate D2E/DX2                !
 ! D101  D(27,29,31,32)       -178.381          estimate D2E/DX2                !
 ! D102  D(27,29,31,33)          2.4204         estimate D2E/DX2                !
 ! D103  D(29,31,32,34)       -179.2765         estimate D2E/DX2                !
 ! D104  D(29,31,32,35)          0.3712         estimate D2E/DX2                !
 ! D105  D(33,31,32,34)          0.0128         estimate D2E/DX2                !
 ! D106  D(33,31,32,35)        179.6605         estimate D2E/DX2                !
 ! D107  D(29,31,33,36)        179.5109         estimate D2E/DX2                !
 ! D108  D(32,31,33,36)          0.1833         estimate D2E/DX2                !
 ! D109  D(31,32,34,36)         -0.27           estimate D2E/DX2                !
 ! D110  D(31,32,34,37)       -179.7361         estimate D2E/DX2                !
 ! D111  D(35,32,34,36)       -179.8873         estimate D2E/DX2                !
 ! D112  D(35,32,34,37)          0.6467         estimate D2E/DX2                !
 ! D113  D(31,32,35,39)        163.6978         estimate D2E/DX2                !
 ! D114  D(34,32,35,39)        -16.7018         estimate D2E/DX2                !
 ! D115  D(31,33,36,34)         -0.3436         estimate D2E/DX2                !
 ! D116  D(31,33,36,38)        179.9849         estimate D2E/DX2                !
 ! D117  D(32,34,36,33)          0.4079         estimate D2E/DX2                !
 ! D118  D(32,34,36,38)       -179.9498         estimate D2E/DX2                !
 ! D119  D(37,34,36,33)        179.8858         estimate D2E/DX2                !
 ! D120  D(37,34,36,38)         -0.472          estimate D2E/DX2                !
 --------------------------------------------------------------------------------
 Trust Radius=3.00D-01 FncErr=1.00D-07 GrdErr=1.00D-06 EigMax=2.50D+02 EigMin=1.00D-04
 Number of steps in this run=    252 maximum allowed number of steps=    252.
 GradGradGradGradGradGradGradGradGradGradGradGradGradGradGradGradGradGrad

                          Input orientation:                          
 ---------------------------------------------------------------------
 Center     Atomic      Atomic             Coordinates (Angstroms)
 Number     Number       Type             X           Y           Z
 ---------------------------------------------------------------------
      1          6           0       -2.560000   -2.990000   -0.410000
      2          6           0       -2.260000   -1.550000   -0.220000
      3          6           0       -3.300000   -0.610000   -0.080000
      4          6           0       -4.650000   -1.020000   -0.120000
      5          6           0       -4.990000   -2.460000   -0.300000
      6          6           0       -0.950000   -1.140000   -0.220000
      7          6           0       -2.960000    0.760000    0.100000
      8          6           0       -1.600000    1.190000    0.120000
      9          6           0       -0.560000    0.230000   -0.070000
     10          6           0       -1.330000    2.620000    0.450000
     11          6           0       -3.780000    3.120000    0.510000
     12          6           0       -4.030000    1.680000    0.270000
     13          6           0       -5.360000    1.250000    0.230000
     14          6           0       -5.670000   -0.100000    0.040000
     15          1           0       -6.700000   -0.440000    0.010000
     16          1           0       -6.130000    2.000000    0.360000
     17          1           0       -0.190000   -1.900000   -0.370000
     18          7           0       -2.430000    3.480000    0.610000
     19          7           0       -3.920000   -3.350000   -0.440000
     20          8           0       -1.690000   -3.850000   -0.530000
     21          8           0       -6.150000   -2.850000   -0.340000
     22          8           0       -4.680000    3.940000    0.630000
     23          8           0       -0.210000    3.100000    0.600000
     24          6           0        0.880000    0.480000   -0.180000
     25          6           0        1.614000    1.622000    0.045000
     26         16           0        1.913000   -0.787000   -0.828000
     27          6           0        2.978000    1.491000   -0.298000
     28          1           0        1.190000    2.535000    0.446000
     29          6           0        3.329000    0.226000   -0.775000
     30          8           0        3.937000    2.457000   -0.185000
     31          6           0        4.634000   -0.230000   -1.168000
     32          6           0        4.981000   -1.481000   -1.673000
     33         16           0        6.080000    0.769000   -1.048000
     34          6           0        6.365000   -1.634000   -1.955000
     35          8           0        4.014000   -2.418000   -1.842000
     36          6           0        7.077000   -0.491000   -1.669000
     37          1           0        6.819000   -2.525000   -2.353000
     38          1           0        8.141000   -0.332000   -1.789000
     39          1           0        4.193000   -3.287000   -2.464000
     40          1           0        3.643000    3.213000    0.410000
     41          1           0       -4.230000   -4.360000   -0.170000
     42          1           0       -2.150000    4.410000    0.360000
 ---------------------------------------------------------------------
                    Distance matrix (angstroms):
                    1          2          3          4          5
     1  C    0.000000
     2  C    1.483139   0.000000
     3  C    2.514140   1.408829   0.000000
     4  C    2.886711   2.450102   1.411453   0.000000
     5  C    2.489558   2.878784   2.515353   1.490503   0.000000
     6  C    2.459817   1.372662   2.413089   3.703296   4.250929
     7  C    3.805601   2.434851   1.422990   2.464325   3.827440
     8  C    4.321447   2.838803   2.483948   3.774149   4.999100
     9  C    3.805785   2.465948   2.865886   4.277043   5.187861
    10  C    5.807289   4.324662   3.820301   4.959526   6.305910
    11  C    6.298166   4.965098   3.806757   4.277078   5.766854
    12  C    4.942894   3.715629   2.428889   2.797588   4.287902
    13  C    5.121250   4.201488   2.792723   2.404059   3.765886
    14  C    4.269274   3.714593   2.427221   1.382896   2.479435
    15  H    4.880420   4.582423   3.405437   2.134432   2.664695
    16  H    6.183680   5.283540   3.874868   3.397234   4.650462
    17  H    2.608946   2.104733   3.379393   4.552856   4.833063
    18  N    6.551198   5.100853   4.238054   5.070631   6.531868
    19  N    1.407160   2.458455   2.832243   2.462560   1.398785
    20  O    1.229187   2.389770   3.645847   4.115653   3.588175
    21  O    3.593411   4.103230   3.634240   2.376405   1.224459
    22  O    7.321264   6.059620   4.807390   5.016473   6.474643
    23  O    6.605354   5.147563   4.875920   6.099705   7.387286
    24  C    4.891564   3.739265   4.320937   5.730140   6.566194
    25  C    6.236974   5.013949   5.398597   6.800374   7.771394
    26  S    5.003565   4.285529   5.269364   6.605189   7.122438
    27  C    7.124700   6.057261   6.623821   8.032633   8.893786
    28  H    6.732077   5.388254   5.507068   6.860319   7.981162
    29  C    6.719836   5.890596   6.717556   8.102221   8.754769
    30  O    8.481241   7.379708   7.860769   9.264466  10.192225
    31  C    7.742467   7.082961   8.017263   9.376303   9.917041
    32  C    7.793519   7.385665   8.477691   9.766294  10.112587
    33  S    9.443872   8.695915   9.530114  10.917628  11.555555
    34  C    9.158678   8.798176   9.898304  11.183669  11.504665
    35  O    6.752428   6.538148   7.737448   8.943410   9.135182
    36  C   10.035031   9.507926  10.498629  11.840683  12.302992
    37  H    9.589427   9.377023  10.546465  11.780886  11.986305
    38  H   11.112066  10.588961  11.571277  12.917762  13.385390
    39  H    7.064710   7.049391   8.306313   9.425087   9.470708
    40  H    8.810608   7.611076   7.941075   9.325934  10.354502
    41  H    2.173338   3.432128   3.864647   3.366675   2.050488
    42  H    7.451242   5.989165   5.168801   5.997108   7.463116
                    6          7          8          9         10
     6  C    0.000000
     7  C    2.784331   0.000000
     8  C    2.442744   1.426499   0.000000
     9  C    1.432306   2.463696   1.428041   0.000000
    10  C    3.838085   2.497799   1.492213   2.564254   0.000000
    11  C    5.166178   2.531818   2.937584   4.365421   2.501220
    12  C    4.204628   1.421337   2.483445   3.776109   2.864612
    13  C    5.036139   2.452957   3.762087   4.916340   4.262183
    14  C    4.840207   2.843818   4.270293   5.121826   5.138297
    15  H    5.797016   3.928829   5.355278   6.176965   6.196297
    16  H    6.085097   3.413810   4.608102   5.860264   4.840713
    17  H    1.085219   3.869031   3.431661   2.182613   4.733117
    18  N    4.921758   2.817694   2.484572   3.810748   1.405418
    19  N    3.708558   4.255032   5.129093   4.923708   6.568188
    20  O    2.826270   4.823059   5.082539   4.258509   6.553694
    21  O    5.475263   4.837541   6.102106   6.388067   7.333308
    22  O    6.359387   3.653998   4.160409   5.588247   3.605177
    23  O    4.381507   3.645285   2.410519   2.967878   1.227721
    24  C    2.444361   3.860363   2.597018   1.465674   3.140159
    25  C    3.777958   4.654841   3.243770   2.584021   3.134831
    26  S    2.948057   5.196203   4.141063   2.779313   4.874216
    27  C    4.728364   5.996049   4.606887   3.762918   4.515862
    28  H    4.304507   4.526902   3.114386   2.939691   2.521436
    29  C    4.525906   6.371994   5.101506   3.952387   5.379418
    30  O    6.068147   7.108421   5.688294   5.019538   5.307644
    31  C    5.736537   7.762523   6.522124   5.328681   6.805125
    32  C    6.115901   8.439496   7.325207   6.016628   7.820106
    33  S    7.331491   9.112606   7.779709   6.733246   7.783207
    34  C    7.534155   9.844282   8.701829   7.415076   9.115567
    35  O    5.376380   7.906183   6.955868   5.574349   7.693702
    36  C    8.182514  10.268190   9.017572   7.835841   9.211196
    37  H    8.174673  10.603644   9.528721   8.200717  10.036635
    38  H    9.260718  11.313399  10.042303   8.886968  10.169920
    39  H    6.007961   8.609165   7.763983   6.378992   8.595788
    40  H    6.359336   7.050739   5.627226   5.176282   5.008391
    41  H    4.596662   5.282064   6.148455   5.877670   7.583851
    42  H    5.707793   3.747826   3.275439   4.492816   1.970939
                   11         12         13         14         15
    11  C    0.000000
    12  C    1.481114   0.000000
    13  C    2.464082   1.398356   0.000000
    14  C    3.763164   2.431234   1.398106   0.000000
    15  H    4.631414   3.419196   2.167971   1.085081   0.000000
    16  H    2.607566   2.126147   1.082728   2.173476   2.530020
    17  H    6.234012   5.288818   6.083700   5.782603   6.682522
    18  N    1.400750   2.432201   3.701648   4.861985   5.827461
    19  N    6.540872   5.081053   4.866467   3.722284   4.049568
    20  O    7.350551   6.057764   6.329020   5.497981   6.084390
    21  O    6.479221   5.038591   4.214143   2.817321   2.496618
    22  O    1.223438   2.379012   2.803302   4.201167   4.863044
    23  O    3.571190   4.088728   5.484697   6.353361   7.416185
    24  C    5.400120   5.074505   6.300683   6.579308   7.637991
    25  C    5.617425   5.648781   6.986364   7.484782   8.565960
    26  S    7.033146   6.527706   7.626615   7.663373   8.660625
    27  C    6.998362   7.033520   8.358176   8.799627   9.873566
    28  H    5.004720   5.292485   6.678352   7.359868   8.443508
    29  C    7.782310   7.573706   8.806663   9.041709  10.081697
    30  O    7.776547   8.017721   9.384204   9.944009  11.026169
    31  C    9.210515   8.987816  10.199257  10.375383  11.396988
    32  C   10.133598   9.745014  10.863519  10.875906  11.847444
    33  S   10.255446  10.236168  11.521208  11.832219  12.880584
    34  C   11.471607  11.135046  12.270587  12.295300  13.265786
    35  O    9.846207   9.271466  10.277124  10.133849  11.051343
    36  C   11.647395  11.482091  12.701033  12.866995  13.879026
    37  H   12.345104  11.927404  13.009633  12.945354  13.881439
    38  H   12.621884  12.506833  13.742492  13.933513  14.950028
    39  H   10.651904   9.988172  10.913378  10.663290  11.527512
    40  H    7.424256   7.825894   9.216278   9.891655  10.976432
    41  H    7.524314   6.059307   5.736637   4.501700   4.636777
    42  H    2.084107   3.315931   4.506285   5.730000   6.659392
                   16         17         18         19         20
    16  H    0.000000
    17  H    7.143284   0.000000
    18  N    3.992856   5.909518   0.000000
    19  N    5.843509   4.002537   7.069052   0.000000
    20  O    7.397851   2.465380   7.454938   2.287138   0.000000
    21  O    4.900296   6.035313   7.403364   2.287553   4.574680
    22  O    2.437006   7.434090   2.296628   7.407199   8.424358
    23  O    6.026110   5.093260   2.252310   7.513202   7.195123
    24  C    7.193198   2.616372   4.536541   6.146259   5.047405
    25  C    7.759616   3.978835   4.486126   7.455278   6.417930
    26  S    8.594682   2.423044   6.255940   6.383056   4.738394
    27  C    9.145912   4.641152   5.833271   8.428395   7.097206
    28  H    7.340029   4.715875   3.744906   7.844127   7.072143
    29  C    9.690613   4.131254   6.758167   8.089994   6.470252
    30  O   10.092094   6.004149   6.497480   9.773368   8.459338
    31  C   11.098260   5.166883   8.174685   9.134293   7.314672
    32  C   11.819677   5.349076   9.205788   9.178303   7.170833
    33  S   12.352406   6.848076   9.083974  10.832166   9.054081
    34  C   13.217042   6.749149  10.492104  10.536655   8.474922
    35  O   11.281324   4.484275   9.073249   8.110646   6.025577
    36  C   13.592158   7.515449  10.552049  11.428838   9.457298
    37  H   13.982582   7.310882  11.418555  10.939210   8.802388
    38  H   14.619093   8.595216  11.490543  12.505832  10.517127
    39  H   11.936988   5.051662   9.955194   8.361897   6.218281
    40  H    9.848116   6.437628   6.082156  10.049599   8.900026
    41  H    6.658866   4.734258   8.081708   1.090459   2.615588
    42  H    4.652795   6.647601   1.002896   7.999406   8.320535
                   21         22         23         24         25
    21  O    0.000000
    22  O    7.014692   0.000000
    23  O    8.459888   4.548340   0.000000
    24  C    7.780450   6.598583   2.942941   0.000000
    25  C    8.968094   6.732740   2.412361   1.376061   0.000000
    26  S    8.337031   8.242448   4.653502   1.758489   2.579692
    27  C   10.107741   8.093439   3.682204   2.331877   1.412553
    28  H    9.137375   6.038608   1.517544   2.170484   1.083580
    29  C    9.975091   8.939346   4.761830   2.533010   2.358483
    30  O   11.398940   8.781583   4.269342   3.640577   2.479204
    31  C   11.128551  10.362061   6.138327   3.946234   3.744552
    32  C   11.293813  11.314856   7.286877   4.784639   4.890483
    33  S   12.773853  11.342333   6.907501   5.279862   4.676261
    34  C   12.677228  12.638976   8.495258   6.140427   6.097010
    35  O   10.283459  11.050818   7.365722   4.580677   5.063829
    36  C   13.501283  12.772870   8.434691   6.446919   6.103027
    37  H   13.128319  13.524848   9.474580   7.001691   7.073898
    38  H   14.583299  13.728787   9.339440   7.481333   7.055735
    39  H   10.567876  11.854640   8.340760   5.512070   6.086428
    40  H   11.542327   8.357587   3.859336   3.930847   2.604102
    41  H    2.448551   8.350599   8.509107   7.038309   8.365577
    42  H    8.318509   2.587412   2.353147   4.991733   4.694663
                   26         27         28         29         30
    26  S    0.000000
    27  C    2.569904   0.000000
    28  H    3.630632   2.200095   0.000000
    29  C    1.741848   1.396766   3.376040   0.000000
    30  O    3.877314   1.365872   2.819619   2.386446   0.000000
    31  C    2.798158   2.541865   4.702271   1.437153   2.944837
    32  C    3.257036   3.838674   5.915243   2.539558   4.337271
    33  S    4.453473   3.272031   5.409519   2.817335   2.861217
    34  C    4.669887   4.897249   7.065832   3.750906   5.075861
    35  O    2.846499   4.328685   6.143462   2.932311   5.149486
    36  C    5.240400   4.754973   6.948861   3.919289   4.555498
    37  H    5.423569   5.924910   8.069922   4.715738   6.150323
    38  H    6.318111   5.674767   7.844190   4.949233   5.293860
    39  H    3.758310   5.384892   7.168109   3.992541   6.184894
    40  H    4.530513   1.977062   2.545229   3.228775   1.005981
    41  H    7.136928   9.284710   8.791864   8.862048  10.638214
    42  H    6.702844   5.937163   3.831269   6.986667   6.415824
                   31         32         33         34         35
    31  C    0.000000
    32  C    1.392995   0.000000
    33  S    1.761623   2.580877   0.000000
    34  C    2.363672   1.420700   2.584237   0.000000
    35  O    2.371923   1.357063   3.880175   2.480852   0.000000
    36  C    2.507463   2.318045   1.722571   1.376659   3.622876
    37  H    3.383116   2.220491   3.619334   1.076290   2.853173
    38  H    3.563018   3.364410   2.451327   2.208379   4.624536
    39  H    3.349529   2.123267   4.692223   2.776522   1.083552
    40  H    3.914896   5.306861   3.746714   6.041185   6.075961
    41  H    9.829720   9.766789  11.548750  11.084734   8.633104
    42  H    8.359847   9.470382   9.108910  10.695531   9.458609
                   36         37         38         39         40
    36  C    0.000000
    37  H    2.161383   0.000000
    38  H    1.082486   2.622028   0.000000
    39  H    4.094765   2.736575   4.977384   0.000000
    40  H    5.462070   7.116585   6.134707   7.128280   0.000000
    41  H   12.044269  11.411096  13.110591   8.795493  10.939418
    42  H   10.643034  11.657511  11.532972  10.365927   5.915586
                   41         42
    41  H    0.000000
    42  H    9.028854   0.000000
 Stoichiometry    C22H10N2O6S2
 Framework group  C1[X(C22H10N2O6S2)]
 Deg. of freedom   120
 Full point group                 C1      NOp   1
 Largest Abelian subgroup         C1      NOp   1
 Largest concise Abelian subgroup C1      NOp   1
                         Standard orientation:                         
 ---------------------------------------------------------------------
 Center     Atomic      Atomic             Coordinates (Angstroms)
 Number     Number       Type             X           Y           Z
 ---------------------------------------------------------------------
      1          6           0        2.421454   -3.048281   -0.266286
      2          6           0        2.157058   -1.590279   -0.202846
      3          6           0        3.211544   -0.674447   -0.018159
      4          6           0        4.542151   -1.126769    0.112568
      5          6           0        4.847518   -2.584070    0.044553
      6          6           0        0.860811   -1.147084   -0.289572
      7          6           0        2.905797    0.714255    0.035926
      8          6           0        1.562742    1.182561   -0.072675
      9          6           0        0.501536    0.237301   -0.212765
     10          6           0        1.346537    2.657334   -0.143386
     11          6           0        3.785651    3.081686    0.212629
     12          6           0        3.993877    1.615436    0.191341
     13          6           0        5.304551    1.144147    0.315518
     14          6           0        5.579349   -0.225973    0.271274
     15          1           0        6.594473   -0.597617    0.365101
     16          1           0        6.089054    1.880351    0.437416
     17          1           0        0.083521   -1.897335   -0.392744
     18          7           0        2.462704    3.496803    0.013659
     19          7           0        3.763567   -3.449955   -0.134038
     20          8           0        1.538552   -3.887157   -0.432639
     21          8           0        5.989904   -3.010787    0.154847
     22          8           0        4.698071    3.880414    0.374876
     23          8           0        0.258832    3.192608   -0.337499
     24          6           0       -0.938983    0.506186   -0.241168
     25          6           0       -1.630559    1.692750   -0.326803
     26         16           0       -2.055474   -0.830176    0.003508
     27          6           0       -3.028626    1.540061   -0.194896
     28          1           0       -1.152297    2.652894   -0.480210
     29          6           0       -3.446496    0.217717   -0.028325
     30          8           0       -3.958991    2.539244   -0.235655
     31          6           0       -4.794464   -0.265160    0.095060
     32          6           0       -5.211994   -1.579414    0.292134
     33         16           0       -6.206441    0.783130   -0.008507
     34          6           0       -6.621941   -1.741041    0.357829
     35          8           0       -4.280946   -2.561438    0.394098
     36          6           0       -7.283641   -0.542202    0.215956
     37          1           0       -7.129423   -2.678088    0.508845
     38          1           0       -8.353284   -0.376345    0.227471
     39          1           0       -4.545341   -3.529647    0.802452
     40          1           0       -3.584793    3.387773   -0.625490
     41          1           0        4.101034   -4.396462   -0.557525
     42          1           0        2.157182    4.367895    0.405648
 ---------------------------------------------------------------------
 Rotational constants (GHZ):           0.2345991           0.0671777           0.0525029
 Standard basis: 6-311+G(d,p) (5D, 7F)
 There are   812 symmetry adapted cartesian basis functions of A   symmetry.
 There are   780 symmetry adapted basis functions of A   symmetry.
   780 basis functions,  1260 primitive gaussians,   812 cartesian basis functions
   118 alpha electrons      118 beta electrons
       nuclear repulsion energy      3323.6341213578 Hartrees.
 NAtoms=   42 NActive=   42 NUniq=   42 SFac= 1.00D+00 NAtFMM=   60 NAOKFM=F Big=F
 Integral buffers will be    131072 words long.
 Raffenetti 2 integral format.
 Two-electron integral symmetry is turned on.
 Nuclear repulsion after empirical dispersion term =     3323.6037241074 Hartrees.
 One-electron integrals computed using PRISM.
 NBasis=   780 RedAO= T EigKep=  1.66D-06  NBF=   780
 NBsUse=   768 1.00D-06 EigRej=  7.13D-07 NBFU=   768
 ExpMin= 4.05D-02 ExpMax= 9.34D+04 ExpMxC= 3.17D+03 IAcc=3 IRadAn=         5 AccDes= 0.00D+00
 Harris functional with IExCor= 4639 and IRadAn=       5 diagonalized for initial guess.
 HarFok:  IExCor= 4639 AccDes= 0.00D+00 IRadAn=         5 IDoV= 1 UseB2=F ITyADJ=14
 ICtDFT=  3500011 ScaDFX=  1.000000  1.000000  1.000000  1.000000
 FoFCou: FMM=F IPFlag=           0 FMFlag=      100000 FMFlg1=           0
         NFxFlg=           0 DoJE=T BraDBF=F KetDBF=T FulRan=T
         wScrn=  0.000000 ICntrl=       500 IOpCl=  0 I1Cent=   200000004 NGrid=           0
         NMat0=    1 NMatS0=      1 NMatT0=    0 NMatD0=    1 NMtDS0=    0 NMtDT0=    0
 Petite list used in FoFCou.
 Requested convergence on RMS density matrix=1.00D-08 within 128 cycles.
 Requested convergence on MAX density matrix=1.00D-06.
 Requested convergence on             energy=1.00D-06.
 No special actions if energy rises.
 SCF Done:  E(RwB97XD) =  -2201.51018689     A.U. after   19 cycles
            NFock= 19  Conv=0.68D-08     -V/T= 2.0031

 **********************************************************************

            Population analysis using the SCF Density.

 **********************************************************************

 Orbital symmetries:
       Occupied  (A) (A) (A) (A) (A) (A) (A) (A) (A) (A) (A) (A)
                 (A) (A) (A) (A) (A) (A) (A) (A) (A) (A) (A) (A)
                 (A) (A) (A) (A) (A) (A) (A) (A) (A) (A) (A) (A)
                 (A) (A) (A) (A) (A) (A) (A) (A) (A) (A) (A) (A)
                 (A) (A) (A) (A) (A) (A) (A) (A) (A) (A) (A) (A)
                 (A) (A) (A) (A) (A) (A) (A) (A) (A) (A) (A) (A)
                 (A) (A) (A) (A) (A) (A) (A) (A) (A) (A) (A) (A)
                 (A) (A) (A) (A) (A) (A) (A) (A) (A) (A) (A) (A)
                 (A) (A) (A) (A) (A) (A) (A) (A) (A) (A) (A) (A)
                 (A) (A) (A) (A) (A) (A) (A) (A) (A) (A)
       Virtual   (A) (A) (A) (A) (A) (A) (A) (A) (A) (A) (A) (A)
                 (A) (A) (A) (A) (A) (A) (A) (A) (A) (A) (A) (A)
                 (A) (A) (A) (A) (A) (A) (A) (A) (A) (A) (A) (A)
                 (A) (A) (A) (A) (A) (A) (A) (A) (A) (A) (A) (A)
                 (A) (A) (A) (A) (A) (A) (A) (A) (A) (A) (A) (A)
                 (A) (A) (A) (A) (A) (A) (A) (A) (A) (A) (A) (A)
                 (A) (A) (A) (A) (A) (A) (A) (A) (A) (A) (A) (A)
                 (A) (A) (A) (A) (A) (A) (A) (A) (A) (A) (A) (A)
                 (A) (A) (A) (A) (A) (A) (A) (A) (A) (A) (A) (A)
                 (A) (A) (A) (A) (A) (A) (A) (A) (A) (A) (A) (A)
                 (A) (A) (A) (A) (A) (A) (A) (A) (A) (A) (A) (A)
                 (A) (A) (A) (A) (A) (A) (A) (A) (A) (A) (A) (A)
                 (A) (A) (A) (A) (A) (A) (A) (A) (A) (A) (A) (A)
                 (A) (A) (A) (A) (A) (A) (A) (A) (A) (A) (A) (A)
                 (A) (A) (A) (A) (A) (A) (A) (A) (A) (A) (A) (A)
                 (A) (A) (A) (A) (A) (A) (A) (A) (A) (A) (A) (A)
                 (A) (A) (A) (A) (A) (A) (A) (A) (A) (A) (A) (A)
                 (A) (A) (A) (A) (A) (A) (A) (A) (A) (A) (A) (A)
                 (A) (A) (A) (A) (A) (A) (A) (A) (A) (A) (A) (A)
                 (A) (A) (A) (A) (A) (A) (A) (A) (A) (A) (A) (A)
                 (A) (A) (A) (A) (A) (A) (A) (A) (A) (A) (A) (A)
                 (A) (A) (A) (A) (A) (A) (A) (A) (A) (A) (A) (A)
                 (A) (A) (A) (A) (A) (A) (A) (A) (A) (A) (A) (A)
                 (A) (A) (A) (A) (A) (A) (A) (A) (A) (A) (A) (A)
                 (A) (A) (A) (A) (A) (A) (A) (A) (A) (A) (A) (A)
                 (A) (A) (A) (A) (A) (A) (A) (A) (A) (A) (A) (A)
                 (A) (A) (A) (A) (A) (A) (A) (A) (A) (A) (A) (A)
                 (A) (A) (A) (A) (A) (A) (A) (A) (A) (A) (A) (A)
                 (A) (A) (A) (A) (A) (A) (A) (A) (A) (A) (A) (A)
                 (A) (A) (A) (A) (A) (A) (A) (A) (A) (A) (A) (A)
                 (A) (A) (A) (A) (A) (A) (A) (A) (A) (A) (A) (A)
                 (A) (A) (A) (A) (A) (A) (A) (A) (A) (A) (A) (A)
                 (A) (A) (A) (A) (A) (A) (A) (A) (A) (A) (A) (A)
                 (A) (A) (A) (A) (A) (A) (A) (A) (A) (A) (A) (A)
                 (A) (A) (A) (A) (A) (A) (A) (A) (A) (A) (A) (A)
                 (A) (A) (A) (A) (A) (A) (A) (A) (A) (A) (A) (A)
                 (A) (A) (A) (A) (A) (A) (A) (A) (A) (A) (A) (A)
                 (A) (A) (A) (A) (A) (A) (A) (A) (A) (A) (A) (A)
                 (A) (A) (A) (A) (A) (A) (A) (A) (A) (A) (A) (A)
                 (A) (A) (A) (A) (A) (A) (A) (A) (A) (A) (A) (A)
                 (A) (A) (A) (A) (A) (A) (A) (A) (A) (A) (A) (A)
                 (A) (A) (A) (A) (A) (A) (A) (A) (A) (A) (A) (A)
                 (A) (A) (A) (A) (A) (A) (A) (A) (A) (A) (A) (A)
                 (A) (A) (A) (A) (A) (A) (A) (A) (A) (A) (A) (A)
                 (A) (A) (A) (A) (A) (A) (A) (A) (A) (A) (A) (A)
                 (A) (A) (A) (A) (A) (A) (A) (A) (A) (A) (A) (A)
                 (A) (A) (A) (A) (A) (A) (A) (A) (A) (A) (A) (A)
                 (A) (A) (A) (A) (A) (A) (A) (A) (A) (A) (A) (A)
                 (A) (A) (A) (A) (A) (A) (A) (A) (A) (A) (A) (A)
                 (A) (A) (A) (A) (A) (A) (A) (A) (A) (A) (A) (A)
                 (A) (A) (A) (A) (A) (A) (A) (A) (A) (A) (A) (A)
                 (A) (A) (A) (A) (A) (A) (A) (A) (A) (A) (A) (A)
                 (A) (A) (A) (A) (A) (A) (A) (A) (A) (A) (A) (A)
                 (A) (A) (A) (A) (A) (A) (A) (A) (A) (A) (A) (A)
                 (A) (A)
 The electronic state is 1-A.
 Alpha  occ. eigenvalues --  -89.05400 -89.05353 -19.30421 -19.29526 -19.25984
 Alpha  occ. eigenvalues --  -19.25853 -19.25695 -19.25389 -14.51218 -14.50414
 Alpha  occ. eigenvalues --  -10.44518 -10.44096 -10.43624 -10.43459 -10.36904
 Alpha  occ. eigenvalues --  -10.36853 -10.35782 -10.35516 -10.35134 -10.34872
 Alpha  occ. eigenvalues --  -10.34821 -10.34561 -10.34378 -10.34238 -10.33869
 Alpha  occ. eigenvalues --  -10.33865 -10.33412 -10.33363 -10.33141 -10.32912
 Alpha  occ. eigenvalues --  -10.30497 -10.28829  -8.09363  -8.09359  -6.04227
 Alpha  occ. eigenvalues --   -6.04210  -6.03824  -6.03813  -6.03441  -6.03412
 Alpha  occ. eigenvalues --   -1.19819  -1.18902  -1.17458  -1.17132  -1.17115
 Alpha  occ. eigenvalues --   -1.16662  -1.06558  -1.05936  -1.03034  -1.00471
 Alpha  occ. eigenvalues --   -0.98949  -0.97228  -0.94404  -0.90792  -0.89123
 Alpha  occ. eigenvalues --   -0.87516  -0.84240  -0.83646  -0.82570  -0.81075
 Alpha  occ. eigenvalues --   -0.80597  -0.77243  -0.76494  -0.74968  -0.72194
 Alpha  occ. eigenvalues --   -0.70747  -0.70459  -0.69132  -0.68012  -0.66611
 Alpha  occ. eigenvalues --   -0.65295  -0.64608  -0.63698  -0.61669  -0.61106
 Alpha  occ. eigenvalues --   -0.60864  -0.59956  -0.59124  -0.58001  -0.57242
 Alpha  occ. eigenvalues --   -0.56826  -0.56602  -0.55761  -0.55021  -0.54440
 Alpha  occ. eigenvalues --   -0.54140  -0.53703  -0.53370  -0.52770  -0.52173
 Alpha  occ. eigenvalues --   -0.51802  -0.51308  -0.51203  -0.50736  -0.50502
 Alpha  occ. eigenvalues --   -0.48773  -0.47353  -0.46862  -0.46548  -0.46371
 Alpha  occ. eigenvalues --   -0.45833  -0.44426  -0.43659  -0.42919  -0.41528
 Alpha  occ. eigenvalues --   -0.40995  -0.40094  -0.39794  -0.39213  -0.38851
 Alpha  occ. eigenvalues --   -0.38424  -0.37623  -0.36562  -0.34964  -0.33716
 Alpha  occ. eigenvalues --   -0.32336  -0.32276  -0.26282
 Alpha virt. eigenvalues --   -0.08195  -0.02118  -0.01156   0.01505   0.03153
 Alpha virt. eigenvalues --    0.03470   0.04957   0.05355   0.05962   0.06045
 Alpha virt. eigenvalues --    0.06347   0.06598   0.07226   0.07683   0.08028
 Alpha virt. eigenvalues --    0.08241   0.08375   0.08715   0.09144   0.09514
 Alpha virt. eigenvalues --    0.09712   0.10066   0.10277   0.10433   0.10509
 Alpha virt. eigenvalues --    0.11195   0.11712   0.11908   0.12018   0.12283
 Alpha virt. eigenvalues --    0.12752   0.13099   0.13745   0.14015   0.14075
 Alpha virt. eigenvalues --    0.14273   0.14691   0.15042   0.15434   0.15814
 Alpha virt. eigenvalues --    0.15981   0.16471   0.16613   0.16771   0.17050
 Alpha virt. eigenvalues --    0.17324   0.17351   0.18079   0.18199   0.18688
 Alpha virt. eigenvalues --    0.18762   0.19175   0.19375   0.19820   0.19938
 Alpha virt. eigenvalues --    0.20192   0.20447   0.20681   0.21029   0.21382
 Alpha virt. eigenvalues --    0.21538   0.21566   0.21672   0.21832   0.22005
 Alpha virt. eigenvalues --    0.22528   0.22834   0.22873   0.23181   0.23308
 Alpha virt. eigenvalues --    0.23555   0.23782   0.24138   0.24293   0.24638
 Alpha virt. eigenvalues --    0.25110   0.25294   0.25617   0.25745   0.25950
 Alpha virt. eigenvalues --    0.26224   0.26618   0.26713   0.27021   0.27070
 Alpha virt. eigenvalues --    0.27306   0.27528   0.27828   0.28081   0.28351
 Alpha virt. eigenvalues --    0.28600   0.28880   0.29096   0.29552   0.29570
 Alpha virt. eigenvalues --    0.29948   0.30023   0.30204   0.30323   0.30562
 Alpha virt. eigenvalues --    0.30833   0.31134   0.31264   0.31497   0.31775
 Alpha virt. eigenvalues --    0.32144   0.32262   0.32485   0.32705   0.32949
 Alpha virt. eigenvalues --    0.33453   0.33809   0.34141   0.34215   0.34774
 Alpha virt. eigenvalues --    0.34807   0.35142   0.35522   0.35751   0.36091
 Alpha virt. eigenvalues --    0.36281   0.36336   0.36632   0.36916   0.37041
 Alpha virt. eigenvalues --    0.37432   0.37774   0.38111   0.38221   0.38394
 Alpha virt. eigenvalues --    0.38627   0.38886   0.39409   0.39547   0.39918
 Alpha virt. eigenvalues --    0.40103   0.40469   0.40641   0.40828   0.41537
 Alpha virt. eigenvalues --    0.41827   0.42326   0.42563   0.42635   0.43444
 Alpha virt. eigenvalues --    0.44124   0.44433   0.44552   0.45206   0.45257
 Alpha virt. eigenvalues --    0.45629   0.46093   0.46196   0.47360   0.47562
 Alpha virt. eigenvalues --    0.48126   0.48491   0.49115   0.49624   0.49926
 Alpha virt. eigenvalues --    0.50759   0.51385   0.51682   0.52556   0.52701
 Alpha virt. eigenvalues --    0.53040   0.54323   0.54611   0.54867   0.55232
 Alpha virt. eigenvalues --    0.55718   0.56200   0.56714   0.57522   0.58737
 Alpha virt. eigenvalues --    0.58918   0.59529   0.59792   0.60057   0.60977
 Alpha virt. eigenvalues --    0.61345   0.61857   0.62713   0.62925   0.63200
 Alpha virt. eigenvalues --    0.63838   0.64331   0.64566   0.65147   0.65262
 Alpha virt. eigenvalues --    0.65485   0.66253   0.66722   0.67229   0.67449
 Alpha virt. eigenvalues --    0.68178   0.68229   0.68900   0.69066   0.69448
 Alpha virt. eigenvalues --    0.70073   0.70256   0.70782   0.71341   0.71633
 Alpha virt. eigenvalues --    0.71876   0.72441   0.72695   0.73025   0.73840
 Alpha virt. eigenvalues --    0.73914   0.74305   0.75357   0.75523   0.76427
 Alpha virt. eigenvalues --    0.76894   0.77644   0.78175   0.78451   0.78897
 Alpha virt. eigenvalues --    0.79179   0.80015   0.80121   0.80832   0.81349
 Alpha virt. eigenvalues --    0.81633   0.82175   0.83293   0.83441   0.84431
 Alpha virt. eigenvalues --    0.84553   0.85203   0.85604   0.85920   0.86443
 Alpha virt. eigenvalues --    0.86889   0.88668   0.89451   0.89802   0.89994
 Alpha virt. eigenvalues --    0.90605   0.90708   0.91752   0.92312   0.92680
 Alpha virt. eigenvalues --    0.93278   0.94078   0.95246   0.95466   0.95588
 Alpha virt. eigenvalues --    0.96153   0.96438   0.96989   0.97340   0.97625
 Alpha virt. eigenvalues --    0.98284   0.98836   0.98866   0.99227   0.99599
 Alpha virt. eigenvalues --    1.00567   1.00727   1.01254   1.01548   1.02231
 Alpha virt. eigenvalues --    1.02278   1.03193   1.03705   1.03748   1.04010
 Alpha virt. eigenvalues --    1.04236   1.05012   1.05823   1.06519   1.07394
 Alpha virt. eigenvalues --    1.07681   1.08287   1.09082   1.09593   1.10018
 Alpha virt. eigenvalues --    1.10998   1.11587   1.11730   1.11929   1.12958
 Alpha virt. eigenvalues --    1.13217   1.13843   1.14575   1.14698   1.15184
 Alpha virt. eigenvalues --    1.15976   1.16186   1.16731   1.17692   1.18023
 Alpha virt. eigenvalues --    1.18524   1.19700   1.20225   1.20856   1.21280
 Alpha virt. eigenvalues --    1.21704   1.22820   1.23471   1.24275   1.25018
 Alpha virt. eigenvalues --    1.25251   1.25484   1.25818   1.27010   1.28270
 Alpha virt. eigenvalues --    1.29010   1.30123   1.30474   1.31475   1.31658
 Alpha virt. eigenvalues --    1.32035   1.32506   1.32856   1.33573   1.34267
 Alpha virt. eigenvalues --    1.34901   1.36196   1.36770   1.38127   1.38755
 Alpha virt. eigenvalues --    1.39333   1.40204   1.42003   1.42807   1.43470
 Alpha virt. eigenvalues --    1.43708   1.46381   1.47121   1.47996   1.49125
 Alpha virt. eigenvalues --    1.50003   1.50325   1.51622   1.52388   1.52935
 Alpha virt. eigenvalues --    1.53811   1.54175   1.54530   1.54919   1.55231
 Alpha virt. eigenvalues --    1.55912   1.56375   1.56555   1.58047   1.58887
 Alpha virt. eigenvalues --    1.59410   1.60270   1.61268   1.62322   1.63273
 Alpha virt. eigenvalues --    1.63472   1.64112   1.65136   1.65999   1.66849
 Alpha virt. eigenvalues --    1.67478   1.68416   1.68607   1.70573   1.71057
 Alpha virt. eigenvalues --    1.71365   1.72648   1.73260   1.74617   1.75883
 Alpha virt. eigenvalues --    1.76055   1.76325   1.76899   1.78327   1.78685
 Alpha virt. eigenvalues --    1.79150   1.79702   1.80425   1.81283   1.82245
 Alpha virt. eigenvalues --    1.83185   1.83772   1.84203   1.85412   1.86120
 Alpha virt. eigenvalues --    1.87020   1.88123   1.88702   1.90141   1.90315
 Alpha virt. eigenvalues --    1.91059   1.92325   1.93522   1.94111   1.94467
 Alpha virt. eigenvalues --    1.94718   1.95370   1.95808   1.96098   1.96640
 Alpha virt. eigenvalues --    1.97303   1.98433   1.98799   1.99714   1.99887
 Alpha virt. eigenvalues --    2.01326   2.01646   2.02987   2.03559   2.04121
 Alpha virt. eigenvalues --    2.04467   2.05525   2.05995   2.06950   2.07511
 Alpha virt. eigenvalues --    2.08364   2.08927   2.09884   2.11487   2.12637
 Alpha virt. eigenvalues --    2.13159   2.14267   2.15141   2.15809   2.16301
 Alpha virt. eigenvalues --    2.17615   2.18557   2.18757   2.19402   2.19984
 Alpha virt. eigenvalues --    2.20577   2.22350   2.23366   2.23513   2.24806
 Alpha virt. eigenvalues --    2.25490   2.26915   2.28168   2.28493   2.29633
 Alpha virt. eigenvalues --    2.32117   2.32304   2.34724   2.35965   2.37830
 Alpha virt. eigenvalues --    2.38335   2.40864   2.42734   2.45984   2.46426
 Alpha virt. eigenvalues --    2.48917   2.49205   2.50297   2.50937   2.54663
 Alpha virt. eigenvalues --    2.55141   2.55945   2.57237   2.59493   2.62504
 Alpha virt. eigenvalues --    2.64101   2.65740   2.66940   2.68654   2.69250
 Alpha virt. eigenvalues --    2.70215   2.70712   2.71810   2.72440   2.72983
 Alpha virt. eigenvalues --    2.74754   2.76239   2.76363   2.77188   2.77637
 Alpha virt. eigenvalues --    2.78486   2.79527   2.80032   2.81536   2.81780
 Alpha virt. eigenvalues --    2.82492   2.83185   2.84484   2.85082   2.85630
 Alpha virt. eigenvalues --    2.86497   2.88052   2.88704   2.89965   2.90590
 Alpha virt. eigenvalues --    2.91522   2.92073   2.93173   2.93673   2.94550
 Alpha virt. eigenvalues --    2.95218   2.97435   2.97921   2.98386   2.99205
 Alpha virt. eigenvalues --    3.00542   3.00820   3.01157   3.02633   3.02668
 Alpha virt. eigenvalues --    3.02952   3.03519   3.05588   3.05935   3.06379
 Alpha virt. eigenvalues --    3.06981   3.08936   3.10774   3.12356   3.13859
 Alpha virt. eigenvalues --    3.15375   3.17875   3.19959   3.21771   3.22467
 Alpha virt. eigenvalues --    3.22995   3.24332   3.24378   3.25810   3.26929
 Alpha virt. eigenvalues --    3.28002   3.28770   3.30933   3.31670   3.32420
 Alpha virt. eigenvalues --    3.34025   3.36367   3.37799   3.38942   3.39469
 Alpha virt. eigenvalues --    3.41323   3.41436   3.41843   3.42663   3.43483
 Alpha virt. eigenvalues --    3.44303   3.46119   3.46756   3.48056   3.48451
 Alpha virt. eigenvalues --    3.50537   3.51324   3.51823   3.52166   3.54615
 Alpha virt. eigenvalues --    3.55756   3.56964   3.59282   3.61440   3.64732
 Alpha virt. eigenvalues --    3.66150   3.67807   3.68296   3.71841   3.73639
 Alpha virt. eigenvalues --    3.73901   3.80512   3.85900   3.89702   3.90350
 Alpha virt. eigenvalues --    3.94295   3.95183   3.95550   3.97401   3.99071
 Alpha virt. eigenvalues --    4.01943   4.04236   4.07540   4.10503   4.11620
 Alpha virt. eigenvalues --    4.18008   4.20836   4.27867   4.30756   4.32399
 Alpha virt. eigenvalues --    4.36169   4.42646   4.44611   4.48861   4.60160
 Alpha virt. eigenvalues --    4.73102   4.80935   4.88279   4.92828   4.94902
 Alpha virt. eigenvalues --    5.11555   5.12664   5.14171   5.15729   5.15897
 Alpha virt. eigenvalues --    5.16614   5.19707   5.21194   5.31007   5.33927
 Alpha virt. eigenvalues --    5.36166   5.40633   5.41978   5.52528   5.78880
 Alpha virt. eigenvalues --    5.82412   5.84696   5.88642   5.89784   5.93021
 Alpha virt. eigenvalues --    8.11368   8.14394  17.42297  17.43902  17.62444
 Alpha virt. eigenvalues --   17.66206  17.71756  17.76791  23.58381  23.67496
 Alpha virt. eigenvalues --   23.81822  23.90050  23.92685  23.93787  23.95417
 Alpha virt. eigenvalues --   23.97322  23.98004  23.98529  24.00880  24.04715
 Alpha virt. eigenvalues --   24.06693  24.09873  24.12902  24.13621  24.14268
 Alpha virt. eigenvalues --   24.15899  24.24925  24.25053  24.26172  24.27088
 Alpha virt. eigenvalues --   35.68792  35.74823  50.05325  50.07864  50.12693
 Alpha virt. eigenvalues --   50.14526  50.17640  50.19537 189.36639 189.40122
          Condensed to atoms (all electrons):
               1          2          3          4          5          6
     1  C   14.909087  -5.560777  -0.704365   2.291962  -2.664358  -1.242930
     2  C   -5.560777  13.175835  -0.113424  -0.024506   1.803945  -0.949025
     3  C   -0.704365  -0.113424   7.213368   0.049714  -0.775266   0.751183
     4  C    2.291962  -0.024506   0.049714  15.099769  -3.476148  -0.864500
     5  C   -2.664358   1.803945  -0.775266  -3.476148  11.157355   0.252204
     6  C   -1.242930  -0.949025   0.751183  -0.864500   0.252204  10.030775
     7  C   -1.530811   0.956161   1.481391  -0.740271  -0.367130   0.941292
     8  C   -0.070268  -0.503069   0.217912   0.189397   0.280257   1.642055
     9  C   -0.772551  -0.603160  -0.053238  -0.340547   0.364085  -0.105417
    10  C    0.183263  -0.173594  -0.304542   0.016543  -0.059906  -2.062939
    11  C    0.168863   0.509001  -1.715673   0.655255  -0.064741  -0.169936
    12  C    0.677582   0.188889   0.424865   0.562305  -0.245425  -0.096989
    13  C   -0.103694  -1.409482  -0.183172  -6.821210   0.151207   0.590149
    14  C   -0.565320  -1.377492  -0.308798  -1.039933  -0.816765   0.459569
    15  H    0.001947  -0.007182   0.011970  -0.056319  -0.013905   0.000274
    16  H   -0.000764  -0.001082  -0.002285   0.003593   0.005740  -0.000201
    17  H   -0.030328  -0.028362   0.002655  -0.007151   0.006428   0.361223
    18  N   -0.004535   0.008540  -0.020725   0.003473   0.002031   0.019695
    19  N    0.066016  -0.211083  -0.037732  -0.088200   0.025438   0.057261
    20  O    0.297016  -0.135038   0.017688  -0.048142   0.088209   0.064505
    21  O    0.109618  -0.080662   0.016409  -0.235180   0.288513   0.001552
    22  O    0.000792  -0.000356  -0.005851   0.009005  -0.000160  -0.002152
    23  O   -0.002119  -0.006521   0.049153  -0.006021  -0.000229   0.068373
    24  C    0.750709  -0.065804  -0.512745   0.297149   0.031191  -1.496314
    25  C   -0.051965   0.233053   0.291818   0.037278  -0.001496  -0.608624
    26  S   -0.283270  -0.186874  -0.077793   0.010872   0.014489   0.270031
    27  C    0.055322   0.313633  -0.011020   0.025214  -0.002474  -1.188452
    28  H    0.001081   0.008696  -0.003722   0.000414  -0.000019  -0.021314
    29  C   -0.058079  -0.029180   0.001223  -0.002507   0.002182  -0.420629
    30  O   -0.000127  -0.002017   0.000182  -0.000050   0.000002   0.009882
    31  C   -0.012856   0.033609   0.001468   0.001098  -0.000024  -0.042383
    32  C    0.001272  -0.002658   0.002291   0.000092  -0.000209   0.006629
    33  S   -0.000528   0.004354   0.000239   0.000147   0.000005  -0.017454
    34  C    0.001227  -0.001581   0.000688  -0.000039   0.000013   0.000806
    35  O   -0.000282  -0.000869  -0.000047  -0.000002  -0.000004  -0.001409
    36  C   -0.000073   0.000223   0.000008   0.000004  -0.000004   0.005421
    37  H   -0.000000   0.000002  -0.000000   0.000000  -0.000000  -0.000011
    38  H    0.000000  -0.000000   0.000000  -0.000000   0.000000   0.000003
    39  H   -0.000238   0.000636  -0.000032   0.000010  -0.000002  -0.001716
    40  H    0.000014   0.000257  -0.000052  -0.000001  -0.000000  -0.002407
    41  H    0.004396  -0.042870  -0.009068   0.006052  -0.005864   0.019708
    42  H   -0.000248  -0.002821   0.004165  -0.001540  -0.000106   0.004778
               7          8          9         10         11         12
     1  C   -1.530811  -0.070268  -0.772551   0.183263   0.168863   0.677582
     2  C    0.956161  -0.503069  -0.603160  -0.173594   0.509001   0.188889
     3  C    1.481391   0.217912  -0.053238  -0.304542  -1.715673   0.424865
     4  C   -0.740271   0.189397  -0.340547   0.016543   0.655255   0.562305
     5  C   -0.367130   0.280257   0.364085  -0.059906  -0.064741  -0.245425
     6  C    0.941292   1.642055  -0.105417  -2.062939  -0.169936  -0.096989
     7  C    8.103087  -0.485109  -0.211978  -0.484664  -1.504200   0.561624
     8  C   -0.485109   9.827908   0.003540  -2.496259   0.401396   0.826157
     9  C   -0.211978   0.003540   8.899496   0.959508  -0.460437  -0.161469
    10  C   -0.484664  -2.496259   0.959508  12.343843  -2.460290   1.232941
    11  C   -1.504200   0.401396  -0.460437  -2.460290  14.290885  -4.417586
    12  C    0.561624   0.826157  -0.161469   1.232941  -4.417586  15.194658
    13  C   -0.268474  -0.908098   0.011882  -0.888963   0.143300  -0.799010
    14  C    0.317763  -1.792531  -0.051052  -0.650614   0.636143  -7.700834
    15  H   -0.006334  -0.001531   0.000094  -0.000487   0.004710   0.007553
    16  H    0.022073  -0.011923   0.001723   0.003248  -0.030637  -0.060222
    17  H   -0.014994   0.024440   0.002358   0.004752  -0.001229  -0.003208
    18  N    0.030341  -0.141324   0.028258  -0.038449   0.095434  -0.027047
    19  N   -0.063025   0.027150   0.003088   0.008782  -0.004220   0.012163
    20  O   -0.027989   0.030503   0.066331   0.004014   0.000515   0.000028
    21  O   -0.026539   0.002168  -0.000011   0.000187   0.002798   0.027127
    22  O    0.018462  -0.064073   0.009373   0.117185   0.190741  -0.177123
    23  O    0.021086   0.075231   0.001267   0.136920  -0.097958   0.002554
    24  C   -0.711866  -0.611351   0.448764   2.537852   0.356035  -0.502069
    25  C   -0.191633   0.257873  -1.153880  -1.110734  -0.537846   0.209691
    26  S   -0.013669  -0.203360   1.217322   0.205807  -0.008636  -0.076195
    27  C   -0.036489  -0.555553  -1.157906  -0.486998   0.012405  -0.000907
    28  H    0.001791  -0.021677   0.056267   0.066726   0.010549   0.004065
    29  C   -0.057771  -0.116797  -0.430044  -0.421037  -0.031565  -0.025484
    30  O   -0.000985   0.008994  -0.007581  -0.009115  -0.000526   0.000039
    31  C   -0.003680   0.001173  -0.328850  -0.009911   0.000458   0.001066
    32  C   -0.010332  -0.018823  -0.193465   0.004383   0.000269   0.001681
    33  S    0.001081   0.006812  -0.023143  -0.012212  -0.000111  -0.000081
    34  C   -0.000259   0.001304  -0.036115  -0.002174  -0.000018   0.000101
    35  O   -0.000258   0.001012   0.005524  -0.000449  -0.000016   0.000014
    36  C   -0.000138   0.001172  -0.007958   0.000084   0.000010   0.000033
    37  H    0.000000   0.000001   0.000021  -0.000000  -0.000000  -0.000000
    38  H    0.000000   0.000000   0.000010  -0.000000  -0.000000  -0.000000
    39  H   -0.000012   0.000088  -0.000699  -0.000017  -0.000000   0.000001
    40  H    0.000248  -0.005987  -0.002318   0.006518   0.000193  -0.000071
    41  H   -0.007374   0.002077  -0.000092   0.000135   0.000072   0.001365
    42  H   -0.005335   0.030148  -0.000794   0.006996  -0.076940   0.031329
              13         14         15         16         17         18
     1  C   -0.103694  -0.565320   0.001947  -0.000764  -0.030328  -0.004535
     2  C   -1.409482  -1.377492  -0.007182  -0.001082  -0.028362   0.008540
     3  C   -0.183172  -0.308798   0.011970  -0.002285   0.002655  -0.020725
     4  C   -6.821210  -1.039933  -0.056319   0.003593  -0.007151   0.003473
     5  C    0.151207  -0.816765  -0.013905   0.005740   0.006428   0.002031
     6  C    0.590149   0.459569   0.000274  -0.000201   0.361223   0.019695
     7  C   -0.268474   0.317763  -0.006334   0.022073  -0.014994   0.030341
     8  C   -0.908098  -1.792531  -0.001531  -0.011923   0.024440  -0.141324
     9  C    0.011882  -0.051052   0.000094   0.001723   0.002358   0.028258
    10  C   -0.888963  -0.650614  -0.000487   0.003248   0.004752  -0.038449
    11  C    0.143300   0.636143   0.004710  -0.030637  -0.001229   0.095434
    12  C   -0.799010  -7.700834   0.007553  -0.060222  -0.003208  -0.027047
    13  C   17.299344  -0.833781  -0.033974   0.447888  -0.000464   0.055649
    14  C   -0.833781  20.163998   0.448990  -0.021971  -0.001310  -0.018853
    15  H   -0.033974   0.448990   0.449381  -0.004163  -0.000000   0.000099
    16  H    0.447888  -0.021971  -0.004163   0.447362  -0.000000  -0.001535
    17  H   -0.000464  -0.001310  -0.000000  -0.000000   0.446932   0.000030
    18  N    0.055649  -0.018853   0.000099  -0.001535   0.000030   7.248479
    19  N    0.029141   0.001511  -0.001996   0.000089  -0.002126  -0.000106
    20  O   -0.003874  -0.002114  -0.000006   0.000001   0.014921  -0.000009
    21  O    0.166994   0.044894   0.007526   0.000051  -0.000017  -0.000041
    22  O    0.038723   0.169945   0.000048   0.008469  -0.000000  -0.029153
    23  O   -0.023765  -0.012425   0.000001   0.000001   0.000052  -0.124840
    24  C   -0.215872  -0.305746   0.000039  -0.000325  -0.044132  -0.086120
    25  C    0.043265  -0.015687   0.000028   0.000056  -0.002943  -0.024112
    26  S    0.011765   0.018435   0.000000  -0.000011   0.064835  -0.003494
    27  C    0.011068  -0.006678   0.000001  -0.000001  -0.000641   0.054910
    28  H    0.000647   0.000201  -0.000000   0.000000   0.000006  -0.000249
    29  C   -0.000853  -0.003581   0.000000  -0.000001   0.013056  -0.005877
    30  O   -0.000014   0.000002  -0.000000  -0.000000  -0.000024  -0.000409
    31  C    0.000669   0.000471   0.000000  -0.000000   0.003179   0.001034
    32  C    0.000170   0.000197  -0.000000   0.000000  -0.004773   0.000104
    33  S    0.000005  -0.000010   0.000000  -0.000000   0.000235   0.000089
    34  C   -0.000003  -0.000013  -0.000000   0.000000  -0.000415  -0.000001
    35  O    0.000003   0.000006  -0.000000  -0.000000  -0.000079  -0.000001
    36  C    0.000003   0.000004  -0.000000  -0.000000  -0.000034   0.000010
    37  H    0.000000   0.000000   0.000000  -0.000000  -0.000000  -0.000000
    38  H   -0.000000  -0.000000  -0.000000   0.000000   0.000000  -0.000000
    39  H    0.000000   0.000001  -0.000000  -0.000000   0.000021  -0.000000
    40  H    0.000005  -0.000001   0.000000  -0.000000   0.000000  -0.000017
    41  H    0.007719   0.024696  -0.000010  -0.000000  -0.000043  -0.000001
    42  H    0.009816   0.004708   0.000000  -0.000029  -0.000000   0.281923
              19         20         21         22         23         24
     1  C    0.066016   0.297016   0.109618   0.000792  -0.002119   0.750709
     2  C   -0.211083  -0.135038  -0.080662  -0.000356  -0.006521  -0.065804
     3  C   -0.037732   0.017688   0.016409  -0.005851   0.049153  -0.512745
     4  C   -0.088200  -0.048142  -0.235180   0.009005  -0.006021   0.297149
     5  C    0.025438   0.088209   0.288513  -0.000160  -0.000229   0.031191
     6  C    0.057261   0.064505   0.001552  -0.002152   0.068373  -1.496314
     7  C   -0.063025  -0.027989  -0.026539   0.018462   0.021086  -0.711866
     8  C    0.027150   0.030503   0.002168  -0.064073   0.075231  -0.611351
     9  C    0.003088   0.066331  -0.000011   0.009373   0.001267   0.448764
    10  C    0.008782   0.004014   0.000187   0.117185   0.136920   2.537852
    11  C   -0.004220   0.000515   0.002798   0.190741  -0.097958   0.356035
    12  C    0.012163   0.000028   0.027127  -0.177123   0.002554  -0.502069
    13  C    0.029141  -0.003874   0.166994   0.038723  -0.023765  -0.215872
    14  C    0.001511  -0.002114   0.044894   0.169945  -0.012425  -0.305746
    15  H   -0.001996  -0.000006   0.007526   0.000048   0.000001   0.000039
    16  H    0.000089   0.000001   0.000051   0.008469   0.000001  -0.000325
    17  H   -0.002126   0.014921  -0.000017  -0.000000   0.000052  -0.044132
    18  N   -0.000106  -0.000009  -0.000041  -0.029153  -0.124840  -0.086120
    19  N    7.265930  -0.063813  -0.054841  -0.000013   0.000066   0.031594
    20  O   -0.063813   7.964399   0.001420  -0.000000  -0.000001  -0.002643
    21  O   -0.054841   0.001420   7.987116   0.000016  -0.000000   0.000043
    22  O   -0.000013  -0.000000   0.000016   7.962709   0.002556  -0.002532
    23  O    0.000066  -0.000001  -0.000000   0.002556   8.257995   0.021236
    24  C    0.031594  -0.002643   0.000043  -0.002532   0.021236  17.494162
    25  C    0.004210  -0.005584  -0.000036   0.002471   0.032238  -0.469456
    26  S    0.003206   0.004800   0.000037  -0.000067   0.026928   0.148550
    27  C    0.001269  -0.001407  -0.000002  -0.000218  -0.107351  -6.061149
    28  H   -0.000005   0.000001   0.000000  -0.000016  -0.056208   0.120419
    29  C    0.000628   0.000016  -0.000004   0.000010  -0.004949  -4.061706
    30  O   -0.000000   0.000001   0.000000   0.000000   0.001893   0.125430
    31  C    0.000090  -0.000100   0.000000  -0.000004  -0.006455  -0.301118
    32  C    0.000047   0.000184  -0.000000   0.000000  -0.001183  -0.879582
    33  S    0.000007  -0.000007  -0.000000  -0.000000  -0.000511   0.044480
    34  C    0.000001  -0.000023  -0.000000   0.000000  -0.000207  -0.034485
    35  O    0.000004   0.000013   0.000000   0.000000   0.000008  -0.023379
    36  C   -0.000000   0.000004   0.000000  -0.000000   0.000081  -0.004550
    37  H    0.000000   0.000000   0.000000   0.000000  -0.000000   0.000256
    38  H   -0.000000  -0.000000  -0.000000   0.000000  -0.000000   0.000055
    39  H    0.000000   0.000001   0.000000   0.000000   0.000000  -0.000352
    40  H   -0.000000  -0.000000  -0.000000  -0.000000  -0.003099  -0.095623
    41  H    0.282294   0.005236   0.010699   0.000000   0.000000   0.001455
    42  H    0.000000  -0.000000  -0.000000   0.009152   0.014745  -0.000605
              25         26         27         28         29         30
     1  C   -0.051965  -0.283270   0.055322   0.001081  -0.058079  -0.000127
     2  C    0.233053  -0.186874   0.313633   0.008696  -0.029180  -0.002017
     3  C    0.291818  -0.077793  -0.011020  -0.003722   0.001223   0.000182
     4  C    0.037278   0.010872   0.025214   0.000414  -0.002507  -0.000050
     5  C   -0.001496   0.014489  -0.002474  -0.000019   0.002182   0.000002
     6  C   -0.608624   0.270031  -1.188452  -0.021314  -0.420629   0.009882
     7  C   -0.191633  -0.013669  -0.036489   0.001791  -0.057771  -0.000985
     8  C    0.257873  -0.203360  -0.555553  -0.021677  -0.116797   0.008994
     9  C   -1.153880   1.217322  -1.157906   0.056267  -0.430044  -0.007581
    10  C   -1.110734   0.205807  -0.486998   0.066726  -0.421037  -0.009115
    11  C   -0.537846  -0.008636   0.012405   0.010549  -0.031565  -0.000526
    12  C    0.209691  -0.076195  -0.000907   0.004065  -0.025484   0.000039
[...]
    34  C   -0.000011  -0.000010   0.000000   0.000000  -0.000666   0.000021
    35  O    0.000001   0.000000   0.000000   0.000000   0.000042   0.000001
    36  C    0.000002   0.000001  -0.000000   0.000000   0.000036  -0.000007
    37  H    0.000000   0.000000  -0.000000  -0.000000  -0.000000   0.000000
    38  H   -0.000000  -0.000000  -0.000000   0.000000   0.000000   0.000000
    39  H    0.000000   0.000000  -0.000000   0.000000   0.000053  -0.000000
    40  H    0.000004   0.000000   0.000000  -0.000000  -0.000001  -0.000075
    41  H    0.002245   0.003919  -0.000013   0.000000  -0.000018  -0.000001
    42  H   -0.005615  -0.000786   0.000000  -0.000005  -0.000000   0.334570
              19         20         21         22         23         24
     1  C    0.142994   0.286094   0.102279   0.000809  -0.002246   0.698599
     2  C   -0.279682  -0.114335  -0.080278  -0.002140  -0.018322  -0.576079
     3  C   -0.094536   0.025316   0.025532  -0.021828  -0.014182  -0.491915
     4  C   -0.097150  -0.044190  -0.224928   0.004330   0.003989   0.238059
     5  C    0.069673   0.081117   0.269336  -0.000728   0.000534   0.062095
     6  C    0.079731   0.046480   0.003260  -0.002785  -0.054540  -0.331752
     7  C   -0.107743  -0.027404  -0.035698   0.020755   0.015482  -0.827134
     8  C    0.032788   0.021267   0.003014  -0.086126  -0.341446   0.440696
     9  C    0.008451   0.049912  -0.000019   0.005628  -0.071436   0.599334
    10  C    0.009395   0.002163   0.000225   0.092877   0.529097   1.408988
    11  C   -0.006101   0.000227   0.002406   0.256370   0.050338  -0.048878
    12  C    0.005268  -0.001565   0.027910  -0.283339  -0.019687  -0.456545
    13  C    0.050808  -0.003079   0.161578   0.117614   0.001675  -0.193051
    14  C    0.029717  -0.001059   0.035030   0.190910  -0.002405  -0.209310
    15  H   -0.001484  -0.000012   0.006951   0.000056   0.000000   0.000009
    16  H    0.000152   0.000001   0.000047   0.006268  -0.000009  -0.000187
    17  H   -0.001247   0.013330  -0.000018   0.000001   0.000228  -0.044037
    18  N   -0.000197  -0.000015  -0.000053  -0.040120  -0.095606  -0.141817
    19  N    7.311579  -0.051882  -0.032846  -0.000031   0.000003   0.029959
    20  O   -0.051882   7.987073   0.001899  -0.000000  -0.000002   0.002500
    21  O   -0.032846   0.001899   7.991715   0.000018   0.000000   0.000886
    22  O   -0.000031  -0.000000   0.000018   8.006651   0.002874  -0.001663
    23  O    0.000003  -0.000002   0.000000   0.002874   8.138488  -0.195281
    24  C    0.029959   0.002500   0.000886  -0.001663  -0.195281  17.856450
    25  C    0.001119  -0.004511   0.000126   0.003459   0.127020   0.896056
    26  S    0.007072  -0.001387   0.000012   0.000184   0.006387  -0.243208
    27  C    0.000929  -0.001340   0.000011   0.000826   0.182441  -6.076073
    28  H   -0.000002   0.000001   0.000000   0.000006  -0.029009   0.107490
    29  C    0.001166   0.000453   0.000007   0.000153   0.025609  -4.954421
    30  O   -0.000000   0.000000   0.000000  -0.000000   0.000817   0.139990
    31  C    0.000027  -0.000078   0.000000   0.000002   0.007020  -0.460269
    32  C   -0.000023   0.000419   0.000000   0.000001   0.001581  -1.282367
    33  S    0.000005  -0.000006   0.000000   0.000000   0.000658   0.080400
    34  C    0.000000  -0.000005  -0.000000   0.000000   0.000190  -0.029993
    35  O   -0.000000  -0.000001  -0.000000   0.000000  -0.000010   0.007740
    36  C   -0.000001   0.000004  -0.000000  -0.000000  -0.000014   0.013726
    37  H    0.000000   0.000000   0.000000  -0.000000  -0.000000   0.000302
    38  H   -0.000000  -0.000000  -0.000000  -0.000000   0.000000  -0.000063
    39  H   -0.000000  -0.000002  -0.000000   0.000000  -0.000000  -0.015898
    40  H    0.000000  -0.000000  -0.000000   0.000000  -0.000644  -0.087105
    41  H    0.340220   0.003787   0.001734  -0.000000  -0.000000   0.000200
    42  H   -0.000000  -0.000000  -0.000000   0.002892   0.005337   0.007485
              25         26         27         28         29         30
     1  C    0.044113  -0.287108   0.054954   0.000325  -0.124809  -0.000116
     2  C   -0.101067  -0.031690   0.072404   0.003541  -0.254670  -0.001755
     3  C   -0.291977  -0.054480  -0.148135  -0.001875  -0.076723   0.000209
     4  C    0.162540   0.046531   0.056201  -0.000045   0.013189  -0.000040
     5  C    0.004556   0.015827  -0.001662   0.000024   0.007365   0.000002
     6  C   -1.777807   0.178381  -2.197259   0.011128  -1.295878   0.010830
     7  C   -0.052128  -0.058113   0.047476   0.001228  -0.011102  -0.000223
     8  C   -0.387154  -0.320790  -0.991255   0.014819  -0.585146   0.005426
     9  C   -0.710353   0.605137  -1.300335   0.033137  -0.268339  -0.000646
    10  C   -0.248966   0.137032   0.137115   0.010025   0.062375  -0.005802
    11  C    0.136032  -0.034892   0.042971   0.003389   0.003101  -0.000062
    12  C    0.238921  -0.068724   0.087347   0.000110  -0.020469  -0.000163
    13  C    0.098699   0.025130   0.018889   0.000085   0.001913  -0.000013
    14  C    0.058025   0.021952   0.006801   0.000008   0.001516   0.000003
    15  H    0.000021   0.000010   0.000001   0.000000  -0.000000  -0.000000
    16  H    0.000053   0.000004   0.000005   0.000000  -0.000001   0.000000
    17  H   -0.002355   0.075683   0.000857  -0.000022   0.004772  -0.000022
    18  N    0.019969  -0.009706   0.002502  -0.000190  -0.000951   0.000031
    19  N    0.001119   0.007072   0.000929  -0.000002   0.001166  -0.000000
    20  O   -0.004511  -0.001387  -0.001340   0.000001   0.000453   0.000000
    21  O    0.000126   0.000012   0.000011   0.000000   0.000007   0.000000
    22  O    0.003459   0.000184   0.000826   0.000006   0.000153  -0.000000
    23  O    0.127020   0.006387   0.182441  -0.029009   0.025609   0.000817
    24  C    0.896056  -0.243208  -6.076073   0.107490  -4.954421   0.139990
    25  C   13.446776  -1.867770   2.154245   0.381619  -4.318921  -0.121515
    26  S   -1.867770  19.333239  -1.723154   0.020821   1.011342   0.034371
    27  C    2.154245  -1.723154  16.778166  -0.196857   1.559343   0.177678
    28  H    0.381619   0.020821  -0.196857   0.509979  -0.009865  -0.005755
    29  C   -4.318921   1.011342   1.559343  -0.009865  14.630461  -0.172314
    30  O   -0.121515   0.034371   0.177678  -0.005755  -0.172314   8.059588
    31  C   -1.008034   0.361464  -0.311809  -0.007507   0.744631  -0.042741
    32  C   -0.250839  -0.285435  -1.650923   0.000198  -0.927793  -0.000544
    33  S   -0.240060  -0.072676   0.344887  -0.000948   0.862709  -0.059857
    34  C   -0.310020  -0.175742  -0.193286  -0.000047  -0.168312  -0.001285
    35  O    0.001636  -0.017560   0.062257   0.000026   0.003050  -0.000884
    36  C   -0.061820   0.142980  -0.468774   0.000024  -0.101690   0.007781
    37  H   -0.000021   0.001309   0.000560   0.000000  -0.002896   0.000017
    38  H    0.000317  -0.000486   0.004685   0.000000  -0.004238  -0.000052
    39  H    0.002521  -0.020538  -0.000741   0.000000   0.057683  -0.000026
    40  H   -0.092881  -0.010800   0.126652   0.003070   0.056592   0.217172
    41  H   -0.000025  -0.000029   0.000002   0.000000  -0.000006  -0.000000
    42  H   -0.007372   0.000015  -0.002514  -0.000007  -0.000661  -0.000005
              31         32         33         34         35         36
     1  C   -0.006364  -0.001208  -0.000042   0.001452  -0.000486   0.000113
     2  C    0.000005  -0.034649   0.003242  -0.005866  -0.002450   0.000434
     3  C   -0.003307   0.000730  -0.000634   0.000259  -0.000036   0.000072
     4  C    0.003546  -0.000261   0.000275  -0.000045  -0.000065  -0.000004
     5  C   -0.000106   0.000082   0.000001   0.000023   0.000004  -0.000004
     6  C   -0.206337  -0.074433  -0.036211  -0.016603   0.005973   0.008895
     7  C   -0.004370  -0.008779   0.002006   0.000498  -0.000257  -0.000058
     8  C   -0.023034  -0.046165   0.004534   0.002411   0.000073   0.000620
     9  C   -0.320944  -0.199671  -0.009940  -0.011230   0.010268  -0.012008
    10  C    0.009744   0.005257  -0.004966  -0.001139   0.000374  -0.000801
    11  C   -0.002089  -0.000140   0.000078   0.000025  -0.000004   0.000000
    12  C    0.003721   0.000788   0.000244   0.000115   0.000016   0.000020
    13  C    0.000496  -0.000046   0.000019  -0.000011   0.000001   0.000002
    14  C    0.000594   0.000033   0.000010  -0.000010   0.000000   0.000001
    15  H    0.000000   0.000000   0.000000   0.000000   0.000000  -0.000000
    16  H    0.000000   0.000000   0.000000   0.000000   0.000000   0.000000
    17  H    0.003449  -0.001711   0.000189  -0.000666   0.000042   0.000036
    18  N   -0.001275  -0.000302   0.000155   0.000021   0.000001  -0.000007
    19  N    0.000027  -0.000023   0.000005   0.000000  -0.000000  -0.000001
    20  O   -0.000078   0.000419  -0.000006  -0.000005  -0.000001   0.000004
    21  O    0.000000   0.000000   0.000000  -0.000000  -0.000000  -0.000000
    22  O    0.000002   0.000001   0.000000   0.000000   0.000000  -0.000000
    23  O    0.007020   0.001581   0.000658   0.000190  -0.000010  -0.000014
    24  C   -0.460269  -1.282367   0.080400  -0.029993   0.007740   0.013726
    25  C   -1.008034  -0.250839  -0.240060  -0.310020   0.001636  -0.061820
    26  S    0.361464  -0.285435  -0.072676  -0.175742  -0.017560   0.142980
    27  C   -0.311809  -1.650923   0.344887  -0.193286   0.062257  -0.468774
    28  H   -0.007507   0.000198  -0.000948  -0.000047   0.000026   0.000024
    29  C    0.744631  -0.927793   0.862709  -0.168312   0.003050  -0.101690
    30  O   -0.042741  -0.000544  -0.059857  -0.001285  -0.000884   0.007781
    31  C   11.867480  -6.724028   0.583092   1.789589   0.174951  -1.304697
    32  C   -6.724028  26.198015  -3.160577  -8.810714  -0.366810   2.831223
    33  S    0.583092  -3.160577  17.623939   0.543620   0.044692  -0.183943
    34  C    1.789589  -8.810714   0.543620  14.922929   0.081481  -1.443741
    35  O    0.174951  -0.366810   0.044692   0.081481   8.079202  -0.010240
    36  C   -1.304697   2.831223  -0.183943  -1.443741  -0.010240   6.480747
    37  H    0.028156  -0.138438   0.010645   0.434910  -0.002206   0.025023
    38  H    0.051922  -0.073596  -0.034085   0.080163  -0.000287   0.342193
    39  H   -0.065808   0.405110  -0.010914  -0.311900   0.172418   0.005503
    40  H    0.031039  -0.003703   0.009424   0.004047  -0.000026  -0.004432
    41  H   -0.000000  -0.000000   0.000000   0.000000  -0.000000  -0.000000
    42  H   -0.000019  -0.000004  -0.000003  -0.000000   0.000000  -0.000000
              37         38         39         40         41         42
     1  C   -0.000000   0.000000  -0.000131  -0.000002  -0.018722  -0.000091
     2  C    0.000003  -0.000000   0.000127   0.000108  -0.003160   0.000211
     3  C   -0.000000   0.000000  -0.000012  -0.000058   0.005655  -0.000046
     4  C    0.000000  -0.000000   0.000002   0.000011   0.009777   0.000945
     5  C   -0.000000   0.000000  -0.000001   0.000000  -0.036509   0.000023
     6  C    0.000011   0.000006  -0.001947  -0.007320   0.002822   0.000058
     7  C    0.000000   0.000000  -0.000022  -0.000214  -0.001552   0.005932
     8  C    0.000001  -0.000000  -0.000050  -0.007737   0.000206   0.023193
     9  C    0.000028   0.000011  -0.001371  -0.001660  -0.000507  -0.000202
    10  C   -0.000000  -0.000000   0.000011   0.008787   0.000031  -0.027953
    11  C    0.000000   0.000000  -0.000000  -0.000110  -0.000117  -0.022384
    12  C    0.000000  -0.000000   0.000002   0.000120   0.000113   0.000430
    13  C    0.000000  -0.000000   0.000000   0.000004   0.002245  -0.005615
    14  C    0.000000  -0.000000   0.000000   0.000000   0.003919  -0.000786
    15  H   -0.000000  -0.000000  -0.000000   0.000000  -0.000013   0.000000
    16  H   -0.000000   0.000000   0.000000  -0.000000   0.000000  -0.000005
    17  H   -0.000000   0.000000   0.000053  -0.000001  -0.000018  -0.000000
    18  N    0.000000   0.000000  -0.000000  -0.000075  -0.000001   0.334570
    19  N    0.000000  -0.000000  -0.000000   0.000000   0.340220  -0.000000
    20  O    0.000000  -0.000000  -0.000002  -0.000000   0.003787  -0.000000
    21  O    0.000000  -0.000000  -0.000000  -0.000000   0.001734  -0.000000
    22  O   -0.000000  -0.000000   0.000000   0.000000  -0.000000   0.002892
    23  O   -0.000000   0.000000  -0.000000  -0.000644  -0.000000   0.005337
    24  C    0.000302  -0.000063  -0.015898  -0.087105   0.000200   0.007485
    25  C   -0.000021   0.000317   0.002521  -0.092881  -0.000025  -0.007372
    26  S    0.001309  -0.000486  -0.020538  -0.010800  -0.000029   0.000015
    27  C    0.000560   0.004685  -0.000741   0.126652   0.000002  -0.002514
    28  H    0.000000   0.000000   0.000000   0.003070   0.000000  -0.000007
    29  C   -0.002896  -0.004238   0.057683   0.056592  -0.000006  -0.000661
    30  O    0.000017  -0.000052  -0.000026   0.217172  -0.000000  -0.000005
    31  C    0.028156   0.051922  -0.065808   0.031039  -0.000000  -0.000019
    32  C   -0.138438  -0.073596   0.405110  -0.003703  -0.000000  -0.000004
    33  S    0.010645  -0.034085  -0.010914   0.009424   0.000000  -0.000003
    34  C    0.434910   0.080163  -0.311900   0.004047   0.000000  -0.000000
    35  O   -0.002206  -0.000287   0.172418  -0.000026  -0.000000   0.000000
    36  C    0.025023   0.342193   0.005503  -0.004432  -0.000000  -0.000000
    37  H    0.498804  -0.003521   0.002133   0.000000   0.000000  -0.000000
    38  H   -0.003521   0.445305   0.000024  -0.000002   0.000000   0.000000
    39  H    0.002133   0.000024   0.497157  -0.000000  -0.000000   0.000000
    40  H    0.000000  -0.000002  -0.000000   0.469279   0.000000   0.000003
    41  H    0.000000   0.000000  -0.000000   0.000000   0.292699   0.000000
    42  H   -0.000000   0.000000   0.000000   0.000003   0.000000   0.306506
 Mulliken charges:
               1
     1  C    0.400815
     2  C   -0.162515
     3  C    0.151932
     4  C    0.222508
     5  C    0.259397
     6  C   -0.165689
     7  C    0.148370
     8  C    0.179871
     9  C    0.124084
    10  C   -0.226924
    11  C    0.366910
    12  C    0.103118
    13  C   -0.455349
    14  C   -0.508073
    15  H    0.189968
    16  H    0.191940
    17  H    0.192539
    18  N   -0.356298
    19  N   -0.448130
    20  O   -0.271171
    21  O   -0.260138
    22  O   -0.273924
    23  O   -0.254929
    24  C    0.076083
    25  C    0.077773
    26  S   -0.740598
    27  C   -0.656091
    28  H    0.151076
    29  C    0.251774
    30  O   -0.240094
    31  C    0.831889
    32  C    0.599721
    33  S   -0.299960
    34  C   -0.381120
    35  O   -0.242884
    36  C   -0.267164
    37  H    0.145180
    38  H    0.191704
    39  H    0.286618
    40  H    0.290463
    41  H    0.397251
    42  H    0.380067
 Sum of Mulliken charges =  -0.00000
 Mulliken charges with hydrogens summed into heavy atoms:
               1
     1  C    0.400815
     2  C   -0.162515
     3  C    0.151932
     4  C    0.222508
     5  C    0.259397
     6  C    0.026850
     7  C    0.148370
     8  C    0.179871
     9  C    0.124084
    10  C   -0.226924
    11  C    0.366910
    12  C    0.103118
    13  C   -0.263409
    14  C   -0.318105
    18  N    0.023769
    19  N   -0.050879
    20  O   -0.271171
    21  O   -0.260138
    22  O   -0.273924
    23  O   -0.254929
    24  C    0.076083
    25  C    0.228849
    26  S   -0.740598
    27  C   -0.656091
    29  C    0.251774
    30  O    0.050369
    31  C    0.831889
    32  C    0.599721
    33  S   -0.299960
    34  C   -0.235940
    35  O    0.043734
    36  C   -0.075460
 Electronic spatial extent (au):  <R**2>=          18193.2024
 Charge=             -0.0000 electrons
 Dipole moment (field-independent basis, Debye):
    X=             -3.7432    Y=             -0.4461    Z=             -0.2261  Tot=              3.7765
 Quadrupole moment (field-independent basis, Debye-Ang):
   XX=           -183.6021   YY=           -193.2251   ZZ=           -198.4644
   XY=              9.2349   XZ=             -0.8175   YZ=             -5.8992
 Traceless Quadrupole moment (field-independent basis, Debye-Ang):
   XX=              8.1618   YY=             -1.4612   ZZ=             -6.7005
   XY=              9.2349   XZ=             -0.8175   YZ=             -5.8992
 Octapole moment (field-independent basis, Debye-Ang**2):
  XXX=           -367.5525  YYY=             -8.4535  ZZZ=              2.6188  XYY=           -150.8494
  XXY=            -86.7064  XXZ=             29.0820  XZZ=             16.9650  YZZ=             -4.8577
  YYZ=              1.2963  XYZ=             20.5753
 Hexadecapole moment (field-independent basis, Debye-Ang**3):
 XXXX=         -17763.4662 YYYY=          -4946.0044 ZZZZ=           -330.1597 XXXY=            803.9751
 XXXZ=            -47.2967 YYYX=           -143.8670 YYYZ=            -63.7939 ZZZX=             -4.3771
 ZZZY=             -0.6243 XXYY=          -4164.3397 XXZZ=          -3354.6774 YYZZ=           -907.2591
 XXYZ=           -114.1368 YYXZ=             -1.2694 ZZXY=             -4.6259
 N-N= 3.334068244590D+03 E-N=-1.184353511729D+04  KE= 2.195623828034D+03
 Unable to Open any file for archive entry.
 1\1\GINC-CX1-106-17-2\FOpt\RwB97XD\6-311+G(d,p)\C22H10N2O6S2\NS5018\17
 -Nov-2020\0\\# opt=modredundant wb97xd/6-311+g(d,p)\\NDI_10.pdb\\0,1\C
 ,-2.5942704882,-2.9353167794,-0.6690195805\C,-2.285587365,-1.492532412
 4,-0.4685368469\C,-3.3077625175,-0.5869992495,-0.1009549939\C,-4.63281
 93914,-1.0284959386,0.1029486982\C,-4.974187051,-2.4649977131,-0.08256
 31786\C,-1.0003748853,-1.067327652,-0.5944667173\C,-2.969696316,0.7754
 634426,0.0533983045\C,-1.6215970493,1.2217960148,-0.1476732107\C,-0.60
 18428046,0.2925485798,-0.4168464509\C,-1.4199984375,2.6976294443,-0.20
 19883324\C,-3.7478853811,3.1023606805,0.610332196\C,-4.0143842987,1.65
 68583396,0.4364917916\C,-5.2980417099,1.2047795009,0.6485695989\C,-5.6
 182301847,-0.1456537715,0.4778233194\H,-6.6258178328,-0.5104910402,0.6
 338857826\H,-6.0513415303,1.9235919128,0.9477630287\H,-0.2606888286,-1
 .8262177625,-0.8191051309\N,-2.4615038175,3.4811545704,0.2843610104\N,
 -3.9192846288,-3.2860315197,-0.4589097547\O,-1.7741942907,-3.761773709
 6,-0.9893178414\O,-6.0833620901,-2.9165841294,0.0731606232\O,-4.567949
 022,3.9116045876,0.9775567696\O,-0.4499240562,3.2617294507,-0.65593450
 85\C,0.8471356888,0.5148782573,-0.3881945069\C,1.599097775,1.571510476
 ,0.0621377246\S,1.8967198354,-0.7102213612,-1.0618920375\C,2.982055050
 4,1.3860858032,-0.1048861634\H,1.1876537797,2.4602374712,0.5115748654\
 C,3.3272209896,0.1977677715,-0.7129961067\O,3.935084056,2.2715393166,0
 .2881232198\C,4.6527501611,-0.2750359271,-1.0425432357\C,4.9920906514,
 -1.467801877,-1.6388818641\S,6.0967315187,0.6514992903,-0.720085132\C,
 6.3874103276,-1.6399521975,-1.8365065196\O,4.0398055873,-2.367534669,-
 1.991115651\C,7.0969783126,-0.5702680512,-1.3852165097\H,6.8312401556,
 -2.5165981199,-2.2914945994\H,8.1676029332,-0.4341420275,-1.4083040762
 \H,4.4439622875,-3.1470091738,-2.3736232266\H,3.5352076302,3.122504777
 5,0.4726744147\H,-4.1454009465,-4.2640977621,-0.5891288339\H,-2.284601
 8165,4.4775431565,0.2633836617\\Version=ES64L-G16RevC.01\State=1-A\HF=
 -2201.5658398\RMSD=6.047e-09\RMSF=1.413e-03\Dipole=1.4644571,-0.209188
 1,-0.1383416\Quadrupole=5.2548718,-2.7356084,-2.5192634,-6.0498719,-2.
 9731299,5.6562963\PG=C01 [X(C22H10N2O6S2)]\\@
 The archive entry for this job was punched.


 TWO ROADS DIVERGED IN A WOOD, AND I--
 I TOOK THE ONE LESS TRAVELED BY,
 AND THAT HAS MADE ALL THE DIFFERENCE.

                       -- ROBERT FROST
 Job cpu time:       4 days 10 hours 32 minutes 20.0 seconds.
 Elapsed time:       0 days 13 hours 22 minutes 13.4 seconds.
 File lengths (MBytes):  RWF=    361 Int=      0 D2E=      0 Chk=     44 Scr=      1
 Normal termination of Gaussian 16 at Tue Nov 17 22:43:07 2020.
