 Entering Gaussian System, Link 0=g16
 Input=NDI_160.gjf
 Output=NDI_160.log
 Initial command:
 /apps/gaussian/g16-c01-avx/g16/l1.exe "/tmp/pbs.2575785[34].pbs/Gau-2944871.inp" -scrdir="/tmp/pbs.2575785[34].pbs/"
 Entering Link 1 = /apps/gaussian/g16-c01-avx/g16/l1.exe PID=   2944872.
  
 Copyright (c) 1988-2019, Gaussian, Inc.  All Rights Reserved.
  
 This is part of the Gaussian(R) 16 program.  It is based on
 the Gaussian(R) 09 system (copyright 2009, Gaussian, Inc.),
 the Gaussian(R) 03 system (copyright 2003, Gaussian, Inc.),
 the Gaussian(R) 98 system (copyright 1998, Gaussian, Inc.),
 the Gaussian(R) 94 system (copyright 1995, Gaussian, Inc.),
 the Gaussian 92(TM) system (copyright 1992, Gaussian, Inc.),
 the Gaussian 90(TM) system (copyright 1990, Gaussian, Inc.),
 the Gaussian 88(TM) system (copyright 1988, Gaussian, Inc.),
 the Gaussian 86(TM) system (copyright 1986, Carnegie Mellon
 University), and the Gaussian 82(TM) system (copyright 1983,
 Carnegie Mellon University). Gaussian is a federally registered
 trademark of Gaussian, Inc.
  
 This software contains proprietary and confidential information,
 including trade secrets, belonging to Gaussian, Inc.
  
 This software is provided under written license and may be
 used, copied, transmitted, or stored only in accord with that
 written license.
  
 The following legend is applicable only to US Government
 contracts under FAR:
  
                    RESTRICTED RIGHTS LEGEND
  
 Use, reproduction and disclosure by the US Government is
 subject to restrictions as set forth in subparagraphs (a)
 and (c) of the Commercial Computer Software - Restricted
 Rights clause in FAR 52.227-19.
  
 Gaussian, Inc.
 340 Quinnipiac St., Bldg. 40, Wallingford CT 06492
  
  
 ---------------------------------------------------------------
 Warning -- This program may not be used in any manner that
 competes with the business of Gaussian, Inc. or will provide
 assistance to any competitor of Gaussian, Inc.  The licensee
 of this program is prohibited from giving any competitor of
 Gaussian, Inc. access to this program.  By using this program,
 the user acknowledges that Gaussian, Inc. is engaged in the
 business of creating and licensing software in the field of
 computational chemistry and represents and warrants to the
 licensee that it is not a competitor of Gaussian, Inc. and that
 it will not use this program in any manner prohibited above.
 ---------------------------------------------------------------
  

 Cite this work as:
 Gaussian 16, Revision C.01,
 M. J. Frisch, G. W. Trucks, H. B. Schlegel, G. E. Scuseria, 
 M. A. Robb, J. R. Cheeseman, G. Scalmani, V. Barone, 
 G. A. Petersson, H. Nakatsuji, X. Li, M. Caricato, A. V. Marenich, 
 J. Bloino, B. G. Janesko, R. Gomperts, B. Mennucci, H. P. Hratchian, 
 J. V. Ortiz, A. F. Izmaylov, J. L. Sonnenberg, D. Williams-Young, 
 F. Ding, F. Lipparini, F. Egidi, J. Goings, B. Peng, A. Petrone, 
 T. Henderson, D. Ranasinghe, V. G. Zakrzewski, J. Gao, N. Rega, 
 G. Zheng, W. Liang, M. Hada, M. Ehara, K. Toyota, R. Fukuda, 
 J. Hasegawa, M. Ishida, T. Nakajima, Y. Honda, O. Kitao, H. Nakai, 
 T. Vreven, K. Throssell, J. A. Montgomery, Jr., J. E. Peralta, 
 F. Ogliaro, M. J. Bearpark, J. J. Heyd, E. N. Brothers, K. N. Kudin, 
 V. N. Staroverov, T. A. Keith, R. Kobayashi, J. Normand, 
 K. Raghavachari, A. P. Rendell, J. C. Burant, S. S. Iyengar, 
 J. Tomasi, M. Cossi, J. M. Millam, M. Klene, C. Adamo, R. Cammi, 
 J. W. Ochterski, R. L. Martin, K. Morokuma, O. Farkas, 
 J. B. Foresman, and D. J. Fox, Gaussian, Inc., Wallingford CT, 2019.
 
 ******************************************
 Gaussian 16:  ES64L-G16RevC.01  3-Jul-2019
                17-Nov-2020 
 ******************************************
 %mem=10GB
 %nprocshared=8
 Will use up to    8 processors via shared memory.
 --------------------------------------
 # opt=modredundant wb97xd/6-311+g(d,p)
 --------------------------------------
 1/18=120,19=15,26=3,38=1/1,3;
 2/9=110,12=2,17=6,18=5,40=1/2;
 3/5=4,6=6,7=111,11=2,25=1,30=1,71=1,74=-58/1,2,3;
 4//1;
 5/5=2,38=5/2;
 6/7=2,8=2,9=2,10=2,28=1/1;
 7//1,2,3,16;
 1/18=20,19=15,26=3/3(2);
 2/9=110/2;
 99//99;
 2/9=110/2;
 3/5=4,6=6,7=111,11=2,25=1,30=1,71=1,74=-58/1,2,3;
 4/5=5,16=3,69=1/1;
 5/5=2,38=5/2;
 7//1,2,3,16;
 1/18=20,19=15,26=3/3(-5);
 2/9=110/2;
 6/7=2,8=2,9=2,10=2,19=2,28=1/1;
 99/9=1/99;
 -----------
 NDI_160.pdb
 -----------
 Symbolic Z-matrix:
 Charge =  0 Multiplicity = 1
 C                    -2.56     -2.99     -0.41 
 C                    -2.26     -1.55     -0.22 
 C                    -3.3      -0.61     -0.08 
 C                    -4.65     -1.02     -0.12 
 C                    -4.99     -2.46     -0.3 
 C                    -0.95     -1.14     -0.22 
 C                    -2.96      0.76      0.1 
 C                    -1.6       1.19      0.12 
 C                    -0.56      0.23     -0.07 
 C                    -1.33      2.62      0.45 
 C                    -3.78      3.12      0.51 
 C                    -4.03      1.68      0.27 
 C                    -5.36      1.25      0.23 
 C                    -5.67     -0.1       0.04 
 H                    -6.7      -0.44      0.01 
 H                    -6.13      2.        0.36 
 H                    -0.19     -1.9      -0.37 
 N                    -2.43      3.48      0.61 
 N                    -3.92     -3.35     -0.44 
 O                    -1.69     -3.85     -0.53 
 O                    -6.15     -2.85     -0.34 
 O                    -4.68      3.94      0.63 
 O                    -0.21      3.1       0.6 
 C                     0.88      0.48     -0.18 
 C                     1.955    -0.361    -0.002 
 S                     1.436     2.127    -0.448 
 C                     3.202     0.297    -0.074 
 H                     1.857    -1.425     0.176 
 C                     3.112     1.667    -0.335 
 O                     4.432    -0.28      0.067 
 C                     4.194     2.598    -0.503 
 C                     4.107     3.97     -0.734 
 S                     5.89      2.123    -0.462 
 C                     5.362     4.619    -0.872 
 O                     2.883     4.551    -0.811 
 C                     6.413     3.741    -0.741 
 H                     5.495     5.673    -1.049 
 H                     7.47      3.966    -0.801 
 H                     2.778     5.626    -0.725 
 H                     4.39     -1.282    -0.024 
 H                    -4.23     -4.36     -0.17 
 H                    -2.15      4.41      0.36 
 
 The following ModRedundant input section has been read:
 D       8       9      24      25 F                                           
 

 GradGradGradGradGradGradGradGradGradGradGradGradGradGradGradGradGradGrad
 Berny optimization.
 Initialization pass.
                           ----------------------------
                           !    Initial Parameters    !
                           ! (Angstroms and Degrees)  !
 --------------------------                            --------------------------
 ! Name  Definition              Value          Derivative Info.                !
 --------------------------------------------------------------------------------
 ! R1    R(1,2)                  1.4831         estimate D2E/DX2                !
 ! R2    R(1,19)                 1.4072         estimate D2E/DX2                !
 ! R3    R(1,20)                 1.2292         estimate D2E/DX2                !
 ! R4    R(2,3)                  1.4088         estimate D2E/DX2                !
 ! R5    R(2,6)                  1.3727         estimate D2E/DX2                !
 ! R6    R(3,4)                  1.4115         estimate D2E/DX2                !
 ! R7    R(3,7)                  1.423          estimate D2E/DX2                !
 ! R8    R(4,5)                  1.4905         estimate D2E/DX2                !
 ! R9    R(4,14)                 1.3829         estimate D2E/DX2                !
 ! R10   R(5,19)                 1.3988         estimate D2E/DX2                !
 ! R11   R(5,21)                 1.2245         estimate D2E/DX2                !
 ! R12   R(6,9)                  1.4323         estimate D2E/DX2                !
 ! R13   R(6,17)                 1.0852         estimate D2E/DX2                !
 ! R14   R(7,8)                  1.4265         estimate D2E/DX2                !
 ! R15   R(7,12)                 1.4213         estimate D2E/DX2                !
 ! R16   R(8,9)                  1.428          estimate D2E/DX2                !
 ! R17   R(8,10)                 1.4922         estimate D2E/DX2                !
 ! R18   R(9,24)                 1.4657         estimate D2E/DX2                !
 ! R19   R(10,18)                1.4054         estimate D2E/DX2                !
 ! R20   R(10,23)                1.2277         estimate D2E/DX2                !
 ! R21   R(11,12)                1.4811         estimate D2E/DX2                !
 ! R22   R(11,18)                1.4007         estimate D2E/DX2                !
 ! R23   R(11,22)                1.2234         estimate D2E/DX2                !
 ! R24   R(12,13)                1.3984         estimate D2E/DX2                !
 ! R25   R(13,14)                1.3981         estimate D2E/DX2                !
 ! R26   R(13,16)                1.0827         estimate D2E/DX2                !
 ! R27   R(14,15)                1.0851         estimate D2E/DX2                !
 ! R28   R(18,42)                1.0029         estimate D2E/DX2                !
 ! R29   R(19,41)                1.0905         estimate D2E/DX2                !
 ! R30   R(24,25)                1.3764         estimate D2E/DX2                !
 ! R31   R(24,26)                1.7589         estimate D2E/DX2                !
 ! R32   R(25,27)                1.4118         estimate D2E/DX2                !
 ! R33   R(25,28)                1.0832         estimate D2E/DX2                !
 ! R34   R(26,29)                1.7417         estimate D2E/DX2                !
 ! R35   R(27,29)                1.3975         estimate D2E/DX2                !
 ! R36   R(27,30)                1.3659         estimate D2E/DX2                !
 ! R37   R(29,31)                1.4373         estimate D2E/DX2                !
 ! R38   R(30,40)                1.007          estimate D2E/DX2                !
 ! R39   R(31,32)                1.394          estimate D2E/DX2                !
 ! R40   R(31,33)                1.7617         estimate D2E/DX2                !
 ! R41   R(32,34)                1.4196         estimate D2E/DX2                !
 ! R42   R(32,35)                1.3571         estimate D2E/DX2                !
 ! R43   R(33,36)                1.7232         estimate D2E/DX2                !
 ! R44   R(34,36)                1.3757         estimate D2E/DX2                !
 ! R45   R(34,37)                1.077          estimate D2E/DX2                !
 ! R46   R(35,39)                1.0835         estimate D2E/DX2                !
 ! R47   R(36,38)                1.0823         estimate D2E/DX2                !
 ! A1    A(2,1,19)             116.527          estimate D2E/DX2                !
 ! A2    A(2,1,20)             123.2737         estimate D2E/DX2                !
 ! A3    A(19,1,20)            120.1979         estimate D2E/DX2                !
 ! A4    A(1,2,3)              120.7455         estimate D2E/DX2                !
 ! A5    A(1,2,6)              118.8843         estimate D2E/DX2                !
 ! A6    A(3,2,6)              120.3454         estimate D2E/DX2                !
 ! A7    A(2,3,4)              120.6259         estimate D2E/DX2                !
 ! A8    A(2,3,7)              118.5916         estimate D2E/DX2                !
 ! A9    A(4,3,7)              120.7824         estimate D2E/DX2                !
 ! A10   A(3,4,5)              120.1483         estimate D2E/DX2                !
 ! A11   A(3,4,14)             120.5934         estimate D2E/DX2                !
 ! A12   A(5,4,14)             119.2388         estimate D2E/DX2                !
 ! A13   A(4,5,19)             116.8914         estimate D2E/DX2                !
 ! A14   A(4,5,21)             121.8545         estimate D2E/DX2                !
 ! A15   A(19,5,21)            121.2488         estimate D2E/DX2                !
 ! A16   A(2,6,9)              123.0626         estimate D2E/DX2                !
 ! A17   A(2,6,17)             117.3337         estimate D2E/DX2                !
 ! A18   A(9,6,17)             119.5802         estimate D2E/DX2                !
 ! A19   A(3,7,8)              121.3176         estimate D2E/DX2                !
 ! A20   A(3,7,12)             117.2859         estimate D2E/DX2                !
 ! A21   A(8,7,12)             121.3945         estimate D2E/DX2                !
 ! A22   A(7,8,9)              119.3284         estimate D2E/DX2                !
 ! A23   A(7,8,10)             117.6762         estimate D2E/DX2                !
 ! A24   A(9,8,10)             122.8113         estimate D2E/DX2                !
 ! A25   A(6,9,8)              117.2994         estimate D2E/DX2                !
 ! A26   A(6,9,24)             115.0121         estimate D2E/DX2                !
 ! A27   A(8,9,24)             127.6498         estimate D2E/DX2                !
 ! A28   A(8,10,18)            118.0319         estimate D2E/DX2                !
 ! A29   A(8,10,23)            124.524          estimate D2E/DX2                !
 ! A30   A(18,10,23)           117.4428         estimate D2E/DX2                !
 ! A31   A(12,11,18)           115.0947         estimate D2E/DX2                !
 ! A32   A(12,11,22)           122.9128         estimate D2E/DX2                !
 ! A33   A(18,11,22)           121.9866         estimate D2E/DX2                !
 ! A34   A(7,12,11)            121.4411         estimate D2E/DX2                !
 ! A35   A(7,12,13)            120.9006         estimate D2E/DX2                !
 ! A36   A(11,12,13)           117.6548         estimate D2E/DX2                !
 ! A37   A(12,13,14)           120.7772         estimate D2E/DX2                !
 ! A38   A(12,13,16)           117.3846         estimate D2E/DX2                !
 ! A39   A(14,13,16)           121.8361         estimate D2E/DX2                !
 ! A40   A(4,14,13)            119.6408         estimate D2E/DX2                !
 ! A41   A(4,14,15)            119.2412         estimate D2E/DX2                !
 ! A42   A(13,14,15)           121.1172         estimate D2E/DX2                !
 ! A43   A(10,18,11)           126.0815         estimate D2E/DX2                !
 ! A44   A(10,18,42)           108.6957         estimate D2E/DX2                !
 ! A45   A(11,18,42)           119.3146         estimate D2E/DX2                !
 ! A46   A(1,19,5)             125.0576         estimate D2E/DX2                !
 ! A47   A(1,19,41)            120.4267         estimate D2E/DX2                !
 ! A48   A(5,19,41)            110.3085         estimate D2E/DX2                !
 ! A49   A(9,24,25)            130.7981         estimate D2E/DX2                !
 ! A50   A(9,24,26)            118.7988         estimate D2E/DX2                !
 ! A51   A(25,24,26)           110.1793         estimate D2E/DX2                !
 ! A52   A(24,25,27)           113.4827         estimate D2E/DX2                !
 ! A53   A(24,25,28)           123.418          estimate D2E/DX2                !
 ! A54   A(27,25,28)           123.0993         estimate D2E/DX2                !
 ! A55   A(24,26,29)            92.6935         estimate D2E/DX2                !
 ! A56   A(25,27,29)           114.1754         estimate D2E/DX2                !
 ! A57   A(25,27,30)           126.3872         estimate D2E/DX2                !
 ! A58   A(29,27,30)           119.4309         estimate D2E/DX2                !
 ! A59   A(26,29,27)           109.451          estimate D2E/DX2                !
 ! A60   A(26,29,31)           123.0778         estimate D2E/DX2                !
 ! A61   A(27,29,31)           127.4699         estimate D2E/DX2                !
 ! A62   A(27,30,40)           111.9282         estimate D2E/DX2                !
 ! A63   A(29,31,32)           127.5832         estimate D2E/DX2                !
 ! A64   A(29,31,33)           123.1862         estimate D2E/DX2                !
 ! A65   A(32,31,33)           109.2261         estimate D2E/DX2                !
 ! A66   A(31,32,34)           114.2602         estimate D2E/DX2                !
 ! A67   A(31,32,35)           119.1469         estimate D2E/DX2                !
 ! A68   A(34,32,35)           126.5922         estimate D2E/DX2                !
 ! A69   A(31,33,36)            92.0203         estimate D2E/DX2                !
 ! A70   A(32,34,36)           111.9842         estimate D2E/DX2                !
 ! A71   A(32,34,37)           124.9286         estimate D2E/DX2                !
 ! A72   A(36,34,37)           123.0849         estimate D2E/DX2                !
 ! A73   A(32,35,39)           120.5076         estimate D2E/DX2                !
 ! A74   A(33,36,34)           112.5074         estimate D2E/DX2                !
 ! A75   A(33,36,38)           120.038          estimate D2E/DX2                !
 ! A76   A(34,36,38)           127.4534         estimate D2E/DX2                !
 ! D1    D(19,1,2,3)            -0.0402         estimate D2E/DX2                !
 ! D2    D(19,1,2,6)          -178.232          estimate D2E/DX2                !
 ! D3    D(20,1,2,3)          -179.6115         estimate D2E/DX2                !
 ! D4    D(20,1,2,6)             2.1967         estimate D2E/DX2                !
 ! D5    D(2,1,19,5)            -0.2714         estimate D2E/DX2                !
 ! D6    D(2,1,19,41)         -154.9401         estimate D2E/DX2                !
 ! D7    D(20,1,19,5)          179.3139         estimate D2E/DX2                !
 ! D8    D(20,1,19,41)          24.6452         estimate D2E/DX2                !
 ! D9    D(1,2,3,4)             -0.105          estimate D2E/DX2                !
 ! D10   D(1,2,3,7)           -179.9973         estimate D2E/DX2                !
 ! D11   D(6,2,3,4)            178.0603         estimate D2E/DX2                !
 ! D12   D(6,2,3,7)             -1.832          estimate D2E/DX2                !
 ! D13   D(1,2,6,9)            178.7655         estimate D2E/DX2                !
 ! D14   D(1,2,6,17)             0.5382         estimate D2E/DX2                !
 ! D15   D(3,2,6,9)              0.5662         estimate D2E/DX2                !
 ! D16   D(3,2,6,17)          -177.661          estimate D2E/DX2                !
 ! D17   D(2,3,4,5)              0.5238         estimate D2E/DX2                !
 ! D18   D(2,3,4,14)           178.9053         estimate D2E/DX2                !
 ! D19   D(7,3,4,5)           -179.5863         estimate D2E/DX2                !
 ! D20   D(7,3,4,14)            -1.2048         estimate D2E/DX2                !
 ! D21   D(2,3,7,8)              0.9439         estimate D2E/DX2                !
 ! D22   D(2,3,7,12)          -178.5478         estimate D2E/DX2                !
 ! D23   D(4,3,7,8)           -178.9482         estimate D2E/DX2                !
 ! D24   D(4,3,7,12)             1.56           estimate D2E/DX2                !
 ! D25   D(3,4,5,19)            -0.7863         estimate D2E/DX2                !
 ! D26   D(3,4,5,21)          -179.9543         estimate D2E/DX2                !
 ! D27   D(14,4,5,19)         -179.1897         estimate D2E/DX2                !
 ! D28   D(14,4,5,21)            1.6423         estimate D2E/DX2                !
 ! D29   D(3,4,14,13)            0.6262         estimate D2E/DX2                !
 ! D30   D(3,4,14,15)         -179.7176         estimate D2E/DX2                !
 ! D31   D(5,4,14,13)          179.0223         estimate D2E/DX2                !
 ! D32   D(5,4,14,15)           -1.3214         estimate D2E/DX2                !
 ! D33   D(4,5,19,1)             0.6724         estimate D2E/DX2                !
 ! D34   D(4,5,19,41)          157.5074         estimate D2E/DX2                !
 ! D35   D(21,5,19,1)          179.8457         estimate D2E/DX2                !
 ! D36   D(21,5,19,41)         -23.3193         estimate D2E/DX2                !
 ! D37   D(2,6,9,8)              1.5899         estimate D2E/DX2                !
 ! D38   D(2,6,9,24)          -176.322          estimate D2E/DX2                !
 ! D39   D(17,6,9,8)           179.779          estimate D2E/DX2                !
 ! D40   D(17,6,9,24)            1.8672         estimate D2E/DX2                !
 ! D41   D(3,7,8,9)              1.2142         estimate D2E/DX2                !
 ! D42   D(3,7,8,10)          -173.9942         estimate D2E/DX2                !
 ! D43   D(12,7,8,9)          -179.3149         estimate D2E/DX2                !
 ! D44   D(12,7,8,10)            5.4766         estimate D2E/DX2                !
 ! D45   D(3,7,12,11)          177.9024         estimate D2E/DX2                !
 ! D46   D(3,7,12,13)           -1.4077         estimate D2E/DX2                !
 ! D47   D(8,7,12,11)           -1.5889         estimate D2E/DX2                !
 ! D48   D(8,7,12,13)          179.1009         estimate D2E/DX2                !
 ! D49   D(7,8,9,6)             -2.414          estimate D2E/DX2                !
 ! D50   D(7,8,9,24)           175.1958         estimate D2E/DX2                !
 ! D51   D(10,8,9,6)           172.5365         estimate D2E/DX2                !
 ! D52   D(10,8,9,24)           -9.8537         estimate D2E/DX2                !
 ! D53   D(7,8,10,18)           -5.2348         estimate D2E/DX2                !
 ! D54   D(7,8,10,23)          174.3306         estimate D2E/DX2                !
 ! D55   D(9,8,10,18)          179.736          estimate D2E/DX2                !
 ! D56   D(9,8,10,23)           -0.6986         estimate D2E/DX2                !
 ! D57   D(6,9,24,25)          -22.3518         estimate D2E/DX2                !
 ! D58   D(6,9,24,26)          163.6721         estimate D2E/DX2                !
 ! D59   D(8,9,24,25)          159.992          Frozen                          !
 ! D60   D(8,9,24,26)          -13.9842         estimate D2E/DX2                !
 ! D61   D(8,10,18,11)           1.0927         estimate D2E/DX2                !
 ! D62   D(8,10,18,42)        -151.3012         estimate D2E/DX2                !
 ! D63   D(23,10,18,11)       -178.5038         estimate D2E/DX2                !
 ! D64   D(23,10,18,42)         29.1023         estimate D2E/DX2                !
 ! D65   D(18,11,12,7)          -2.5592         estimate D2E/DX2                !
 ! D66   D(18,11,12,13)        176.7725         estimate D2E/DX2                !
 ! D67   D(22,11,12,7)         178.3061         estimate D2E/DX2                !
 ! D68   D(22,11,12,13)         -2.3622         estimate D2E/DX2                !
 ! D69   D(12,11,18,10)          2.7627         estimate D2E/DX2                !
 ! D70   D(12,11,18,42)        152.5373         estimate D2E/DX2                !
 ! D71   D(22,11,18,10)       -178.0937         estimate D2E/DX2                !
 ! D72   D(22,11,18,42)        -28.3191         estimate D2E/DX2                !
 ! D73   D(7,12,13,14)           0.8911         estimate D2E/DX2                !
 ! D74   D(7,12,13,16)        -179.6245         estimate D2E/DX2                !
 ! D75   D(11,12,13,14)       -178.4444         estimate D2E/DX2                !
 ! D76   D(11,12,13,16)          1.04           estimate D2E/DX2                !
 ! D77   D(12,13,14,4)          -0.4717         estimate D2E/DX2                !
 ! D78   D(12,13,14,15)        179.8786         estimate D2E/DX2                !
 ! D79   D(16,13,14,4)        -179.9328         estimate D2E/DX2                !
 ! D80   D(16,13,14,15)          0.4175         estimate D2E/DX2                !
 ! D81   D(9,24,25,27)        -174.2015         estimate D2E/DX2                !
 ! D82   D(9,24,25,28)           5.8127         estimate D2E/DX2                !
 ! D83   D(26,24,25,27)          0.1758         estimate D2E/DX2                !
 ! D84   D(26,24,25,28)       -179.81           estimate D2E/DX2                !
 ! D85   D(9,24,26,29)         175.7062         estimate D2E/DX2                !
 ! D86   D(25,24,26,29)          0.5615         estimate D2E/DX2                !
 ! D87   D(24,25,27,29)         -1.0871         estimate D2E/DX2                !
 ! D88   D(24,25,27,30)        179.8454         estimate D2E/DX2                !
 ! D89   D(28,25,27,29)        178.8987         estimate D2E/DX2                !
 ! D90   D(28,25,27,30)         -0.1688         estimate D2E/DX2                !
 ! D91   D(24,26,29,27)         -1.1385         estimate D2E/DX2                !
 ! D92   D(24,26,29,31)        178.4757         estimate D2E/DX2                !
 ! D93   D(25,27,29,26)          1.4629         estimate D2E/DX2                !
 ! D94   D(25,27,29,31)       -178.1298         estimate D2E/DX2                !
 ! D95   D(30,27,29,26)       -179.399          estimate D2E/DX2                !
 ! D96   D(30,27,29,31)          1.0083         estimate D2E/DX2                !
 ! D97   D(25,27,30,40)         16.0892         estimate D2E/DX2                !
 ! D98   D(29,27,30,40)       -162.934          estimate D2E/DX2                !
 ! D99   D(26,29,31,32)          2.0051         estimate D2E/DX2                !
 ! D100  D(26,29,31,33)       -177.1309         estimate D2E/DX2                !
 ! D101  D(27,29,31,32)       -178.4532         estimate D2E/DX2                !
 ! D102  D(27,29,31,33)          2.4109         estimate D2E/DX2                !
 ! D103  D(29,31,32,34)       -179.3038         estimate D2E/DX2                !
 ! D104  D(29,31,32,35)          0.4345         estimate D2E/DX2                !
 ! D105  D(33,31,32,34)         -0.0696         estimate D2E/DX2                !
 ! D106  D(33,31,32,35)        179.6687         estimate D2E/DX2                !
 ! D107  D(29,31,33,36)        179.539          estimate D2E/DX2                !
 ! D108  D(32,31,33,36)          0.2641         estimate D2E/DX2                !
 ! D109  D(31,32,34,36)         -0.2318         estimate D2E/DX2                !
 ! D110  D(31,32,34,37)       -179.6873         estimate D2E/DX2                !
 ! D111  D(35,32,34,36)       -179.9471         estimate D2E/DX2                !
 ! D112  D(35,32,34,37)          0.5973         estimate D2E/DX2                !
 ! D113  D(31,32,35,39)        163.6646         estimate D2E/DX2                !
 ! D114  D(34,32,35,39)        -16.6326         estimate D2E/DX2                !
 ! D115  D(31,33,36,34)         -0.4057         estimate D2E/DX2                !
 ! D116  D(31,33,36,38)        179.9658         estimate D2E/DX2                !
 ! D117  D(32,34,36,33)          0.4342         estimate D2E/DX2                !
 ! D118  D(32,34,36,38)       -179.9709         estimate D2E/DX2                !
 ! D119  D(37,34,36,33)        179.9015         estimate D2E/DX2                !
 ! D120  D(37,34,36,38)         -0.5036         estimate D2E/DX2                !
 --------------------------------------------------------------------------------
 Trust Radius=3.00D-01 FncErr=1.00D-07 GrdErr=1.00D-06 EigMax=2.50D+02 EigMin=1.00D-04
 Number of steps in this run=    252 maximum allowed number of steps=    252.
 GradGradGradGradGradGradGradGradGradGradGradGradGradGradGradGradGradGrad

                          Input orientation:                          
 ---------------------------------------------------------------------
 Center     Atomic      Atomic             Coordinates (Angstroms)
 Number     Number       Type             X           Y           Z
 ---------------------------------------------------------------------
      1          6           0       -2.560000   -2.990000   -0.410000
      2          6           0       -2.260000   -1.550000   -0.220000
      3          6           0       -3.300000   -0.610000   -0.080000
      4          6           0       -4.650000   -1.020000   -0.120000
      5          6           0       -4.990000   -2.460000   -0.300000
      6          6           0       -0.950000   -1.140000   -0.220000
      7          6           0       -2.960000    0.760000    0.100000
      8          6           0       -1.600000    1.190000    0.120000
      9          6           0       -0.560000    0.230000   -0.070000
     10          6           0       -1.330000    2.620000    0.450000
     11          6           0       -3.780000    3.120000    0.510000
     12          6           0       -4.030000    1.680000    0.270000
     13          6           0       -5.360000    1.250000    0.230000
     14          6           0       -5.670000   -0.100000    0.040000
     15          1           0       -6.700000   -0.440000    0.010000
     16          1           0       -6.130000    2.000000    0.360000
     17          1           0       -0.190000   -1.900000   -0.370000
     18          7           0       -2.430000    3.480000    0.610000
     19          7           0       -3.920000   -3.350000   -0.440000
     20          8           0       -1.690000   -3.850000   -0.530000
     21          8           0       -6.150000   -2.850000   -0.340000
     22          8           0       -4.680000    3.940000    0.630000
     23          8           0       -0.210000    3.100000    0.600000
     24          6           0        0.880000    0.480000   -0.180000
     25          6           0        1.955000   -0.361000   -0.002000
     26         16           0        1.436000    2.127000   -0.448000
     27          6           0        3.202000    0.297000   -0.074000
     28          1           0        1.857000   -1.425000    0.176000
     29          6           0        3.112000    1.667000   -0.335000
     30          8           0        4.432000   -0.280000    0.067000
     31          6           0        4.194000    2.598000   -0.503000
     32          6           0        4.107000    3.970000   -0.734000
     33         16           0        5.890000    2.123000   -0.462000
     34          6           0        5.362000    4.619000   -0.872000
     35          8           0        2.883000    4.551000   -0.811000
     36          6           0        6.413000    3.741000   -0.741000
     37          1           0        5.495000    5.673000   -1.049000
     38          1           0        7.470000    3.966000   -0.801000
     39          1           0        2.778000    5.626000   -0.725000
     40          1           0        4.390000   -1.282000   -0.024000
     41          1           0       -4.230000   -4.360000   -0.170000
     42          1           0       -2.150000    4.410000    0.360000
 ---------------------------------------------------------------------
                    Distance matrix (angstroms):
                    1          2          3          4          5
     1  C    0.000000
     2  C    1.483139   0.000000
     3  C    2.514140   1.408829   0.000000
     4  C    2.886711   2.450102   1.411453   0.000000
     5  C    2.489558   2.878784   2.515353   1.490503   0.000000
     6  C    2.459817   1.372662   2.413089   3.703296   4.250929
     7  C    3.805601   2.434851   1.422990   2.464325   3.827440
     8  C    4.321447   2.838803   2.483948   3.774149   4.999100
     9  C    3.805785   2.465948   2.865886   4.277043   5.187861
    10  C    5.807289   4.324662   3.820301   4.959526   6.305910
    11  C    6.298166   4.965098   3.806757   4.277078   5.766854
    12  C    4.942894   3.715629   2.428889   2.797588   4.287902
    13  C    5.121250   4.201488   2.792723   2.404059   3.765886
    14  C    4.269274   3.714593   2.427221   1.382896   2.479435
    15  H    4.880420   4.582423   3.405437   2.134432   2.664695
    16  H    6.183680   5.283540   3.874868   3.397234   4.650462
    17  H    2.608946   2.104733   3.379393   4.552856   4.833063
    18  N    6.551198   5.100853   4.238054   5.070631   6.531868
    19  N    1.407160   2.458455   2.832243   2.462560   1.398785
    20  O    1.229187   2.389770   3.645847   4.115653   3.588175
    21  O    3.593411   4.103230   3.634240   2.376405   1.224459
    22  O    7.321264   6.059620   4.807390   5.016473   6.474643
    23  O    6.605354   5.147563   4.875920   6.099705   7.387286
    24  C    4.891564   3.739265   4.320937   5.730140   6.566194
    25  C    5.240547   4.384914   5.261474   6.638843   7.261379
    26  S    6.492546   5.218499   5.482362   6.859343   7.896578
    27  C    6.642131   5.767683   6.564959   7.961816   8.646444
    28  H    4.722553   4.137890   5.227276   6.526308   6.941125
    29  C    7.339268   6.262643   6.809075   8.216741   9.092621
    30  O    7.513967   6.817487   7.740435   9.114016   9.677870
    31  C    8.766465   7.677246   8.162734   9.563104  10.486679
    32  C    9.643416   8.442351   8.733142  10.097631  11.148483
    33  S    9.876638   8.942706   9.595380  11.003954  11.806970
    34  C   10.994017   9.827337  10.148889  11.515380  12.554016
    35  O    9.308799   8.001371   8.087012   9.394659  10.554590
    36  C   11.221883  10.172859  10.663512  12.059964  12.987505
    37  H   11.846473  10.630099  10.852054  12.189353  13.290670
    38  H   12.212277  11.199853  11.724015  13.123199  14.028403
    39  H   10.140460   8.782451   8.731884   9.985516  11.220777
    40  H    7.167200   6.658284   7.719509   9.044305   9.457709
    41  H    2.173338   3.432128   3.864647   3.366675   2.050488
    42  H    7.451242   5.989165   5.168801   5.997108   7.463116
                    6          7          8          9         10
     6  C    0.000000
     7  C    2.784331   0.000000
     8  C    2.442744   1.426499   0.000000
     9  C    1.432306   2.463696   1.428041   0.000000
    10  C    3.838085   2.497799   1.492213   2.564254   0.000000
    11  C    5.166178   2.531818   2.937584   4.365421   2.501220
    12  C    4.204628   1.421337   2.483445   3.776109   2.864612
    13  C    5.036139   2.452957   3.762087   4.916340   4.262183
    14  C    4.840207   2.843818   4.270293   5.121826   5.138297
    15  H    5.797016   3.928829   5.355278   6.176965   6.196297
    16  H    6.085097   3.413810   4.608102   5.860264   4.840713
    17  H    1.085219   3.869031   3.431661   2.182613   4.733117
    18  N    4.921758   2.817694   2.484572   3.810748   1.405418
    19  N    3.708558   4.255032   5.129093   4.923708   6.568188
    20  O    2.826270   4.823059   5.082539   4.258509   6.553694
    21  O    5.475263   4.837541   6.102106   6.388067   7.333308
    22  O    6.359387   3.653998   4.160409   5.588247   3.605177
    23  O    4.381507   3.645285   2.410519   2.967878   1.227721
    24  C    2.444361   3.860363   2.597018   1.465674   3.140159
    25  C    3.015525   5.042249   3.880530   2.584401   4.458911
    26  S    4.051946   4.636142   3.227675   2.779480   2.949612
    27  C    4.396065   6.181819   4.888178   3.762599   5.119563
    28  H    2.849086   5.289942   4.334998   2.939631   5.156944
    29  C    4.938858   6.154759   4.757888   3.952060   4.610401
    30  O    5.457829   7.464875   6.208763   5.019854   6.461991
    31  C    6.365019   7.410909   5.995084   5.328736   5.605646
    32  C    7.207603   7.806545   6.405276   6.017423   5.725847
    33  S    7.582304   8.971963   7.570291   6.733470   7.294323
    34  C    8.569278   9.224551   7.823781   7.414621   7.108203
    35  O    6.886846   7.024404   5.679821   5.574439   4.802942
    36  C    8.849258   9.871513   8.453230   7.835821   7.913859
    37  H    9.415001   9.846055   8.473658   8.200470   7.625512
    38  H    9.864340  10.948750   9.529917   8.886673   8.989812
    39  H    7.741561   7.568568   6.289595   6.378721   5.224206
    40  H    5.345482   7.629393   6.481637   5.175979   6.940366
    41  H    4.596662   5.282064   6.148455   5.877670   7.583851
    42  H    5.707793   3.747826   3.275439   4.492816   1.970939
                   11         12         13         14         15
    11  C    0.000000
    12  C    1.481114   0.000000
    13  C    2.464082   1.398356   0.000000
    14  C    3.763164   2.431234   1.398106   0.000000
    15  H    4.631414   3.419196   2.167971   1.085081   0.000000
    16  H    2.607566   2.126147   1.082728   2.173476   2.530020
    17  H    6.234012   5.288818   6.083700   5.782603   6.682522
    18  N    1.400750   2.432201   3.701648   4.861985   5.827461
    19  N    6.540872   5.081053   4.866467   3.722284   4.049568
    20  O    7.350551   6.057764   6.329020   5.497981   6.084390
    21  O    6.479221   5.038591   4.214143   2.817321   2.496618
    22  O    1.223438   2.379012   2.803302   4.201167   4.863044
    23  O    3.571190   4.088728   5.484697   6.353361   7.416185
    24  C    5.400120   5.074505   6.300683   6.579308   7.637991
    25  C    6.728278   6.329288   7.493889   7.629581   8.655369
    26  S    5.395412   5.531048   6.885814   7.462768   8.543638
    27  C    7.553722   7.371082   8.620236   8.881610   9.929745
    28  H    7.248748   6.656323   7.696988   7.643942   8.615105
    29  C    7.094004   7.167591   8.501053   8.965848  10.041604
    30  O    8.899056   8.688398   9.912151  10.103640  11.133296
    31  C    8.055019   8.311103   9.676431  10.240730  11.321301
    32  C    8.029620   8.512513   9.897059  10.618555  11.695849
    33  S    9.769734   9.956830  11.305021  11.782501  12.856899
    34  C    9.366594   9.907146  11.292734  12.033525  13.109662
    35  O    6.941784   7.563119   8.940209   9.772912  10.835959
    36  C   10.288240  10.692338  12.072757  12.702839  13.783887
    37  H    9.745456  10.411985  11.791090  12.616286  13.682408
    38  H   11.357682  11.773820  13.154791  13.780393  14.861341
    39  H    7.128297   7.931570   9.289157  10.234305  11.276926
    40  H    9.295787   8.930637  10.076609  10.129404  11.121970
    41  H    7.524314   6.059307   5.736637   4.501700   4.636777
    42  H    2.084107   3.315931   4.506285   5.730000   6.659392
                   16         17         18         19         20
    16  H    0.000000
    17  H    7.143284   0.000000
    18  N    3.992856   5.909518   0.000000
    19  N    5.843509   4.002537   7.069052   0.000000
    20  O    7.397851   2.465380   7.454938   2.287138   0.000000
    21  O    4.900296   6.035313   7.403364   2.287553   4.574680
    22  O    2.437006   7.434090   2.296628   7.407199   8.424358
    23  O    6.026110   5.093260   2.252310   7.513202   7.195123
    24  C    7.193198   2.616372   4.536541   6.146259   5.047405
    25  C    8.430456   2.665515   5.861403   6.606178   5.073256
    26  S    7.610082   4.343580   4.230358   7.660570   6.745601
    27  C    9.496041   4.052171   6.505288   8.009835   6.429402
    28  H    8.692333   2.171163   6.528840   6.120360   4.354339
    29  C    9.274076   4.860856   5.907094   8.638885   7.316729
    30  O   10.809260   4.917139   7.843436   8.912792   7.111975
    31  C   10.377252   6.282448   6.774516  10.060799   8.729198
    32  C   10.482075   7.283791   6.691697  10.867454   9.736489
    33  S   12.048702   7.291049   8.497825  11.233446   9.650790
    34  C   11.850867   8.577533   8.013046  12.241205  11.025953
    35  O    9.439969   7.159135   5.603057  10.432845   9.569122
    36  C   12.711024   8.692418   8.949412  12.535700  11.105243
    37  H   12.272605   9.493713   8.388513  13.054794  11.940733
    38  H   13.790325   9.657708  10.011849  13.542019  12.044455
    39  H    9.678717   8.097884   5.788852  11.203259  10.478341
    40  H   11.026757   4.634441   8.342122   8.573551   6.619446
    41  H    6.658866   4.734258   8.081708   1.090459   2.615588
    42  H    4.652795   6.647601   1.002896   7.999406   8.320535
                   21         22         23         24         25
    21  O    0.000000
    22  O    7.014692   0.000000
    23  O    8.459888   4.548340   0.000000
    24  C    7.780450   6.598583   2.942941   0.000000
    25  C    8.485304   7.932292   4.126518   1.376441   0.000000
    26  S    9.073565   6.469506   2.180447   1.758854   2.580392
    27  C    9.870880   8.711658   4.466859   2.331611   1.411792
    28  H    8.149167   8.468867   4.992784   2.170320   1.083229
    29  C   10.304754   8.173923   3.736763   2.532749   2.358458
    30  O   10.897214  10.057530   5.766858   3.640785   2.479284
    31  C   11.692117   9.046133   4.567694   3.946245   3.744303
    32  C   12.323704   8.892287   4.601407   4.785451   4.891267
    33  S   13.027172  10.780485   6.268363   5.280064   4.676118
    34  C   13.732994  10.176385   5.959977   6.139911   6.096306
    35  O   11.687247   7.723262   3.696346   4.580743   5.063932
    36  C   14.192641  11.179172   6.787731   6.446932   6.102974
    37  H   14.448191  10.457196   6.471982   7.001474   7.073681
    38  H   15.237282  12.234007   7.854626   7.481038   7.055250
    39  H   12.316655   7.765332   4.130913   5.511873   6.086397
    40  H   10.660679  10.486272   6.383674   3.930532   2.603450
    41  H    2.448551   8.350599   8.509107   7.038309   7.367120
    42  H    8.318509   2.587412   2.353147   4.991733   6.304325
                   26         27         28         29         30
    26  S    0.000000
    27  C    2.570512   0.000000
    28  H    3.630884   2.199275   0.000000
    29  C    1.741650   1.397541   3.375887   0.000000
    30  O    3.877485   1.365910   2.820201   2.386381   0.000000
    31  C    2.798469   2.542185   4.701823   1.437257   2.943540
    32  C    3.257712   3.839994   5.915795   2.540282   4.337018
    33  S    4.454024   3.272639   5.409292   2.818040   2.860072
    34  C    4.669402   4.897151   7.064932   3.750356   5.074133
    35  O    2.846288   4.329139   6.143242   2.931974   5.148674
    36  C    5.240360   4.755686   6.948783   3.919555   4.554741
    37  H    5.423172   5.925357   8.069527   4.715562   6.149279
    38  H    6.317886   5.675025   7.843671   4.949214   5.292578
    39  H    3.757751   5.385334   7.167750   3.992159   6.184158
    40  H    4.530692   1.976635   2.544904   3.229026   1.007000
    41  H    8.617541   8.771060   6.766499   9.500364   9.577725
    42  H    4.327164   6.763803   7.080758   5.974589   8.087316
                   31         32         33         34         35
    31  C    0.000000
    32  C    1.394028   0.000000
    33  S    1.761738   2.581566   0.000000
    34  C    2.363224   1.419602   2.583970   0.000000
    35  O    2.372297   1.357080   3.880597   2.480683   0.000000
    36  C    2.507400   2.317353   1.723164   1.375735   3.622416
    37  H    3.383244   2.219454   3.619820   1.077002   2.852731
    38  H    3.562640   3.363670   2.451116   2.207966   4.624164
    39  H    3.350093   2.123360   4.693050   2.777177   1.083534
    40  H    3.914365   5.307324   3.746448   6.040338   6.075715
    41  H   10.931076  11.798837  12.022020  13.157572  11.419789
    42  H    6.653905   6.367141   8.399265   7.615225   5.169353
                   36         37         38         39         40
    36  C    0.000000
    37  H    2.161067   0.000000
    38  H    1.082347   2.622209   0.000000
    39  H    4.094717   2.736654   4.977574   0.000000
    40  H    5.462339   7.116437   6.134463   7.128142   0.000000
    41  H   13.387520  14.000334  14.373950  12.212301   9.154223
    42  H    8.659372   7.875689   9.699972   5.190478   8.678590
                   41         42
    41  H    0.000000
    42  H    9.028854   0.000000
 Stoichiometry    C22H10N2O6S2
 Framework group  C1[X(C22H10N2O6S2)]
 Deg. of freedom   120
 Full point group                 C1      NOp   1
 Largest Abelian subgroup         C1      NOp   1
 Largest concise Abelian subgroup C1      NOp   1
                         Standard orientation:                         
 ---------------------------------------------------------------------
 Center     Atomic      Atomic             Coordinates (Angstroms)
 Number     Number       Type             X           Y           Z
 ---------------------------------------------------------------------
      1          6           0       -3.618389   -2.813365   -0.149407
      2          6           0       -2.808734   -1.575583   -0.039614
      3          6           0       -3.424979   -0.308711   -0.048412
      4          6           0       -4.826804   -0.191798   -0.164249
      5          6           0       -5.673945   -1.413825   -0.267217
      6          6           0       -1.442110   -1.681499    0.033328
      7          6           0       -2.604119    0.848629    0.059540
      8          6           0       -1.184614    0.744594    0.154844
      9          6           0       -0.573593   -0.545519    0.115346
     10          6           0       -0.412883    1.997564    0.402228
     11          6           0       -2.495931    3.372022    0.235274
     12          6           0       -3.257015    2.110977    0.079659
     13          6           0       -4.647834    2.202005   -0.033194
     14          6           0       -5.432957    1.051094   -0.150176
     15          1           0       -6.512728    1.115221   -0.236103
     16          1           0       -5.085009    3.192423   -0.017358
     17          1           0       -1.017033   -2.679361   -0.002465
     18          7           0       -1.115620    3.214615    0.414336
     19          7           0       -5.011156   -2.645594   -0.259639
     20          8           0       -3.130396   -3.941491   -0.139671
     21          8           0       -6.892374   -1.348745   -0.369664
     22          8           0       -3.026713    4.474286    0.226047
     23          8           0        0.797279    2.040928    0.604533
     24          6           0        0.858333   -0.857875    0.100430
     25          6           0        1.529614   -2.015943    0.421131
     26         16           0        2.003617    0.432864   -0.239996
     27          6           0        2.934315   -1.876219    0.399904
     28          1           0        1.031301   -2.945987    0.666257
     29          6           0        3.377267   -0.601723    0.035797
     30          8           0        3.849888   -2.851206    0.677099
     31          6           0        4.736103   -0.157791   -0.113197
     32          6           0        5.181212    1.120299   -0.447380
     33         16           0        6.125926   -1.220494    0.093626
     34          6           0        6.592955    1.242463   -0.532974
     35          8           0        4.269771    2.102854   -0.660750
     36          6           0        7.230276    0.054611   -0.258247
     37          1           0        7.119869    2.150408   -0.773664
     38          1           0        8.295979   -0.134348   -0.251523
     39          1           0        4.572228    3.143318   -0.659961
     40          1           0        3.438984   -3.770284    0.654679
     41          1           0       -5.689654   -3.438522    0.056598
     42          1           0       -0.495842    3.946620    0.121343
 ---------------------------------------------------------------------
 Rotational constants (GHZ):           0.2601057           0.0662907           0.0533500
 Standard basis: 6-311+G(d,p) (5D, 7F)
 There are   812 symmetry adapted cartesian basis functions of A   symmetry.
 There are   780 symmetry adapted basis functions of A   symmetry.
   780 basis functions,  1260 primitive gaussians,   812 cartesian basis functions
   118 alpha electrons      118 beta electrons
       nuclear repulsion energy      3350.3578882734 Hartrees.
 NAtoms=   42 NActive=   42 NUniq=   42 SFac= 1.00D+00 NAtFMM=   60 NAOKFM=F Big=F
 Integral buffers will be    131072 words long.
 Raffenetti 2 integral format.
 Two-electron integral symmetry is turned on.
 Nuclear repulsion after empirical dispersion term =     3350.3272376269 Hartrees.
 One-electron integrals computed using PRISM.
 NBasis=   780 RedAO= T EigKep=  1.61D-06  NBF=   780
 NBsUse=   768 1.00D-06 EigRej=  8.06D-07 NBFU=   768
 ExpMin= 4.05D-02 ExpMax= 9.34D+04 ExpMxC= 3.17D+03 IAcc=3 IRadAn=         5 AccDes= 0.00D+00
 Harris functional with IExCor= 4639 and IRadAn=       5 diagonalized for initial guess.
 HarFok:  IExCor= 4639 AccDes= 0.00D+00 IRadAn=         5 IDoV= 1 UseB2=F ITyADJ=14
 ICtDFT=  3500011 ScaDFX=  1.000000  1.000000  1.000000  1.000000
 FoFCou: FMM=F IPFlag=           0 FMFlag=      100000 FMFlg1=           0
         NFxFlg=           0 DoJE=T BraDBF=F KetDBF=T FulRan=T
         wScrn=  0.000000 ICntrl=       500 IOpCl=  0 I1Cent=   200000004 NGrid=           0
         NMat0=    1 NMatS0=      1 NMatT0=    0 NMatD0=    1 NMtDS0=    0 NMtDT0=    0
 Petite list used in FoFCou.
 Requested convergence on RMS density matrix=1.00D-08 within 128 cycles.
 Requested convergence on MAX density matrix=1.00D-06.
 Requested convergence on             energy=1.00D-06.
 No special actions if energy rises.
 SCF Done:  E(RwB97XD) =  -2201.49372635     A.U. after   20 cycles
            NFock= 20  Conv=0.60D-08     -V/T= 2.0031

 **********************************************************************

            Population analysis using the SCF Density.

 **********************************************************************

 Orbital symmetries:
       Occupied  (A) (A) (A) (A) (A) (A) (A) (A) (A) (A) (A) (A)
                 (A) (A) (A) (A) (A) (A) (A) (A) (A) (A) (A) (A)
                 (A) (A) (A) (A) (A) (A) (A) (A) (A) (A) (A) (A)
                 (A) (A) (A) (A) (A) (A) (A) (A) (A) (A) (A) (A)
                 (A) (A) (A) (A) (A) (A) (A) (A) (A) (A) (A) (A)
                 (A) (A) (A) (A) (A) (A) (A) (A) (A) (A) (A) (A)
                 (A) (A) (A) (A) (A) (A) (A) (A) (A) (A) (A) (A)
                 (A) (A) (A) (A) (A) (A) (A) (A) (A) (A) (A) (A)
                 (A) (A) (A) (A) (A) (A) (A) (A) (A) (A) (A) (A)
                 (A) (A) (A) (A) (A) (A) (A) (A) (A) (A)
       Virtual   (A) (A) (A) (A) (A) (A) (A) (A) (A) (A) (A) (A)
                 (A) (A) (A) (A) (A) (A) (A) (A) (A) (A) (A) (A)
                 (A) (A) (A) (A) (A) (A) (A) (A) (A) (A) (A) (A)
                 (A) (A) (A) (A) (A) (A) (A) (A) (A) (A) (A) (A)
                 (A) (A) (A) (A) (A) (A) (A) (A) (A) (A) (A) (A)
                 (A) (A) (A) (A) (A) (A) (A) (A) (A) (A) (A) (A)
                 (A) (A) (A) (A) (A) (A) (A) (A) (A) (A) (A) (A)
                 (A) (A) (A) (A) (A) (A) (A) (A) (A) (A) (A) (A)
                 (A) (A) (A) (A) (A) (A) (A) (A) (A) (A) (A) (A)
                 (A) (A) (A) (A) (A) (A) (A) (A) (A) (A) (A) (A)
                 (A) (A) (A) (A) (A) (A) (A) (A) (A) (A) (A) (A)
                 (A) (A) (A) (A) (A) (A) (A) (A) (A) (A) (A) (A)
                 (A) (A) (A) (A) (A) (A) (A) (A) (A) (A) (A) (A)
                 (A) (A) (A) (A) (A) (A) (A) (A) (A) (A) (A) (A)
                 (A) (A) (A) (A) (A) (A) (A) (A) (A) (A) (A) (A)
                 (A) (A) (A) (A) (A) (A) (A) (A) (A) (A) (A) (A)
                 (A) (A) (A) (A) (A) (A) (A) (A) (A) (A) (A) (A)
                 (A) (A) (A) (A) (A) (A) (A) (A) (A) (A) (A) (A)
                 (A) (A) (A) (A) (A) (A) (A) (A) (A) (A) (A) (A)
                 (A) (A) (A) (A) (A) (A) (A) (A) (A) (A) (A) (A)
                 (A) (A) (A) (A) (A) (A) (A) (A) (A) (A) (A) (A)
                 (A) (A) (A) (A) (A) (A) (A) (A) (A) (A) (A) (A)
                 (A) (A) (A) (A) (A) (A) (A) (A) (A) (A) (A) (A)
                 (A) (A) (A) (A) (A) (A) (A) (A) (A) (A) (A) (A)
                 (A) (A) (A) (A) (A) (A) (A) (A) (A) (A) (A) (A)
                 (A) (A) (A) (A) (A) (A) (A) (A) (A) (A) (A) (A)
                 (A) (A) (A) (A) (A) (A) (A) (A) (A) (A) (A) (A)
                 (A) (A) (A) (A) (A) (A) (A) (A) (A) (A) (A) (A)
                 (A) (A) (A) (A) (A) (A) (A) (A) (A) (A) (A) (A)
                 (A) (A) (A) (A) (A) (A) (A) (A) (A) (A) (A) (A)
                 (A) (A) (A) (A) (A) (A) (A) (A) (A) (A) (A) (A)
                 (A) (A) (A) (A) (A) (A) (A) (A) (A) (A) (A) (A)
                 (A) (A) (A) (A) (A) (A) (A) (A) (A) (A) (A) (A)
                 (A) (A) (A) (A) (A) (A) (A) (A) (A) (A) (A) (A)
                 (A) (A) (A) (A) (A) (A) (A) (A) (A) (A) (A) (A)
                 (A) (A) (A) (A) (A) (A) (A) (A) (A) (A) (A) (A)
                 (A) (A) (A) (A) (A) (A) (A) (A) (A) (A) (A) (A)
                 (A) (A) (A) (A) (A) (A) (A) (A) (A) (A) (A) (A)
                 (A) (A) (A) (A) (A) (A) (A) (A) (A) (A) (A) (A)
                 (A) (A) (A) (A) (A) (A) (A) (A) (A) (A) (A) (A)
                 (A) (A) (A) (A) (A) (A) (A) (A) (A) (A) (A) (A)
                 (A) (A) (A) (A) (A) (A) (A) (A) (A) (A) (A) (A)
                 (A) (A) (A) (A) (A) (A) (A) (A) (A) (A) (A) (A)
                 (A) (A) (A) (A) (A) (A) (A) (A) (A) (A) (A) (A)
                 (A) (A) (A) (A) (A) (A) (A) (A) (A) (A) (A) (A)
                 (A) (A) (A) (A) (A) (A) (A) (A) (A) (A) (A) (A)
                 (A) (A) (A) (A) (A) (A) (A) (A) (A) (A) (A) (A)
                 (A) (A) (A) (A) (A) (A) (A) (A) (A) (A) (A) (A)
                 (A) (A) (A) (A) (A) (A) (A) (A) (A) (A) (A) (A)
                 (A) (A) (A) (A) (A) (A) (A) (A) (A) (A) (A) (A)
                 (A) (A) (A) (A) (A) (A) (A) (A) (A) (A) (A) (A)
                 (A) (A) (A) (A) (A) (A) (A) (A) (A) (A) (A) (A)
                 (A) (A) (A) (A) (A) (A) (A) (A) (A) (A) (A) (A)
                 (A) (A) (A) (A) (A) (A) (A) (A) (A) (A) (A) (A)
                 (A) (A)
 The electronic state is 1-A.
 Alpha  occ. eigenvalues --  -89.05092 -89.04568 -19.30046 -19.29447 -19.25957
 Alpha  occ. eigenvalues --  -19.25851 -19.25704 -19.25331 -14.51269 -14.50279
 Alpha  occ. eigenvalues --  -10.44188 -10.44138 -10.43631 -10.43376 -10.36831
 Alpha  occ. eigenvalues --  -10.36595 -10.35852 -10.35472 -10.34981 -10.34852
 Alpha  occ. eigenvalues --  -10.34775 -10.34514 -10.34291 -10.33956 -10.33709
 Alpha  occ. eigenvalues --  -10.33353 -10.33168 -10.33069 -10.33006 -10.32658
 Alpha  occ. eigenvalues --  -10.31017 -10.30236  -8.09056  -8.08521  -6.03905
 Alpha  occ. eigenvalues --   -6.03511  -6.03361  -6.03141  -6.02929  -6.02605
 Alpha  occ. eigenvalues --   -1.19751  -1.18954  -1.17395  -1.17199  -1.17089
 Alpha  occ. eigenvalues --   -1.16279  -1.06454  -1.05957  -1.02980  -1.00114
 Alpha  occ. eigenvalues --   -0.98715  -0.97138  -0.94346  -0.90687  -0.89073
 Alpha  occ. eigenvalues --   -0.87274  -0.84189  -0.83479  -0.82498  -0.81007
 Alpha  occ. eigenvalues --   -0.80426  -0.77119  -0.76420  -0.74848  -0.72104
 Alpha  occ. eigenvalues --   -0.70621  -0.70250  -0.69054  -0.67924  -0.66153
 Alpha  occ. eigenvalues --   -0.65497  -0.64145  -0.63263  -0.61677  -0.61024
 Alpha  occ. eigenvalues --   -0.60378  -0.59627  -0.59019  -0.58037  -0.57167
 Alpha  occ. eigenvalues --   -0.56953  -0.56300  -0.55877  -0.55528  -0.54543
 Alpha  occ. eigenvalues --   -0.54345  -0.53944  -0.53334  -0.52471  -0.51988
 Alpha  occ. eigenvalues --   -0.51684  -0.51503  -0.51156  -0.51002  -0.50706
 Alpha  occ. eigenvalues --   -0.49101  -0.47389  -0.46940  -0.46456  -0.45966
 Alpha  occ. eigenvalues --   -0.45702  -0.44072  -0.43726  -0.42654  -0.42007
 Alpha  occ. eigenvalues --   -0.41089  -0.40129  -0.39368  -0.39008  -0.38601
 Alpha  occ. eigenvalues --   -0.38333  -0.37627  -0.36488  -0.34955  -0.33571
 Alpha  occ. eigenvalues --   -0.32043  -0.29815  -0.25939
 Alpha virt. eigenvalues --   -0.08265  -0.01994  -0.00872   0.01548   0.02977
 Alpha virt. eigenvalues --    0.03495   0.04792   0.05262   0.06017   0.06167
 Alpha virt. eigenvalues --    0.06524   0.06702   0.07392   0.07747   0.08052
 Alpha virt. eigenvalues --    0.08322   0.08506   0.08691   0.09013   0.09363
 Alpha virt. eigenvalues --    0.09712   0.10115   0.10486   0.10569   0.11045
 Alpha virt. eigenvalues --    0.11317   0.11628   0.11987   0.12194   0.12354
 Alpha virt. eigenvalues --    0.12948   0.13109   0.13555   0.13885   0.14109
 Alpha virt. eigenvalues --    0.14541   0.15065   0.15261   0.15367   0.15514
 Alpha virt. eigenvalues --    0.15716   0.16454   0.16834   0.17108   0.17329
 Alpha virt. eigenvalues --    0.17473   0.17846   0.18098   0.18208   0.18472
 Alpha virt. eigenvalues --    0.18575   0.19191   0.19354   0.19837   0.19998
 Alpha virt. eigenvalues --    0.20184   0.20319   0.20357   0.21048   0.21260
 Alpha virt. eigenvalues --    0.21537   0.21670   0.21746   0.21973   0.22198
 Alpha virt. eigenvalues --    0.22363   0.22588   0.22885   0.23128   0.23411
 Alpha virt. eigenvalues --    0.23512   0.23690   0.24252   0.24556   0.24623
 Alpha virt. eigenvalues --    0.25007   0.25401   0.25585   0.25816   0.25893
 Alpha virt. eigenvalues --    0.26211   0.26278   0.26644   0.26703   0.27042
 Alpha virt. eigenvalues --    0.27199   0.27694   0.27936   0.28017   0.28402
 Alpha virt. eigenvalues --    0.28648   0.28811   0.28903   0.29448   0.29606
 Alpha virt. eigenvalues --    0.29827   0.29960   0.30041   0.30198   0.30626
 Alpha virt. eigenvalues --    0.30866   0.31054   0.31198   0.31634   0.31768
 Alpha virt. eigenvalues --    0.31916   0.32199   0.32428   0.32700   0.33118
 Alpha virt. eigenvalues --    0.33244   0.33458   0.33879   0.34221   0.34386
 Alpha virt. eigenvalues --    0.34782   0.35131   0.35284   0.35611   0.36058
 Alpha virt. eigenvalues --    0.36196   0.36277   0.36655   0.36830   0.37070
 Alpha virt. eigenvalues --    0.37176   0.37262   0.37548   0.38006   0.38422
 Alpha virt. eigenvalues --    0.38589   0.39029   0.39172   0.39588   0.39687
 Alpha virt. eigenvalues --    0.39939   0.40421   0.40981   0.41041   0.41225
 Alpha virt. eigenvalues --    0.41878   0.42220   0.42742   0.43160   0.43431
 Alpha virt. eigenvalues --    0.43589   0.44354   0.44389   0.45118   0.45532
 Alpha virt. eigenvalues --    0.45559   0.46008   0.46277   0.46552   0.47851
 Alpha virt. eigenvalues --    0.48617   0.48871   0.49176   0.49283   0.49814
 Alpha virt. eigenvalues --    0.50341   0.50590   0.51377   0.52725   0.52940
 Alpha virt. eigenvalues --    0.53445   0.54275   0.54593   0.54818   0.54948
 Alpha virt. eigenvalues --    0.55856   0.56203   0.56599   0.56871   0.58282
 Alpha virt. eigenvalues --    0.58498   0.58661   0.59719   0.60259   0.60494
 Alpha virt. eigenvalues --    0.60701   0.61364   0.62186   0.62483   0.63074
 Alpha virt. eigenvalues --    0.63740   0.63927   0.64461   0.65116   0.65390
 Alpha virt. eigenvalues --    0.66017   0.66531   0.67025   0.67269   0.67428
 Alpha virt. eigenvalues --    0.67963   0.68468   0.68753   0.69198   0.69914
 Alpha virt. eigenvalues --    0.70024   0.70313   0.70744   0.71781   0.72006
 Alpha virt. eigenvalues --    0.72226   0.72678   0.72943   0.73583   0.74162
 Alpha virt. eigenvalues --    0.74565   0.75302   0.75915   0.76016   0.76583
 Alpha virt. eigenvalues --    0.76992   0.77533   0.78108   0.78630   0.78942
 Alpha virt. eigenvalues --    0.79445   0.79736   0.79785   0.80261   0.81007
 Alpha virt. eigenvalues --    0.81726   0.81794   0.81961   0.83065   0.83579
 Alpha virt. eigenvalues --    0.84520   0.84929   0.85418   0.85524   0.86276
 Alpha virt. eigenvalues --    0.86781   0.87710   0.88133   0.89140   0.89375
 Alpha virt. eigenvalues --    0.89776   0.90600   0.90979   0.91266   0.91854
 Alpha virt. eigenvalues --    0.92356   0.93565   0.94109   0.94853   0.95363
 Alpha virt. eigenvalues --    0.95794   0.96050   0.96624   0.97195   0.97966
 Alpha virt. eigenvalues --    0.98484   0.98744   0.99216   0.99547   0.99941
 Alpha virt. eigenvalues --    1.00077   1.00321   1.00681   1.01143   1.01988
 Alpha virt. eigenvalues --    1.02460   1.02765   1.02807   1.03209   1.04243
 Alpha virt. eigenvalues --    1.04852   1.05344   1.05694   1.05916   1.06437
 Alpha virt. eigenvalues --    1.07546   1.07990   1.08879   1.09034   1.10246
 Alpha virt. eigenvalues --    1.10544   1.11059   1.11668   1.11805   1.12449
 Alpha virt. eigenvalues --    1.12975   1.13362   1.14388   1.14971   1.15535
 Alpha virt. eigenvalues --    1.15840   1.16224   1.17095   1.17619   1.18378
 Alpha virt. eigenvalues --    1.18932   1.19180   1.20651   1.21066   1.21888
 Alpha virt. eigenvalues --    1.22496   1.23025   1.23288   1.24499   1.24922
 Alpha virt. eigenvalues --    1.25756   1.25933   1.26347   1.27565   1.27940
 Alpha virt. eigenvalues --    1.29104   1.29762   1.30325   1.31380   1.31930
 Alpha virt. eigenvalues --    1.32194   1.33458   1.33791   1.34426   1.34456
 Alpha virt. eigenvalues --    1.36032   1.36199   1.36558   1.37618   1.38830
 Alpha virt. eigenvalues --    1.39489   1.40797   1.41647   1.42818   1.43763
 Alpha virt. eigenvalues --    1.44323   1.45228   1.47617   1.47827   1.48292
 Alpha virt. eigenvalues --    1.49761   1.50750   1.51797   1.52019   1.52650
 Alpha virt. eigenvalues --    1.52937   1.53730   1.54525   1.54968   1.55083
 Alpha virt. eigenvalues --    1.55938   1.56242   1.56823   1.57468   1.58521
 Alpha virt. eigenvalues --    1.58683   1.59460   1.61454   1.61940   1.62853
 Alpha virt. eigenvalues --    1.63490   1.63826   1.64387   1.65442   1.66784
 Alpha virt. eigenvalues --    1.67270   1.67532   1.69662   1.70084   1.71475
 Alpha virt. eigenvalues --    1.71673   1.72104   1.72851   1.74072   1.74904
 Alpha virt. eigenvalues --    1.75310   1.75884   1.76524   1.77664   1.78040
 Alpha virt. eigenvalues --    1.79096   1.79398   1.80705   1.80848   1.81352
 Alpha virt. eigenvalues --    1.82702   1.83584   1.84813   1.84934   1.85971
 Alpha virt. eigenvalues --    1.86656   1.87801   1.89004   1.89263   1.90437
 Alpha virt. eigenvalues --    1.91781   1.92469   1.93045   1.93833   1.94507
 Alpha virt. eigenvalues --    1.94765   1.95175   1.95556   1.96336   1.96856
 Alpha virt. eigenvalues --    1.97263   1.97460   1.98728   1.99346   1.99526
 Alpha virt. eigenvalues --    2.00786   2.01156   2.02248   2.03048   2.04440
 Alpha virt. eigenvalues --    2.04709   2.05803   2.05997   2.06658   2.07513
 Alpha virt. eigenvalues --    2.08464   2.09285   2.09451   2.09992   2.12644
 Alpha virt. eigenvalues --    2.13481   2.13548   2.14490   2.15488   2.16115
 Alpha virt. eigenvalues --    2.16507   2.18511   2.19140   2.19547   2.20171
 Alpha virt. eigenvalues --    2.20391   2.22221   2.23081   2.23856   2.24115
 Alpha virt. eigenvalues --    2.24224   2.26618   2.27564   2.28899   2.29378
 Alpha virt. eigenvalues --    2.29761   2.32908   2.33585   2.35529   2.38658
 Alpha virt. eigenvalues --    2.39294   2.40289   2.43221   2.44664   2.46383
 Alpha virt. eigenvalues --    2.47294   2.49519   2.50118   2.50475   2.52729
 Alpha virt. eigenvalues --    2.55036   2.56613   2.57284   2.59604   2.62605
 Alpha virt. eigenvalues --    2.64351   2.65638   2.66889   2.68115   2.68985
 Alpha virt. eigenvalues --    2.70042   2.70845   2.71838   2.72136   2.73372
 Alpha virt. eigenvalues --    2.73602   2.76072   2.76352   2.77363   2.77942
 Alpha virt. eigenvalues --    2.78984   2.79856   2.80329   2.81603   2.81860
 Alpha virt. eigenvalues --    2.82547   2.82581   2.83983   2.85285   2.85493
 Alpha virt. eigenvalues --    2.86109   2.87084   2.87459   2.89389   2.90513
 Alpha virt. eigenvalues --    2.91322   2.92507   2.92820   2.93629   2.94375
 Alpha virt. eigenvalues --    2.95529   2.97427   2.97623   2.98700   2.99625
 Alpha virt. eigenvalues --    3.00405   3.00731   3.01198   3.02318   3.02830
 Alpha virt. eigenvalues --    3.03012   3.03834   3.05804   3.06103   3.06410
 Alpha virt. eigenvalues --    3.07405   3.07738   3.09258   3.11294   3.12306
 Alpha virt. eigenvalues --    3.14018   3.15361   3.18172   3.20043   3.21815
 Alpha virt. eigenvalues --    3.22739   3.23290   3.25260   3.26064   3.26871
 Alpha virt. eigenvalues --    3.27450   3.28387   3.30055   3.31386   3.31886
 Alpha virt. eigenvalues --    3.33748   3.36237   3.37034   3.39552   3.40352
 Alpha virt. eigenvalues --    3.41556   3.41746   3.42347   3.42514   3.43330
 Alpha virt. eigenvalues --    3.43802   3.45861   3.46413   3.48195   3.48940
 Alpha virt. eigenvalues --    3.50283   3.50900   3.51668   3.52170   3.52956
 Alpha virt. eigenvalues --    3.55693   3.56757   3.59319   3.62247   3.64183
 Alpha virt. eigenvalues --    3.66170   3.67660   3.67890   3.69220   3.72838
 Alpha virt. eigenvalues --    3.74041   3.76248   3.84187   3.87518   3.90556
 Alpha virt. eigenvalues --    3.94183   3.94581   3.94900   3.96341   3.98876
 Alpha virt. eigenvalues --    4.00978   4.02913   4.07490   4.10515   4.11747
 Alpha virt. eigenvalues --    4.18135   4.21058   4.27358   4.31290   4.32420
 Alpha virt. eigenvalues --    4.34213   4.42438   4.44323   4.47746   4.59080
 Alpha virt. eigenvalues --    4.72859   4.79472   4.88124   4.92871   4.94601
 Alpha virt. eigenvalues --    5.12617   5.12792   5.14176   5.15690   5.16418
 Alpha virt. eigenvalues --    5.17765   5.19621   5.21160   5.30849   5.33703
 Alpha virt. eigenvalues --    5.36033   5.39057   5.41410   5.51932   5.79350
 Alpha virt. eigenvalues --    5.82478   5.84624   5.88770   5.89577   5.93220
 Alpha virt. eigenvalues --    8.11741   8.17208  17.42857  17.48240  17.62916
 Alpha virt. eigenvalues --   17.66825  17.73324  17.79556  23.58389  23.67389
 Alpha virt. eigenvalues --   23.81600  23.90180  23.92561  23.94486  23.95341
 Alpha virt. eigenvalues --   23.97232  23.97859  23.98558  24.01023  24.04722
 Alpha virt. eigenvalues --   24.06737  24.09975  24.12935  24.13666  24.14449
 Alpha virt. eigenvalues --   24.15928  24.24711  24.24863  24.25694  24.26212
 Alpha virt. eigenvalues --   35.68729  35.74686  50.05598  50.07793  50.12606
 Alpha virt. eigenvalues --   50.14255  50.17447  50.19084 189.36930 189.43174
          Condensed to atoms (all electrons):
               1          2          3          4          5          6
     1  C   14.732260  -5.631493  -0.528912   2.572400  -3.045421  -1.079551
     2  C   -5.631493  13.489327   0.279431  -0.667367   2.090079  -0.812111
     3  C   -0.528912   0.279431   6.821120   0.566200  -0.750221   0.494447
     4  C    2.572400  -0.667367   0.566200  14.385534  -3.784280  -0.680627
     5  C   -3.045421   2.090079  -0.750221  -3.784280  11.233318   0.250640
     6  C   -1.079551  -0.812111   0.494447  -0.680627   0.250640  10.741855
     7  C   -1.313620   1.173579   1.208227  -0.624604  -0.163458   0.870241
     8  C   -0.220206  -0.378721   0.307449   0.055010   0.173245   1.329505
     9  C   -1.139022   0.044672  -0.160625  -0.380887   0.453431  -1.701570
    10  C    0.043503  -0.472907  -0.053570  -0.161479  -0.106161  -1.840557
    11  C    0.161337   0.494888  -1.350120   0.545296  -0.134390  -0.060219
    12  C    0.606974   0.183189   0.736720   0.386836  -0.458697  -0.061265
    13  C    0.091383  -1.321450  -0.768733  -6.324762   0.129816   0.420987
    14  C   -0.432252  -1.328597  -0.558141  -0.183382  -0.264945   0.335233
    15  H    0.001194  -0.005844   0.012370  -0.059159  -0.010268   0.000072
    16  H   -0.000975  -0.001937  -0.000749  -0.001719   0.005435   0.000215
    17  H    0.005947  -0.067053  -0.003724  -0.003468   0.003302   0.377718
    18  N    0.002223   0.045298  -0.021853   0.015841   0.000948   0.044133
    19  N    0.161313  -0.354345  -0.049472  -0.090323   0.000566   0.117855
    20  O    0.248202  -0.073676  -0.003344  -0.037943   0.088640   0.045504
    21  O    0.101928  -0.068837   0.018554  -0.245597   0.304101   0.000884
    22  O    0.000701  -0.002280  -0.010816   0.008710  -0.000055  -0.001365
    23  O    0.001669   0.030272   0.044666  -0.002921   0.000194  -0.055685
    24  C    0.820304  -0.734542  -0.322805   0.168813  -0.018104  -1.122192
    25  C   -0.374018   0.009814  -0.175414   0.061587   0.023891   1.286133
    26  S    0.001935  -0.008972   0.133829  -0.007976   0.001531  -0.891369
    27  C   -0.019845   0.001702  -0.080786   0.007623   0.001543  -0.090545
    28  H   -0.005862  -0.010599   0.000536  -0.000132   0.000099   0.000299
    29  C    0.013444   0.160311  -0.055255   0.029081  -0.000139  -1.879001
    30  O   -0.000140   0.001619   0.000073   0.000073  -0.000000  -0.012443
    31  C   -0.004170  -0.020892   0.001567   0.000800   0.000454   0.072221
    32  C    0.000028   0.003130  -0.001721   0.000294   0.000004  -0.110154
    33  S   -0.000203  -0.001733  -0.000613   0.000000   0.000008   0.018268
    34  C   -0.000134  -0.002498  -0.000202  -0.000067  -0.000004  -0.015169
    35  O   -0.000001   0.000257   0.000130   0.000005   0.000000  -0.004924
    36  C    0.000015   0.000261   0.000017   0.000012   0.000001   0.003262
    37  H    0.000000   0.000000   0.000000  -0.000000  -0.000000   0.000000
    38  H    0.000000   0.000000   0.000000  -0.000000  -0.000000  -0.000002
    39  H   -0.000000   0.000006   0.000004   0.000001   0.000000   0.000038
    40  H   -0.000032  -0.001378  -0.000018  -0.000029   0.000000   0.006477
    41  H    0.036906  -0.047051  -0.003337   0.013253  -0.022127   0.012054
    42  H   -0.000224  -0.002470   0.000755  -0.000164  -0.000016   0.000748
               7          8          9         10         11         12
     1  C   -1.313620  -0.220206  -1.139022   0.043503   0.161337   0.606974
     2  C    1.173579  -0.378721   0.044672  -0.472907   0.494888   0.183189
     3  C    1.208227   0.307449  -0.160625  -0.053570  -1.350120   0.736720
     4  C   -0.624604   0.055010  -0.380887  -0.161479   0.545296   0.386836
     5  C   -0.163458   0.173245   0.453431  -0.106161  -0.134390  -0.458697
     6  C    0.870241   1.329505  -1.701570  -1.840557  -0.060219  -0.061265
     7  C    7.949073   0.071547  -0.343744  -0.838647  -1.284175   0.923995
     8  C    0.071547   9.916748   0.315613  -2.540038   0.409997   0.349361
     9  C   -0.343744   0.315613   8.934233   0.838333  -0.572992  -0.269200
    10  C   -0.838647  -2.540038   0.838333  12.111997  -2.471844   1.587961
    11  C   -1.284175   0.409997  -0.572992  -2.471844  13.387245  -4.378848
    12  C    0.923995   0.349361  -0.269200   1.587961  -4.378848  15.151691
    13  C   -0.624678  -0.936429   0.068053  -0.386379   0.230556  -1.153207
    14  C   -0.116693  -1.632930  -0.195340  -0.342595   0.511617  -6.816513
    15  H   -0.006272  -0.001080   0.000009  -0.000586   0.004591   0.012116
    16  H    0.024204  -0.010777   0.001735   0.003534  -0.033565  -0.052631
    17  H   -0.023683   0.018303  -0.012881   0.009172  -0.000743  -0.000712
    18  N    0.058550  -0.045675  -0.014808  -0.189206   0.175381  -0.048081
    19  N   -0.095508   0.036408  -0.001158   0.009592  -0.001623   0.006689
    20  O   -0.024090   0.021252   0.076980   0.002160   0.000347  -0.002238
    21  O   -0.028835   0.003136   0.001260   0.000313   0.002258   0.022552
    22  O    0.003084  -0.074150   0.006077   0.105244   0.223796  -0.206025
    23  O    0.054011   0.114377   0.293705   0.065659  -0.099941   0.007107
    24  C   -0.830465   0.900226  -0.534374   0.726371   0.309156  -0.665212
    25  C   -0.276397  -1.718590  -1.221859   0.354502   0.051222  -0.277538
    26  S    0.100686   1.202380   1.431626  -1.012925  -0.369064   0.182780
    27  C   -0.065202  -1.046313  -0.635118   0.220944   0.030442  -0.087011
    28  H   -0.000600   0.014675   0.039255   0.003591  -0.000226  -0.000305
    29  C   -0.079850  -0.756447   0.893279   0.529281   0.024718   0.067526
    30  O   -0.000350   0.004667   0.000801   0.000807  -0.000031   0.000236
    31  C   -0.010513  -0.004734  -0.285273  -0.041034   0.002331  -0.002513
    32  C   -0.014553  -0.115142  -0.048577   0.154273   0.000754   0.011975
    33  S    0.001271  -0.010003  -0.007455   0.000352   0.000528  -0.000631
    34  C   -0.002680  -0.012831   0.002117   0.027265  -0.000509   0.000968
    35  O   -0.000013   0.004492   0.022556  -0.000937  -0.000681   0.001134
    36  C   -0.000034  -0.000426  -0.012808   0.001460   0.000054   0.000046
    37  H    0.000000   0.000009   0.000027  -0.000027  -0.000000   0.000000
    38  H   -0.000000   0.000002   0.000014  -0.000004  -0.000000   0.000000
    39  H   -0.000090  -0.000104  -0.000395   0.001146  -0.000055   0.000128
    40  H   -0.000044  -0.002263  -0.000971   0.000063   0.000000  -0.000048
    41  H   -0.006059   0.001421  -0.001735   0.000072   0.000206   0.003267
    42  H   -0.003100  -0.005086   0.005577   0.017620  -0.050770   0.033754
              13         14         15         16         17         18
     1  C    0.091383  -0.432252   0.001194  -0.000975   0.005947   0.002223
     2  C   -1.321450  -1.328597  -0.005844  -0.001937  -0.067053   0.045298
     3  C   -0.768733  -0.558141   0.012370  -0.000749  -0.003724  -0.021853
     4  C   -6.324762  -0.183382  -0.059159  -0.001719  -0.003468   0.015841
     5  C    0.129816  -0.264945  -0.010268   0.005435   0.003302   0.000948
     6  C    0.420987   0.335233   0.000072   0.000215   0.377718   0.044133
     7  C   -0.624678  -0.116693  -0.006272   0.024204  -0.023683   0.058550
     8  C   -0.936429  -1.632930  -0.001080  -0.010777   0.018303  -0.045675
     9  C    0.068053  -0.195340   0.000009   0.001735  -0.012881  -0.014808
    10  C   -0.386379  -0.342595  -0.000586   0.003534   0.009172  -0.189206
    11  C    0.230556   0.511617   0.004591  -0.033565  -0.000743   0.175381
    12  C   -1.153207  -6.816513   0.012116  -0.052631  -0.000712  -0.048081
    13  C   17.813262  -1.303548  -0.030740   0.455019  -0.000035   0.015053
    14  C   -1.303548  18.525121   0.439618  -0.032273  -0.000849   0.023198
    15  H   -0.030740   0.439618   0.450051  -0.004176  -0.000000   0.000108
    16  H    0.455019  -0.032273  -0.004176   0.447529   0.000000  -0.001629
    17  H   -0.000035  -0.000849  -0.000000   0.000000   0.465450  -0.000050
    18  N    0.015053   0.023198   0.000108  -0.001629  -0.000050   7.285458
    19  N    0.045610   0.022515  -0.002106   0.000083  -0.001222  -0.000043
    20  O   -0.002793   0.000695  -0.000004   0.000001   0.009881  -0.000024
    21  O    0.178087   0.025087   0.007652   0.000045  -0.000007  -0.000044
    22  O    0.077630   0.196590   0.000029   0.008823   0.000000  -0.045806
    23  O   -0.040974  -0.014492   0.000001  -0.000015   0.000037  -0.138776
    24  C   -0.149368  -0.298941  -0.000053  -0.000277  -0.035374  -0.080773
    25  C    0.044263   0.014908   0.000003   0.000005   0.042156  -0.032284
    26  S   -0.010406   0.012202   0.000004  -0.000014   0.004658  -0.099052
    27  C   -0.002310  -0.004492  -0.000000  -0.000002   0.019663  -0.008855
    28  H   -0.000063  -0.000013  -0.000000  -0.000000   0.001265   0.000005
    29  C    0.025324   0.004430  -0.000001  -0.000001   0.004711   0.014139
    30  O    0.000016   0.000010   0.000000   0.000000   0.000135   0.000009
    31  C    0.000383   0.000267  -0.000000   0.000000   0.000389   0.008088
    32  C    0.001830   0.000291  -0.000000   0.000000   0.000119   0.006605
    33  S    0.000001  -0.000003  -0.000000  -0.000000   0.000005   0.000688
    34  C    0.000093   0.000020  -0.000000   0.000000   0.000020  -0.000365
    35  O    0.000083   0.000013  -0.000000  -0.000000   0.000001  -0.000750
    36  C    0.000003  -0.000000   0.000000   0.000000   0.000001   0.000169
    37  H    0.000000   0.000000  -0.000000   0.000000  -0.000000   0.000001
    38  H    0.000000   0.000000  -0.000000   0.000000   0.000000  -0.000000
    39  H    0.000004   0.000000  -0.000000  -0.000000  -0.000000   0.000055
    40  H   -0.000002  -0.000002   0.000000   0.000000  -0.000086  -0.000002
    41  H    0.004527   0.013633  -0.000012  -0.000000  -0.000025  -0.000000
    42  H    0.014140   0.004837  -0.000000  -0.000022   0.000001   0.286976
              19         20         21         22         23         24
     1  C    0.161313   0.248202   0.101928   0.000701   0.001669   0.820304
     2  C   -0.354345  -0.073676  -0.068837  -0.002280   0.030272  -0.734542
     3  C   -0.049472  -0.003344   0.018554  -0.010816   0.044666  -0.322805
     4  C   -0.090323  -0.037943  -0.245597   0.008710  -0.002921   0.168813
     5  C    0.000566   0.088640   0.304101  -0.000055   0.000194  -0.018104
     6  C    0.117855   0.045504   0.000884  -0.001365  -0.055685  -1.122192
     7  C   -0.095508  -0.024090  -0.028835   0.003084   0.054011  -0.830465
     8  C    0.036408   0.021252   0.003136  -0.074150   0.114377   0.900226
     9  C   -0.001158   0.076980   0.001260   0.006077   0.293705  -0.534374
    10  C    0.009592   0.002160   0.000313   0.105244   0.065659   0.726371
    11  C   -0.001623   0.000347   0.002258   0.223796  -0.099941   0.309156
    12  C    0.006689  -0.002238   0.022552  -0.206025   0.007107  -0.665212
    13  C    0.045610  -0.002793   0.178087   0.077630  -0.040974  -0.149368
    14  C    0.022515   0.000695   0.025087   0.196590  -0.014492  -0.298941
    15  H   -0.002106  -0.000004   0.007652   0.000029   0.000001  -0.000053
    16  H    0.000083   0.000001   0.000045   0.008823  -0.000015  -0.000277
    17  H   -0.001222   0.009881  -0.000007   0.000000   0.000037  -0.035374
    18  N   -0.000043  -0.000024  -0.000044  -0.045806  -0.138776  -0.080773
    19  N    7.268314  -0.062755  -0.048878  -0.000014   0.000060   0.045795
    20  O   -0.062755   7.975767   0.001664  -0.000000  -0.000003   0.006127
    21  O   -0.048878   0.001664   7.981688   0.000018  -0.000000   0.000012
    22  O   -0.000014  -0.000000   0.000018   7.974715  -0.000542  -0.004186
    23  O    0.000060  -0.000003  -0.000000  -0.000542   8.628206  -0.628648
    24  C    0.045795   0.006127   0.000012  -0.004186  -0.628648  20.273875
    25  C    0.001249   0.000186   0.000172  -0.000196  -0.298426  -1.647928
    26  S    0.003053  -0.002246  -0.000032   0.000436   0.203575  -0.499502
    27  C    0.000467   0.001660   0.000004  -0.000077  -0.104216  -3.733362
    28  H   -0.000028   0.000011   0.000000  -0.000000   0.000193   0.090474
    29  C    0.001879  -0.001187   0.000001   0.000509   0.117871  -5.116145
    30  O    0.000002  -0.000008   0.000000   0.000000   0.000544   0.063241
    31  C   -0.000012   0.000049   0.000000  -0.000032  -0.063245   0.247773
    32  C    0.000001  -0.000002  -0.000000   0.000071  -0.016687  -1.488548
    33  S   -0.000000   0.000005   0.000000  -0.000000  -0.002502   0.214272
    34  C   -0.000000  -0.000000  -0.000000   0.000003   0.007190  -0.199916
    35  O    0.000000  -0.000000  -0.000000   0.000001   0.023697  -0.107013
    36  C   -0.000000   0.000000   0.000000  -0.000000  -0.002095  -0.002215
    37  H    0.000000  -0.000000  -0.000000   0.000000   0.000003   0.000247
    38  H    0.000000  -0.000000  -0.000000  -0.000000   0.000000  -0.000233
    39  H    0.000000   0.000000   0.000000   0.000000  -0.000372   0.000094
    40  H   -0.000001   0.000001  -0.000000  -0.000000  -0.000054  -0.055004
    41  H    0.278607   0.009019   0.007912   0.000000  -0.000000   0.000785
    42  H   -0.000000  -0.000000  -0.000000   0.009937   0.010437  -0.015801
              25         26         27         28         29         30
     1  C   -0.374018   0.001935  -0.019845  -0.005862   0.013444  -0.000140
     2  C    0.009814  -0.008972   0.001702  -0.010599   0.160311   0.001619
     3  C   -0.175414   0.133829  -0.080786   0.000536  -0.055255   0.000073
     4  C    0.061587  -0.007976   0.007623  -0.000132   0.029081   0.000073
     5  C    0.023891   0.001531   0.001543   0.000099  -0.000139  -0.000000
     6  C    1.286133  -0.891369  -0.090545   0.000299  -1.879001  -0.012443
     7  C   -0.276397   0.100686  -0.065202  -0.000600  -0.079850  -0.000350
     8  C   -1.718590   1.202380  -1.046313   0.014675  -0.756447   0.004667
     9  C   -1.221859   1.431626  -0.635118   0.039255   0.893279   0.000801
    10  C    0.354502  -1.012925   0.220944   0.003591   0.529281   0.000807
    11  C    0.051222  -0.369064   0.030442  -0.000226   0.024718  -0.000031
    12  C   -0.277538   0.182780  -0.087011  -0.000305   0.067526   0.000236
[...]
    35  O    0.000001   0.000002  -0.000000   0.000000  -0.000003  -0.000216
    36  C   -0.000012  -0.000001  -0.000000  -0.000000   0.000000  -0.000091
    37  H   -0.000000  -0.000000   0.000000  -0.000000  -0.000000   0.000000
    38  H    0.000000  -0.000000   0.000000   0.000000  -0.000000  -0.000000
    39  H    0.000002   0.000000  -0.000000  -0.000000  -0.000000  -0.000049
    40  H    0.000001   0.000000   0.000000  -0.000000  -0.000038   0.000001
    41  H    0.001584   0.001803  -0.000012   0.000000  -0.000013  -0.000001
    42  H   -0.007601  -0.001463   0.000000  -0.000002  -0.000000   0.333479
              19         20         21         22         23         24
     1  C    0.061381   0.289245   0.096085   0.000707  -0.003163   0.570105
     2  C   -0.157883  -0.135943  -0.059260  -0.002358  -0.020055  -0.190732
     3  C   -0.082985   0.016406   0.025809  -0.016636  -0.016953  -0.743157
     4  C   -0.104021  -0.043306  -0.214407   0.002455   0.000545   0.101017
     5  C    0.066264   0.083955   0.285329  -0.000870   0.000717   0.003334
     6  C    0.065351   0.055304   0.002146  -0.001493  -0.002883  -1.175708
     7  C   -0.083185  -0.027913  -0.032153   0.022079   0.041827  -0.609240
     8  C    0.030286   0.025199   0.003243  -0.086156  -0.251515  -0.642621
     9  C    0.012090   0.049967   0.000140   0.002724  -0.044178   0.302379
    10  C    0.011428   0.000369   0.000148   0.105237   0.459260   2.314459
    11  C   -0.007248   0.000729   0.002504   0.259243   0.096124   0.018404
    12  C    0.002799   0.000534   0.027217  -0.278423  -0.029980  -0.532842
    13  C    0.039742  -0.003744   0.141454   0.110461   0.008526  -0.267840
    14  C    0.020426  -0.003411   0.015099   0.185977   0.001043  -0.314040
    15  H   -0.001402  -0.000008   0.006734   0.000059   0.000001  -0.000000
    16  H    0.000155   0.000001   0.000053   0.006433  -0.000009  -0.000310
    17  H   -0.001240   0.008638  -0.000011   0.000001  -0.000065  -0.039142
    18  N   -0.000165   0.000035  -0.000061  -0.051693  -0.049871  -0.220160
    19  N    7.308309  -0.050628  -0.035317  -0.000032  -0.000061   0.010565
    20  O   -0.050628   7.995776   0.001872  -0.000001   0.000015   0.027948
    21  O   -0.035317   0.001872   7.992509   0.000016   0.000000   0.000337
    22  O   -0.000032  -0.000001   0.000016   8.012761   0.001878  -0.001788
    23  O   -0.000061   0.000015   0.000000   0.001878   8.048272  -0.022526
    24  C    0.010565   0.027948   0.000337  -0.001788  -0.022526  16.688622
    25  C    0.008212  -0.025329   0.000027  -0.000114  -0.059407  -0.424738
    26  S   -0.000567   0.002655   0.000020   0.001555   0.055047  -0.342193
    27  C    0.002454  -0.004029  -0.000001   0.000005  -0.038687  -4.826600
    28  H   -0.000014   0.000045  -0.000000   0.000000  -0.000156   0.024676
    29  C    0.000471   0.000781   0.000007   0.000272   0.039375  -2.723041
    30  O    0.000000   0.000003   0.000000  -0.000000   0.000248   0.154141
    31  C    0.000032   0.000001  -0.000000  -0.000006  -0.011411  -0.063774
    32  C   -0.000000   0.000013   0.000000   0.000015   0.005892  -1.204177
    33  S    0.000003  -0.000000   0.000000   0.000000  -0.000550   0.126556
    34  C    0.000000   0.000000   0.000000   0.000004   0.001137  -0.150859
    35  O    0.000000  -0.000000  -0.000000  -0.000000   0.000978   0.004426
    36  C    0.000000  -0.000000  -0.000000  -0.000000  -0.000272  -0.003690
    37  H    0.000000   0.000000   0.000000  -0.000000   0.000000   0.000179
    38  H   -0.000000   0.000000  -0.000000   0.000000   0.000000  -0.000043
    39  H    0.000000  -0.000000  -0.000000   0.000000   0.000044  -0.015815
    40  H    0.000000   0.000001   0.000000   0.000000  -0.000003  -0.084508
    41  H    0.338773   0.003951   0.002185  -0.000000  -0.000000   0.000268
    42  H    0.000000  -0.000000  -0.000000   0.002073   0.004523   0.002333
              25         26         27         28         29         30
     1  C    0.111181  -0.112283   0.053192  -0.000577   0.003246  -0.001056
     2  C    0.133542  -0.146940   0.068634  -0.008336  -0.093487   0.001095
     3  C   -0.119477   0.107253  -0.061624   0.000073  -0.085637   0.000277
     4  C    0.106820  -0.016804   0.025782  -0.000289   0.005789   0.000026
     5  C   -0.007963   0.009361  -0.001181   0.000005   0.000290   0.000001
     6  C   -0.353824   0.173324  -0.536082  -0.018341  -0.552455   0.006242
     7  C   -0.337836   0.124509  -0.115266  -0.001243   0.037460   0.000168
     8  C   -1.501482   1.289539  -1.028807   0.000138  -0.301519   0.010634
     9  C   -0.723453   0.723953  -0.823527   0.044807  -0.103582  -0.002447
    10  C    0.514379  -1.032149   0.203435   0.007989   0.059481  -0.002351
    11  C   -0.063355   0.005207  -0.010127  -0.000234   0.057265   0.000011
    12  C   -0.131688   0.152274  -0.058791  -0.000487  -0.005404   0.000162
    13  C    0.026565   0.052573  -0.001501  -0.000084   0.008470   0.000010
    14  C    0.018739   0.044796  -0.001240  -0.000089   0.004461   0.000010
    15  H    0.000007  -0.000002  -0.000000   0.000000   0.000000  -0.000000
    16  H   -0.000007   0.000049  -0.000003  -0.000000  -0.000001   0.000000
    17  H    0.044269  -0.005326   0.027988   0.000462   0.004301   0.000073
    18  N   -0.069757   0.086246  -0.020013  -0.000068   0.018596   0.000052
    19  N    0.008212  -0.000567   0.002454  -0.000014   0.000471   0.000000
    20  O   -0.025329   0.002655  -0.004029   0.000045   0.000781   0.000003
    21  O    0.000027   0.000020  -0.000001  -0.000000   0.000007   0.000000
    22  O   -0.000114   0.001555   0.000005   0.000000   0.000272  -0.000000
    23  O   -0.059407   0.055047  -0.038687  -0.000156   0.039375   0.000248
    24  C   -0.424738  -0.342193  -4.826600   0.024676  -2.723041   0.154141
    25  C   13.821605  -3.123888   3.125917   0.390071  -3.385477  -0.072239
    26  S   -3.123888  20.458368  -2.440476   0.020063   0.620376   0.031869
    27  C    3.125917  -2.440476  14.429090  -0.128406   0.316325   0.154875
    28  H    0.390071   0.020063  -0.128406   0.510834   0.020983  -0.003511
    29  C   -3.385477   0.620376   0.316325   0.020983  11.938144  -0.233271
    30  O   -0.072239   0.031869   0.154875  -0.003511  -0.233271   8.059530
    31  C   -0.814383   0.436542  -0.338937  -0.005677   0.507455  -0.039037
    32  C   -0.226474  -0.192334  -1.434934   0.000953  -0.791327   0.027511
    33  S   -0.167235  -0.005655   0.207556   0.000548   0.647630  -0.065998
    34  C   -0.248780  -0.304227  -0.081495   0.000111  -0.485234  -0.009619
    35  O   -0.005379  -0.020562   0.037920   0.000025  -0.011596  -0.001010
    36  C   -0.059736   0.150846  -0.395644   0.000028  -0.007793   0.010213
    37  H   -0.000055   0.001162   0.000540   0.000000  -0.002981   0.000023
    38  H    0.000464  -0.001271   0.005405   0.000000  -0.004089  -0.000040
    39  H    0.001958  -0.006322  -0.002064   0.000000   0.043565  -0.000025
    40  H   -0.154944  -0.011083   0.142796   0.001029   0.099813   0.212340
    41  H    0.000116  -0.000033   0.000019   0.000000  -0.000000  -0.000000
    42  H   -0.000813  -0.002548  -0.000224   0.000000   0.000103   0.000000
              31         32         33         34         35         36
     1  C   -0.000443  -0.002356   0.000273  -0.000306  -0.000007   0.000003
     2  C   -0.006286  -0.024978   0.002539  -0.001587  -0.000155  -0.000170
     3  C   -0.000309  -0.005090   0.000126  -0.000002   0.000010   0.000011
     4  C    0.000331  -0.000319   0.000112   0.000083  -0.000020  -0.000009
     5  C   -0.000036   0.000070   0.000012   0.000012  -0.000002  -0.000001
     6  C   -0.042366  -0.100476   0.001991  -0.006144  -0.001929  -0.001356
     7  C   -0.013595  -0.006764  -0.000047  -0.000259  -0.000202  -0.000371
     8  C   -0.016979  -0.078610  -0.010950  -0.013690  -0.005019   0.001218
     9  C   -0.138136  -0.145868   0.012415   0.022861   0.005252  -0.009262
    10  C   -0.019726   0.062694   0.004029   0.007728   0.006880   0.000057
    11  C   -0.006877  -0.001630  -0.000172  -0.001081   0.000006  -0.000059
    12  C    0.003971  -0.002425  -0.000065   0.000529   0.000016  -0.000081
    13  C   -0.000018  -0.000304  -0.000008   0.000000   0.000001  -0.000012
    14  C    0.000085  -0.000004  -0.000008  -0.000002   0.000002  -0.000001
    15  H   -0.000000  -0.000000  -0.000000   0.000000  -0.000000  -0.000000
    16  H   -0.000000   0.000000  -0.000000   0.000000   0.000000  -0.000000
    17  H    0.000381   0.000016   0.000157   0.000036  -0.000003   0.000000
    18  N    0.001529  -0.004712   0.000083  -0.000238  -0.000216  -0.000091
    19  N    0.000032  -0.000000   0.000003   0.000000   0.000000   0.000000
    20  O    0.000001   0.000013  -0.000000   0.000000  -0.000000  -0.000000
    21  O   -0.000000   0.000000   0.000000   0.000000  -0.000000  -0.000000
    22  O   -0.000006   0.000015   0.000000   0.000004  -0.000000  -0.000000
    23  O   -0.011411   0.005892  -0.000550   0.001137   0.000978  -0.000272
    24  C   -0.063774  -1.204177   0.126556  -0.150859   0.004426  -0.003690
    25  C   -0.814383  -0.226474  -0.167235  -0.248780  -0.005379  -0.059736
    26  S    0.436542  -0.192334  -0.005655  -0.304227  -0.020562   0.150846
    27  C   -0.338937  -1.434934   0.207556  -0.081495   0.037920  -0.395644
    28  H   -0.005677   0.000953   0.000548   0.000111   0.000025   0.000028
    29  C    0.507455  -0.791327   0.647630  -0.485234  -0.011596  -0.007793
    30  O   -0.039037   0.027511  -0.065998  -0.009619  -0.001010   0.010213
    31  C   10.915097  -5.481682   0.433734   1.023132   0.049157  -1.169552
    32  C   -5.481682  22.503561  -2.512007  -7.310703  -0.089762   2.530030
    33  S    0.433734  -2.512007  17.455503   0.269412   0.036885  -0.128159
    34  C    1.023132  -7.310703   0.269412  14.754218   0.002336  -1.425060
    35  O    0.049157  -0.089762   0.036885   0.002336   8.051031   0.004651
    36  C   -1.169552   2.530030  -0.128159  -1.425060   0.004651   6.414855
    37  H    0.027471  -0.138464   0.010954   0.438551  -0.002228   0.022172
    38  H    0.049047  -0.078421  -0.031383   0.084529  -0.000341   0.342891
    39  H   -0.032151   0.307248  -0.010764  -0.257316   0.197673   0.003684
    40  H    0.035011  -0.002543   0.009304   0.003579  -0.000028  -0.004482
    41  H    0.000000  -0.000000   0.000000  -0.000000   0.000000   0.000000
    42  H   -0.000136   0.000161  -0.000004   0.000002   0.000008   0.000001
              37         38         39         40         41         42
     1  C    0.000000  -0.000000   0.000001   0.000286  -0.015333  -0.000054
     2  C    0.000000  -0.000000   0.000001   0.000464  -0.004866   0.000683
     3  C   -0.000000   0.000000  -0.000015  -0.000020   0.004027  -0.000015
     4  C    0.000000  -0.000000  -0.000001   0.000006   0.009087   0.001400
     5  C    0.000000  -0.000000  -0.000000  -0.000002  -0.035181   0.000017
     6  C    0.000001   0.000001  -0.000563  -0.001696   0.005720  -0.001288
     7  C    0.000000   0.000000  -0.000085   0.000032  -0.002113   0.008298
     8  C   -0.000002   0.000001  -0.001368  -0.002573   0.000678   0.029016
     9  C    0.000013   0.000009  -0.000930  -0.004769   0.000032  -0.000132
    10  C    0.000003  -0.000000   0.001350   0.000312   0.000089  -0.030491
    11  C    0.000000   0.000000   0.000008   0.000008  -0.000109  -0.019898
    12  C   -0.000000   0.000000   0.000014   0.000010   0.000120  -0.003338
    13  C   -0.000000   0.000000   0.000002   0.000001   0.001584  -0.007601
    14  C   -0.000000  -0.000000   0.000000   0.000000   0.001803  -0.001463
    15  H    0.000000   0.000000  -0.000000   0.000000  -0.000012   0.000000
    16  H   -0.000000   0.000000  -0.000000  -0.000000   0.000000  -0.000002
    17  H   -0.000000  -0.000000  -0.000000  -0.000038  -0.000013  -0.000000
    18  N    0.000000  -0.000000  -0.000049   0.000001  -0.000001   0.333479
    19  N    0.000000  -0.000000   0.000000   0.000000   0.338773   0.000000
    20  O    0.000000   0.000000  -0.000000   0.000001   0.003951  -0.000000
    21  O    0.000000  -0.000000  -0.000000   0.000000   0.002185  -0.000000
    22  O   -0.000000   0.000000   0.000000   0.000000  -0.000000   0.002073
    23  O    0.000000   0.000000   0.000044  -0.000003  -0.000000   0.004523
    24  C    0.000179  -0.000043  -0.015815  -0.084508   0.000268   0.002333
    25  C   -0.000055   0.000464   0.001958  -0.154944   0.000116  -0.000813
    26  S    0.001162  -0.001271  -0.006322  -0.011083  -0.000033  -0.002548
    27  C    0.000540   0.005405  -0.002064   0.142796   0.000019  -0.000224
    28  H    0.000000   0.000000   0.000000   0.001029   0.000000   0.000000
    29  C   -0.002981  -0.004089   0.043565   0.099813  -0.000000   0.000103
    30  O    0.000023  -0.000040  -0.000025   0.212340  -0.000000   0.000000
    31  C    0.027471   0.049047  -0.032151   0.035011   0.000000  -0.000136
    32  C   -0.138464  -0.078421   0.307248  -0.002543  -0.000000   0.000161
    33  S    0.010954  -0.031383  -0.010764   0.009304   0.000000  -0.000004
    34  C    0.438551   0.084529  -0.257316   0.003579  -0.000000   0.000002
    35  O   -0.002228  -0.000341   0.197673  -0.000028   0.000000   0.000008
    36  C    0.022172   0.342891   0.003684  -0.004482   0.000000   0.000001
    37  H    0.500188  -0.003564   0.001967   0.000000  -0.000000  -0.000000
    38  H   -0.003564   0.446340   0.000016  -0.000002   0.000000   0.000000
    39  H    0.001967   0.000016   0.486149  -0.000000   0.000000   0.000001
    40  H    0.000000  -0.000002  -0.000000   0.478697   0.000000  -0.000000
    41  H   -0.000000   0.000000   0.000000   0.000000   0.293127   0.000000
    42  H   -0.000000   0.000000   0.000001  -0.000000   0.000000   0.303217
 Mulliken charges:
               1
     1  C    0.410410
     2  C   -0.108759
     3  C    0.190497
     4  C    0.194931
     5  C    0.286535
     6  C   -0.080458
     7  C    0.116425
     8  C   -0.064290
     9  C    0.231801
    10  C    0.007301
    11  C    0.298903
    12  C    0.095395
    13  C   -0.457148
    14  C   -0.576551
    15  H    0.190667
    16  H    0.191448
    17  H    0.181900
    18  N   -0.347312
    19  N   -0.453992
    20  O   -0.269129
    21  O   -0.261724
    22  O   -0.274387
    23  O   -0.213709
    24  C    0.249794
    25  C   -0.226036
    26  S   -0.782923
    27  C   -0.452275
    28  H    0.144672
    29  C    0.352234
    30  O   -0.238908
    31  C    0.718542
    32  C    0.398199
    33  S   -0.286819
    34  C   -0.311658
    35  O   -0.258798
    36  C   -0.274859
    37  H    0.144069
    38  H    0.190452
    39  H    0.283785
    40  H    0.283001
    41  H    0.396083
    42  H    0.382692
 Sum of Mulliken charges =  -0.00000
 Mulliken charges with hydrogens summed into heavy atoms:
               1
     1  C    0.410410
     2  C   -0.108759
     3  C    0.190497
     4  C    0.194931
     5  C    0.286535
     6  C    0.101442
     7  C    0.116425
     8  C   -0.064290
     9  C    0.231801
    10  C    0.007301
    11  C    0.298903
    12  C    0.095395
    13  C   -0.265699
    14  C   -0.385884
    18  N    0.035381
    19  N   -0.057910
    20  O   -0.269129
    21  O   -0.261724
    22  O   -0.274387
    23  O   -0.213709
    24  C    0.249794
    25  C   -0.081364
    26  S   -0.782923
    27  C   -0.452275
    29  C    0.352234
    30  O    0.044094
    31  C    0.718542
    32  C    0.398199
    33  S   -0.286819
    34  C   -0.167589
    35  O    0.024987
    36  C   -0.084407
 Electronic spatial extent (au):  <R**2>=          17782.7105
 Charge=             -0.0000 electrons
 Dipole moment (field-independent basis, Debye):
    X=              3.0691    Y=              0.0880    Z=             -0.3417  Tot=              3.0893
 Quadrupole moment (field-independent basis, Debye-Ang):
   XX=           -185.0504   YY=           -198.2167   ZZ=           -193.6573
   XY=              7.4877   XZ=             -9.9547   YZ=            -12.8006
 Traceless Quadrupole moment (field-independent basis, Debye-Ang):
   XX=              7.2577   YY=             -5.9086   ZZ=             -1.3492
   XY=              7.4877   XZ=             -9.9547   YZ=            -12.8006
 Octapole moment (field-independent basis, Debye-Ang**2):
  XXX=            331.1641  YYY=            -21.0465  ZZZ=             -0.0503  XYY=            105.4333
  XXY=             78.6531  XXZ=            -34.1696  XZZ=             12.7018  YZZ=             -5.9565
  YYZ=              8.3455  XYZ=            -45.7594
 Hexadecapole moment (field-independent basis, Debye-Ang**3):
 XXXX=         -17848.2829 YYYY=          -4921.6507 ZZZZ=           -781.5697 XXXY=             68.1690
 XXXZ=           -596.9862 YYYX=            392.3248 YYYZ=            -73.2288 ZZZX=             15.8377
 ZZZY=            -55.7071 XXYY=          -3771.9780 XXZZ=          -3226.7641 YYZZ=           -804.0299
 XXYZ=           -298.0436 YYXZ=            -10.5462 ZZXY=             23.4553
 N-N= 3.350309587494D+03 E-N=-1.187616699909D+04  KE= 2.195622107803D+03
 Unable to Open any file for archive entry.
 1\1\GINC-CX3-3-20\FOpt\RwB97XD\6-311+G(d,p)\C22H10N2O6S2\NS5018\18-Nov
 -2020\0\\# opt=modredundant wb97xd/6-311+g(d,p)\\NDI_160.pdb\\0,1\C,-2
 .3550545067,-2.8710918053,-0.546218882\C,-2.1419663876,-1.4439181099,-
 0.1829105462\C,-3.2409065261,-0.5556867828,-0.1163594058\C,-4.55330500
 32,-0.9880648635,-0.409264559\C,-4.7986386128,-2.4074726325,-0.7812047
 117\C,-0.8734532244,-0.9921202038,0.0327039047\C,-3.0001421199,0.78590
 22904,0.2508464959\C,-1.6738326374,1.2245383759,0.5414411558\C,-0.5912
 70416,0.3583933315,0.3797773372\C,-1.5276776503,2.5707444141,1.1673402
 609\C,-3.922022982,3.0868631414,0.6833936239\C,-4.1109647975,1.6665181
 8,0.2963960191\C,-5.3797341089,1.2287888206,-0.0075980228\C,-5.6085020
 438,-0.1080156648,-0.3592009834\H,-6.6043646429,-0.4637075282,-0.59332
 04233\H,-6.1947006048,1.9414160006,0.0333227617\H,-0.0593881201,-1.691
 1791328,-0.1094435046\N,-2.6338159776,3.4103828259,1.0642587812\N,-3.6
 713220794,-3.219669368,-0.809769251\O,-1.4685323656,-3.6890912009,-0.6
 129644637\O,-5.8890339,-2.8551767546,-1.0433306588\O,-4.8081324881,3.9
 090747694,0.6992914051\O,-0.552649465,2.9489181751,1.7695826398\C,0.83
 07555643,0.725811257,0.3838319717\C,1.8719141502,-0.1424629605,0.61207
 21891\S,1.4159911975,2.2039491622,-0.2976813543\C,3.1301449223,0.40419
 55264,0.2945563774\H,1.7479665636,-1.1370968816,1.0236674011\C,3.06772
 95009,1.6748987,-0.2341626608\O,4.3225396931,-0.2295533201,0.457315683
 4\C,4.1704744069,2.5106740638,-0.6576860119\C,4.1042153535,3.765387790
 5,-1.2166158591\S,5.8406342471,2.0289721062,-0.4964064907\C,5.37053966
 06,4.3386777275,-1.5069219207\O,2.9082549036,4.360659963,-1.4614253438
 \C,6.3919141257,3.5077849599,-1.1649705337\H,5.5046360444,5.3168049443
 ,-1.9517521892\H,7.4507776304,3.6845677513,-1.2779940825\H,3.040932673
 ,5.272851217,-1.7210967233\H,4.2048734003,-1.0289405854,0.971293243\H,
 -3.8317852175,-4.1874715269,-1.0595510455\H,-2.5070981597,4.3339438277
 ,1.4587583768\\Version=ES64L-G16RevC.01\State=1-A\HF=-2201.5661698\RMS
 D=7.626e-09\RMSF=7.944e-04\Dipole=1.107051,0.467703,-0.1815212\Quadrup
 ole=0.0235168,2.9816918,-3.0052086,6.7585312,-3.0665552,-11.7049523\PG
 =C01 [X(C22H10N2O6S2)]\\@
 The archive entry for this job was punched.


 ... UNTIL SCIENCE IS MIXED WITH EMOTION AND APPEALS TO THE HEART AND
 IMAGINATION , IT IS LIKE DEAD INORGANIC MATTER; AND WHEN IT IS SO MIXED
 AND SO TRANSFORMED IT IS LITERATURE.

                                  -- JOHN BURROUGHS
 Job cpu time:       4 days  8 hours 10 minutes 51.5 seconds.
 Elapsed time:       0 days 13 hours  7 minutes 58.7 seconds.
 File lengths (MBytes):  RWF=    361 Int=      0 D2E=      0 Chk=     44 Scr=      1
 Normal termination of Gaussian 16 at Wed Nov 18 04:19:47 2020.
