 Entering Gaussian System, Link 0=g16
 Input=NDI_-60.gjf
 Output=NDI_-60.log
 Initial command:
 /apps/gaussian/g16-c01-avx/g16/l1.exe "/tmp/pbs.2575785[12].pbs/Gau-3099506.inp" -scrdir="/tmp/pbs.2575785[12].pbs/"
 Entering Link 1 = /apps/gaussian/g16-c01-avx/g16/l1.exe PID=   3099507.
  
 Copyright (c) 1988-2019, Gaussian, Inc.  All Rights Reserved.
  
 This is part of the Gaussian(R) 16 program.  It is based on
 the Gaussian(R) 09 system (copyright 2009, Gaussian, Inc.),
 the Gaussian(R) 03 system (copyright 2003, Gaussian, Inc.),
 the Gaussian(R) 98 system (copyright 1998, Gaussian, Inc.),
 the Gaussian(R) 94 system (copyright 1995, Gaussian, Inc.),
 the Gaussian 92(TM) system (copyright 1992, Gaussian, Inc.),
 the Gaussian 90(TM) system (copyright 1990, Gaussian, Inc.),
 the Gaussian 88(TM) system (copyright 1988, Gaussian, Inc.),
 the Gaussian 86(TM) system (copyright 1986, Carnegie Mellon
 University), and the Gaussian 82(TM) system (copyright 1983,
 Carnegie Mellon University). Gaussian is a federally registered
 trademark of Gaussian, Inc.
  
 This software contains proprietary and confidential information,
 including trade secrets, belonging to Gaussian, Inc.
  
 This software is provided under written license and may be
 used, copied, transmitted, or stored only in accord with that
 written license.
  
 The following legend is applicable only to US Government
 contracts under FAR:
  
                    RESTRICTED RIGHTS LEGEND
  
 Use, reproduction and disclosure by the US Government is
 subject to restrictions as set forth in subparagraphs (a)
 and (c) of the Commercial Computer Software - Restricted
 Rights clause in FAR 52.227-19.
  
 Gaussian, Inc.
 340 Quinnipiac St., Bldg. 40, Wallingford CT 06492
  
  
 ---------------------------------------------------------------
 Warning -- This program may not be used in any manner that
 competes with the business of Gaussian, Inc. or will provide
 assistance to any competitor of Gaussian, Inc.  The licensee
 of this program is prohibited from giving any competitor of
 Gaussian, Inc. access to this program.  By using this program,
 the user acknowledges that Gaussian, Inc. is engaged in the
 business of creating and licensing software in the field of
 computational chemistry and represents and warrants to the
 licensee that it is not a competitor of Gaussian, Inc. and that
 it will not use this program in any manner prohibited above.
 ---------------------------------------------------------------
  

 Cite this work as:
 Gaussian 16, Revision C.01,
 M. J. Frisch, G. W. Trucks, H. B. Schlegel, G. E. Scuseria, 
 M. A. Robb, J. R. Cheeseman, G. Scalmani, V. Barone, 
 G. A. Petersson, H. Nakatsuji, X. Li, M. Caricato, A. V. Marenich, 
 J. Bloino, B. G. Janesko, R. Gomperts, B. Mennucci, H. P. Hratchian, 
 J. V. Ortiz, A. F. Izmaylov, J. L. Sonnenberg, D. Williams-Young, 
 F. Ding, F. Lipparini, F. Egidi, J. Goings, B. Peng, A. Petrone, 
 T. Henderson, D. Ranasinghe, V. G. Zakrzewski, J. Gao, N. Rega, 
 G. Zheng, W. Liang, M. Hada, M. Ehara, K. Toyota, R. Fukuda, 
 J. Hasegawa, M. Ishida, T. Nakajima, Y. Honda, O. Kitao, H. Nakai, 
 T. Vreven, K. Throssell, J. A. Montgomery, Jr., J. E. Peralta, 
 F. Ogliaro, M. J. Bearpark, J. J. Heyd, E. N. Brothers, K. N. Kudin, 
 V. N. Staroverov, T. A. Keith, R. Kobayashi, J. Normand, 
 K. Raghavachari, A. P. Rendell, J. C. Burant, S. S. Iyengar, 
 J. Tomasi, M. Cossi, J. M. Millam, M. Klene, C. Adamo, R. Cammi, 
 J. W. Ochterski, R. L. Martin, K. Morokuma, O. Farkas, 
 J. B. Foresman, and D. J. Fox, Gaussian, Inc., Wallingford CT, 2019.
 
 ******************************************
 Gaussian 16:  ES64L-G16RevC.01  3-Jul-2019
                17-Nov-2020 
 ******************************************
 %mem=10GB
 %nprocshared=8
 Will use up to    8 processors via shared memory.
 --------------------------------------
 # opt=modredundant wb97xd/6-311+g(d,p)
 --------------------------------------
 1/18=120,19=15,26=3,38=1/1,3;
 2/9=110,12=2,17=6,18=5,40=1/2;
 3/5=4,6=6,7=111,11=2,25=1,30=1,71=1,74=-58/1,2,3;
 4//1;
 5/5=2,38=5/2;
 6/7=2,8=2,9=2,10=2,28=1/1;
 7//1,2,3,16;
 1/18=20,19=15,26=3/3(2);
 2/9=110/2;
 99//99;
 2/9=110/2;
 3/5=4,6=6,7=111,11=2,25=1,30=1,71=1,74=-58/1,2,3;
 4/5=5,16=3,69=1/1;
 5/5=2,38=5/2;
 7//1,2,3,16;
 1/18=20,19=15,26=3/3(-5);
 2/9=110/2;
 6/7=2,8=2,9=2,10=2,19=2,28=1/1;
 99/9=1/99;
 -----------
 NDI_-60.pdb
 -----------
 Symbolic Z-matrix:
 Charge =  0 Multiplicity = 1
 C                    -2.56     -2.99     -0.41 
 C                    -2.26     -1.55     -0.22 
 C                    -3.3      -0.61     -0.08 
 C                    -4.65     -1.02     -0.12 
 C                    -4.99     -2.46     -0.3 
 C                    -0.95     -1.14     -0.22 
 C                    -2.96      0.76      0.1 
 C                    -1.6       1.19      0.12 
 C                    -0.56      0.23     -0.07 
 C                    -1.33      2.62      0.45 
 C                    -3.78      3.12      0.51 
 C                    -4.03      1.68      0.27 
 C                    -5.36      1.25      0.23 
 C                    -5.67     -0.1       0.04 
 H                    -6.7      -0.44      0.01 
 H                    -6.13      2.        0.36 
 H                    -0.19     -1.9      -0.37 
 N                    -2.43      3.48      0.61 
 N                    -3.92     -3.35     -0.44 
 O                    -1.69     -3.85     -0.53 
 O                    -6.15     -2.85     -0.34 
 O                    -4.68      3.94      0.63 
 O                    -0.21      3.1       0.6 
 C                     0.88      0.48     -0.18 
 C                     1.595     1.231    -1.085 
 S                     1.975    -0.384     0.892 
 C                     2.995     1.117    -0.929 
 H                     1.134     1.851    -1.844 
 C                     3.387     0.286     0.125 
 O                     3.947     1.742    -1.682 
 C                     4.727    -0.001     0.56 
 C                     5.121    -0.853     1.59 
 S                     6.154     0.731    -0.168 
 C                     6.526    -0.915     1.789 
 O                     4.174    -1.52      2.296 
 C                     7.208    -0.113     0.903 
 H                     7.018    -1.519     2.532 
 H                     8.279     0.028     0.832 
 H                     4.444    -2.371     2.91 
 H                     3.565     2.507    -2.213 
 H                    -4.23     -4.36     -0.17 
 H                    -2.15      4.41      0.36 
 
 The following ModRedundant input section has been read:
 D       8       9      24      25 F                                           
 

 GradGradGradGradGradGradGradGradGradGradGradGradGradGradGradGradGradGrad
 Berny optimization.
 Initialization pass.
                           ----------------------------
                           !    Initial Parameters    !
                           ! (Angstroms and Degrees)  !
 --------------------------                            --------------------------
 ! Name  Definition              Value          Derivative Info.                !
 --------------------------------------------------------------------------------
 ! R1    R(1,2)                  1.4831         estimate D2E/DX2                !
 ! R2    R(1,19)                 1.4072         estimate D2E/DX2                !
 ! R3    R(1,20)                 1.2292         estimate D2E/DX2                !
 ! R4    R(2,3)                  1.4088         estimate D2E/DX2                !
 ! R5    R(2,6)                  1.3727         estimate D2E/DX2                !
 ! R6    R(3,4)                  1.4115         estimate D2E/DX2                !
 ! R7    R(3,7)                  1.423          estimate D2E/DX2                !
 ! R8    R(4,5)                  1.4905         estimate D2E/DX2                !
 ! R9    R(4,14)                 1.3829         estimate D2E/DX2                !
 ! R10   R(5,19)                 1.3988         estimate D2E/DX2                !
 ! R11   R(5,21)                 1.2245         estimate D2E/DX2                !
 ! R12   R(6,9)                  1.4323         estimate D2E/DX2                !
 ! R13   R(6,17)                 1.0852         estimate D2E/DX2                !
 ! R14   R(7,8)                  1.4265         estimate D2E/DX2                !
 ! R15   R(7,12)                 1.4213         estimate D2E/DX2                !
 ! R16   R(8,9)                  1.428          estimate D2E/DX2                !
 ! R17   R(8,10)                 1.4922         estimate D2E/DX2                !
 ! R18   R(9,24)                 1.4657         estimate D2E/DX2                !
 ! R19   R(10,18)                1.4054         estimate D2E/DX2                !
 ! R20   R(10,23)                1.2277         estimate D2E/DX2                !
 ! R21   R(11,12)                1.4811         estimate D2E/DX2                !
 ! R22   R(11,18)                1.4007         estimate D2E/DX2                !
 ! R23   R(11,22)                1.2234         estimate D2E/DX2                !
 ! R24   R(12,13)                1.3984         estimate D2E/DX2                !
 ! R25   R(13,14)                1.3981         estimate D2E/DX2                !
 ! R26   R(13,16)                1.0827         estimate D2E/DX2                !
 ! R27   R(14,15)                1.0851         estimate D2E/DX2                !
 ! R28   R(18,42)                1.0029         estimate D2E/DX2                !
 ! R29   R(19,41)                1.0905         estimate D2E/DX2                !
 ! R30   R(24,25)                1.3763         estimate D2E/DX2                !
 ! R31   R(24,26)                1.7592         estimate D2E/DX2                !
 ! R32   R(25,27)                1.4133         estimate D2E/DX2                !
 ! R33   R(25,28)                1.0831         estimate D2E/DX2                !
 ! R34   R(26,29)                1.741          estimate D2E/DX2                !
 ! R35   R(27,29)                1.3983         estimate D2E/DX2                !
 ! R36   R(27,30)                1.3653         estimate D2E/DX2                !
 ! R37   R(29,31)                1.4378         estimate D2E/DX2                !
 ! R38   R(30,40)                1.0065         estimate D2E/DX2                !
 ! R39   R(31,32)                1.3936         estimate D2E/DX2                !
 ! R40   R(31,33)                1.7613         estimate D2E/DX2                !
 ! R41   R(32,34)                1.4204         estimate D2E/DX2                !
 ! R42   R(32,35)                1.3565         estimate D2E/DX2                !
 ! R43   R(33,36)                1.7235         estimate D2E/DX2                !
 ! R44   R(34,36)                1.376          estimate D2E/DX2                !
 ! R45   R(34,37)                1.0765         estimate D2E/DX2                !
 ! R46   R(35,39)                1.0836         estimate D2E/DX2                !
 ! R47   R(36,38)                1.0826         estimate D2E/DX2                !
 ! A1    A(2,1,19)             116.527          estimate D2E/DX2                !
 ! A2    A(2,1,20)             123.2737         estimate D2E/DX2                !
 ! A3    A(19,1,20)            120.1979         estimate D2E/DX2                !
 ! A4    A(1,2,3)              120.7455         estimate D2E/DX2                !
 ! A5    A(1,2,6)              118.8843         estimate D2E/DX2                !
 ! A6    A(3,2,6)              120.3454         estimate D2E/DX2                !
 ! A7    A(2,3,4)              120.6259         estimate D2E/DX2                !
 ! A8    A(2,3,7)              118.5916         estimate D2E/DX2                !
 ! A9    A(4,3,7)              120.7824         estimate D2E/DX2                !
 ! A10   A(3,4,5)              120.1483         estimate D2E/DX2                !
 ! A11   A(3,4,14)             120.5934         estimate D2E/DX2                !
 ! A12   A(5,4,14)             119.2388         estimate D2E/DX2                !
 ! A13   A(4,5,19)             116.8914         estimate D2E/DX2                !
 ! A14   A(4,5,21)             121.8545         estimate D2E/DX2                !
 ! A15   A(19,5,21)            121.2488         estimate D2E/DX2                !
 ! A16   A(2,6,9)              123.0626         estimate D2E/DX2                !
 ! A17   A(2,6,17)             117.3337         estimate D2E/DX2                !
 ! A18   A(9,6,17)             119.5802         estimate D2E/DX2                !
 ! A19   A(3,7,8)              121.3176         estimate D2E/DX2                !
 ! A20   A(3,7,12)             117.2859         estimate D2E/DX2                !
 ! A21   A(8,7,12)             121.3945         estimate D2E/DX2                !
 ! A22   A(7,8,9)              119.3284         estimate D2E/DX2                !
 ! A23   A(7,8,10)             117.6762         estimate D2E/DX2                !
 ! A24   A(9,8,10)             122.8113         estimate D2E/DX2                !
 ! A25   A(6,9,8)              117.2994         estimate D2E/DX2                !
 ! A26   A(6,9,24)             115.0121         estimate D2E/DX2                !
 ! A27   A(8,9,24)             127.6498         estimate D2E/DX2                !
 ! A28   A(8,10,18)            118.0319         estimate D2E/DX2                !
 ! A29   A(8,10,23)            124.524          estimate D2E/DX2                !
 ! A30   A(18,10,23)           117.4428         estimate D2E/DX2                !
 ! A31   A(12,11,18)           115.0947         estimate D2E/DX2                !
 ! A32   A(12,11,22)           122.9128         estimate D2E/DX2                !
 ! A33   A(18,11,22)           121.9866         estimate D2E/DX2                !
 ! A34   A(7,12,11)            121.4411         estimate D2E/DX2                !
 ! A35   A(7,12,13)            120.9006         estimate D2E/DX2                !
 ! A36   A(11,12,13)           117.6548         estimate D2E/DX2                !
 ! A37   A(12,13,14)           120.7772         estimate D2E/DX2                !
 ! A38   A(12,13,16)           117.3846         estimate D2E/DX2                !
 ! A39   A(14,13,16)           121.8361         estimate D2E/DX2                !
 ! A40   A(4,14,13)            119.6408         estimate D2E/DX2                !
 ! A41   A(4,14,15)            119.2412         estimate D2E/DX2                !
 ! A42   A(13,14,15)           121.1172         estimate D2E/DX2                !
 ! A43   A(10,18,11)           126.0815         estimate D2E/DX2                !
 ! A44   A(10,18,42)           108.6957         estimate D2E/DX2                !
 ! A45   A(11,18,42)           119.3146         estimate D2E/DX2                !
 ! A46   A(1,19,5)             125.0576         estimate D2E/DX2                !
 ! A47   A(1,19,41)            120.4267         estimate D2E/DX2                !
 ! A48   A(5,19,41)            110.3085         estimate D2E/DX2                !
 ! A49   A(9,24,25)            130.7549         estimate D2E/DX2                !
 ! A50   A(9,24,26)            118.8187         estimate D2E/DX2                !
 ! A51   A(25,24,26)           110.2017         estimate D2E/DX2                !
 ! A52   A(24,25,27)           113.4549         estimate D2E/DX2                !
 ! A53   A(24,25,28)           123.5078         estimate D2E/DX2                !
 ! A54   A(27,25,28)           123.0373         estimate D2E/DX2                !
 ! A55   A(24,26,29)            92.7143         estimate D2E/DX2                !
 ! A56   A(25,27,29)           114.1332         estimate D2E/DX2                !
 ! A57   A(25,27,30)           126.3665         estimate D2E/DX2                !
 ! A58   A(29,27,30)           119.4938         estimate D2E/DX2                !
 ! A59   A(26,29,27)           109.4773         estimate D2E/DX2                !
 ! A60   A(26,29,31)           123.078          estimate D2E/DX2                !
 ! A61   A(27,29,31)           127.4433         estimate D2E/DX2                !
 ! A62   A(27,30,40)           111.9787         estimate D2E/DX2                !
 ! A63   A(29,31,32)           127.5287         estimate D2E/DX2                !
 ! A64   A(29,31,33)           123.1676         estimate D2E/DX2                !
 ! A65   A(32,31,33)           109.3006         estimate D2E/DX2                !
 ! A66   A(31,32,34)           114.1989         estimate D2E/DX2                !
 ! A67   A(31,32,35)           119.2033         estimate D2E/DX2                !
 ! A68   A(34,32,35)           126.5964         estimate D2E/DX2                !
 ! A69   A(31,33,36)            92.0118         estimate D2E/DX2                !
 ! A70   A(32,34,36)           112.0012         estimate D2E/DX2                !
 ! A71   A(32,34,37)           124.9779         estimate D2E/DX2                !
 ! A72   A(36,34,37)           123.0181         estimate D2E/DX2                !
 ! A73   A(32,35,39)           120.4728         estimate D2E/DX2                !
 ! A74   A(33,36,34)           112.4858         estimate D2E/DX2                !
 ! A75   A(33,36,38)           120.0322         estimate D2E/DX2                !
 ! A76   A(34,36,38)           127.4806         estimate D2E/DX2                !
 ! D1    D(19,1,2,3)            -0.0402         estimate D2E/DX2                !
 ! D2    D(19,1,2,6)          -178.232          estimate D2E/DX2                !
 ! D3    D(20,1,2,3)          -179.6115         estimate D2E/DX2                !
 ! D4    D(20,1,2,6)             2.1967         estimate D2E/DX2                !
 ! D5    D(2,1,19,5)            -0.2714         estimate D2E/DX2                !
 ! D6    D(2,1,19,41)         -154.9401         estimate D2E/DX2                !
 ! D7    D(20,1,19,5)          179.3139         estimate D2E/DX2                !
 ! D8    D(20,1,19,41)          24.6452         estimate D2E/DX2                !
 ! D9    D(1,2,3,4)             -0.105          estimate D2E/DX2                !
 ! D10   D(1,2,3,7)           -179.9973         estimate D2E/DX2                !
 ! D11   D(6,2,3,4)            178.0603         estimate D2E/DX2                !
 ! D12   D(6,2,3,7)             -1.832          estimate D2E/DX2                !
 ! D13   D(1,2,6,9)            178.7655         estimate D2E/DX2                !
 ! D14   D(1,2,6,17)             0.5382         estimate D2E/DX2                !
 ! D15   D(3,2,6,9)              0.5662         estimate D2E/DX2                !
 ! D16   D(3,2,6,17)          -177.661          estimate D2E/DX2                !
 ! D17   D(2,3,4,5)              0.5238         estimate D2E/DX2                !
 ! D18   D(2,3,4,14)           178.9053         estimate D2E/DX2                !
 ! D19   D(7,3,4,5)           -179.5863         estimate D2E/DX2                !
 ! D20   D(7,3,4,14)            -1.2048         estimate D2E/DX2                !
 ! D21   D(2,3,7,8)              0.9439         estimate D2E/DX2                !
 ! D22   D(2,3,7,12)          -178.5478         estimate D2E/DX2                !
 ! D23   D(4,3,7,8)           -178.9482         estimate D2E/DX2                !
 ! D24   D(4,3,7,12)             1.56           estimate D2E/DX2                !
 ! D25   D(3,4,5,19)            -0.7863         estimate D2E/DX2                !
 ! D26   D(3,4,5,21)          -179.9543         estimate D2E/DX2                !
 ! D27   D(14,4,5,19)         -179.1897         estimate D2E/DX2                !
 ! D28   D(14,4,5,21)            1.6423         estimate D2E/DX2                !
 ! D29   D(3,4,14,13)            0.6262         estimate D2E/DX2                !
 ! D30   D(3,4,14,15)         -179.7176         estimate D2E/DX2                !
 ! D31   D(5,4,14,13)          179.0223         estimate D2E/DX2                !
 ! D32   D(5,4,14,15)           -1.3214         estimate D2E/DX2                !
 ! D33   D(4,5,19,1)             0.6724         estimate D2E/DX2                !
 ! D34   D(4,5,19,41)          157.5074         estimate D2E/DX2                !
 ! D35   D(21,5,19,1)          179.8457         estimate D2E/DX2                !
 ! D36   D(21,5,19,41)         -23.3193         estimate D2E/DX2                !
 ! D37   D(2,6,9,8)              1.5899         estimate D2E/DX2                !
 ! D38   D(2,6,9,24)          -176.322          estimate D2E/DX2                !
 ! D39   D(17,6,9,8)           179.779          estimate D2E/DX2                !
 ! D40   D(17,6,9,24)            1.8672         estimate D2E/DX2                !
 ! D41   D(3,7,8,9)              1.2142         estimate D2E/DX2                !
 ! D42   D(3,7,8,10)          -173.9942         estimate D2E/DX2                !
 ! D43   D(12,7,8,9)          -179.3149         estimate D2E/DX2                !
 ! D44   D(12,7,8,10)            5.4766         estimate D2E/DX2                !
 ! D45   D(3,7,12,11)          177.9024         estimate D2E/DX2                !
 ! D46   D(3,7,12,13)           -1.4077         estimate D2E/DX2                !
 ! D47   D(8,7,12,11)           -1.5889         estimate D2E/DX2                !
 ! D48   D(8,7,12,13)          179.1009         estimate D2E/DX2                !
 ! D49   D(7,8,9,6)             -2.414          estimate D2E/DX2                !
 ! D50   D(7,8,9,24)           175.1958         estimate D2E/DX2                !
 ! D51   D(10,8,9,6)           172.5365         estimate D2E/DX2                !
 ! D52   D(10,8,9,24)           -9.8537         estimate D2E/DX2                !
 ! D53   D(7,8,10,18)           -5.2348         estimate D2E/DX2                !
 ! D54   D(7,8,10,23)          174.3306         estimate D2E/DX2                !
 ! D55   D(9,8,10,18)          179.736          estimate D2E/DX2                !
 ! D56   D(9,8,10,23)           -0.6986         estimate D2E/DX2                !
 ! D57   D(6,9,24,25)          117.6429         estimate D2E/DX2                !
 ! D58   D(6,9,24,26)          -56.3222         estimate D2E/DX2                !
 ! D59   D(8,9,24,25)          -60.0133         Frozen                          !
 ! D60   D(8,9,24,26)          126.0215         estimate D2E/DX2                !
 ! D61   D(8,10,18,11)           1.0927         estimate D2E/DX2                !
 ! D62   D(8,10,18,42)        -151.3012         estimate D2E/DX2                !
 ! D63   D(23,10,18,11)       -178.5038         estimate D2E/DX2                !
 ! D64   D(23,10,18,42)         29.1023         estimate D2E/DX2                !
 ! D65   D(18,11,12,7)          -2.5592         estimate D2E/DX2                !
 ! D66   D(18,11,12,13)        176.7725         estimate D2E/DX2                !
 ! D67   D(22,11,12,7)         178.3061         estimate D2E/DX2                !
 ! D68   D(22,11,12,13)         -2.3622         estimate D2E/DX2                !
 ! D69   D(12,11,18,10)          2.7627         estimate D2E/DX2                !
 ! D70   D(12,11,18,42)        152.5373         estimate D2E/DX2                !
 ! D71   D(22,11,18,10)       -178.0937         estimate D2E/DX2                !
 ! D72   D(22,11,18,42)        -28.3191         estimate D2E/DX2                !
 ! D73   D(7,12,13,14)           0.8911         estimate D2E/DX2                !
 ! D74   D(7,12,13,16)        -179.6245         estimate D2E/DX2                !
 ! D75   D(11,12,13,14)       -178.4444         estimate D2E/DX2                !
 ! D76   D(11,12,13,16)          1.04           estimate D2E/DX2                !
 ! D77   D(12,13,14,4)          -0.4717         estimate D2E/DX2                !
 ! D78   D(12,13,14,15)        179.8786         estimate D2E/DX2                !
 ! D79   D(16,13,14,4)        -179.9328         estimate D2E/DX2                !
 ! D80   D(16,13,14,15)          0.4175         estimate D2E/DX2                !
 ! D81   D(9,24,25,27)        -174.2096         estimate D2E/DX2                !
 ! D82   D(9,24,25,28)           5.8353         estimate D2E/DX2                !
 ! D83   D(26,24,25,27)          0.1577         estimate D2E/DX2                !
 ! D84   D(26,24,25,28)       -179.7974         estimate D2E/DX2                !
 ! D85   D(9,24,26,29)         175.7156         estimate D2E/DX2                !
 ! D86   D(25,24,26,29)          0.5835         estimate D2E/DX2                !
 ! D87   D(24,25,27,29)         -1.083          estimate D2E/DX2                !
 ! D88   D(24,25,27,30)        179.8596         estimate D2E/DX2                !
 ! D89   D(28,25,27,29)        178.8723         estimate D2E/DX2                !
 ! D90   D(28,25,27,30)         -0.1851         estimate D2E/DX2                !
 ! D91   D(24,26,29,27)         -1.1588         estimate D2E/DX2                !
 ! D92   D(24,26,29,31)        178.4464         estimate D2E/DX2                !
 ! D93   D(25,27,29,26)          1.476          estimate D2E/DX2                !
 ! D94   D(25,27,29,31)       -178.1074         estimate D2E/DX2                !
 ! D95   D(30,27,29,26)       -179.396          estimate D2E/DX2                !
 ! D96   D(30,27,29,31)          1.0206         estimate D2E/DX2                !
 ! D97   D(25,27,30,40)         16.1047         estimate D2E/DX2                !
 ! D98   D(29,27,30,40)       -162.907          estimate D2E/DX2                !
 ! D99   D(26,29,31,32)          2.1002         estimate D2E/DX2                !
 ! D100  D(26,29,31,33)       -177.1908         estimate D2E/DX2                !
 ! D101  D(27,29,31,32)       -178.3686         estimate D2E/DX2                !
 ! D102  D(27,29,31,33)          2.3404         estimate D2E/DX2                !
 ! D103  D(29,31,32,34)       -179.3221         estimate D2E/DX2                !
 ! D104  D(29,31,32,35)          0.2756         estimate D2E/DX2                !
 ! D105  D(33,31,32,34)          0.0491         estimate D2E/DX2                !
 ! D106  D(33,31,32,35)        179.6468         estimate D2E/DX2                !
 ! D107  D(29,31,33,36)        179.584          estimate D2E/DX2                !
 ! D108  D(32,31,33,36)          0.1798         estimate D2E/DX2                !
 ! D109  D(31,32,34,36)         -0.3308         estimate D2E/DX2                !
 ! D110  D(31,32,34,37)       -179.7318         estimate D2E/DX2                !
 ! D111  D(35,32,34,36)       -179.8933         estimate D2E/DX2                !
 ! D112  D(35,32,34,37)          0.7056         estimate D2E/DX2                !
 ! D113  D(31,32,35,39)        163.6767         estimate D2E/DX2                !
 ! D114  D(34,32,35,39)        -16.7804         estimate D2E/DX2                !
 ! D115  D(31,33,36,34)         -0.3743         estimate D2E/DX2                !
 ! D116  D(31,33,36,38)       -179.9634         estimate D2E/DX2                !
 ! D117  D(32,34,36,33)          0.4646         estimate D2E/DX2                !
 ! D118  D(32,34,36,38)       -179.9836         estimate D2E/DX2                !
 ! D119  D(37,34,36,33)        179.8793         estimate D2E/DX2                !
 ! D120  D(37,34,36,38)         -0.5689         estimate D2E/DX2                !
 --------------------------------------------------------------------------------
 Trust Radius=3.00D-01 FncErr=1.00D-07 GrdErr=1.00D-06 EigMax=2.50D+02 EigMin=1.00D-04
 Number of steps in this run=    252 maximum allowed number of steps=    252.
 GradGradGradGradGradGradGradGradGradGradGradGradGradGradGradGradGradGrad

                          Input orientation:                          
 ---------------------------------------------------------------------
 Center     Atomic      Atomic             Coordinates (Angstroms)
 Number     Number       Type             X           Y           Z
 ---------------------------------------------------------------------
      1          6           0       -2.560000   -2.990000   -0.410000
      2          6           0       -2.260000   -1.550000   -0.220000
      3          6           0       -3.300000   -0.610000   -0.080000
      4          6           0       -4.650000   -1.020000   -0.120000
      5          6           0       -4.990000   -2.460000   -0.300000
      6          6           0       -0.950000   -1.140000   -0.220000
      7          6           0       -2.960000    0.760000    0.100000
      8          6           0       -1.600000    1.190000    0.120000
      9          6           0       -0.560000    0.230000   -0.070000
     10          6           0       -1.330000    2.620000    0.450000
     11          6           0       -3.780000    3.120000    0.510000
     12          6           0       -4.030000    1.680000    0.270000
     13          6           0       -5.360000    1.250000    0.230000
     14          6           0       -5.670000   -0.100000    0.040000
     15          1           0       -6.700000   -0.440000    0.010000
     16          1           0       -6.130000    2.000000    0.360000
     17          1           0       -0.190000   -1.900000   -0.370000
     18          7           0       -2.430000    3.480000    0.610000
     19          7           0       -3.920000   -3.350000   -0.440000
     20          8           0       -1.690000   -3.850000   -0.530000
     21          8           0       -6.150000   -2.850000   -0.340000
     22          8           0       -4.680000    3.940000    0.630000
     23          8           0       -0.210000    3.100000    0.600000
     24          6           0        0.880000    0.480000   -0.180000
     25          6           0        1.595000    1.231000   -1.085000
     26         16           0        1.975000   -0.384000    0.892000
     27          6           0        2.995000    1.117000   -0.929000
     28          1           0        1.134000    1.851000   -1.844000
     29          6           0        3.387000    0.286000    0.125000
     30          8           0        3.947000    1.742000   -1.682000
     31          6           0        4.727000   -0.001000    0.560000
     32          6           0        5.121000   -0.853000    1.590000
     33         16           0        6.154000    0.731000   -0.168000
     34          6           0        6.526000   -0.915000    1.789000
     35          8           0        4.174000   -1.520000    2.296000
     36          6           0        7.208000   -0.113000    0.903000
     37          1           0        7.018000   -1.519000    2.532000
     38          1           0        8.279000    0.028000    0.832000
     39          1           0        4.444000   -2.371000    2.910000
     40          1           0        3.565000    2.507000   -2.213000
     41          1           0       -4.230000   -4.360000   -0.170000
     42          1           0       -2.150000    4.410000    0.360000
 ---------------------------------------------------------------------
                    Distance matrix (angstroms):
                    1          2          3          4          5
     1  C    0.000000
     2  C    1.483139   0.000000
     3  C    2.514140   1.408829   0.000000
     4  C    2.886711   2.450102   1.411453   0.000000
     5  C    2.489558   2.878784   2.515353   1.490503   0.000000
     6  C    2.459817   1.372662   2.413089   3.703296   4.250929
     7  C    3.805601   2.434851   1.422990   2.464325   3.827440
     8  C    4.321447   2.838803   2.483948   3.774149   4.999100
     9  C    3.805785   2.465948   2.865886   4.277043   5.187861
    10  C    5.807289   4.324662   3.820301   4.959526   6.305910
    11  C    6.298166   4.965098   3.806757   4.277078   5.766854
    12  C    4.942894   3.715629   2.428889   2.797588   4.287902
    13  C    5.121250   4.201488   2.792723   2.404059   3.765886
    14  C    4.269274   3.714593   2.427221   1.382896   2.479435
    15  H    4.880420   4.582423   3.405437   2.134432   2.664695
    16  H    6.183680   5.283540   3.874868   3.397234   4.650462
    17  H    2.608946   2.104733   3.379393   4.552856   4.833063
    18  N    6.551198   5.100853   4.238054   5.070631   6.531868
    19  N    1.407160   2.458455   2.832243   2.462560   1.398785
    20  O    1.229187   2.389770   3.645847   4.115653   3.588175
    21  O    3.593411   4.103230   3.634240   2.376405   1.224459
    22  O    7.321264   6.059620   4.807390   5.016473   6.474643
    23  O    6.605354   5.147563   4.875920   6.099705   7.387286
    24  C    4.891564   3.739265   4.320937   5.730140   6.566194
    25  C    5.961249   4.831481   5.325442   6.708074   7.589594
    26  S    5.390052   4.531151   5.368565   6.731958   7.364908
    27  C    6.927830   5.935537   6.582580   7.979178   8.772160
    28  H    6.255979   5.071825   5.369225   6.683522   7.646701
    29  C    6.810669   5.947985   6.749875   8.146105   8.825830
    30  O    8.145604   7.176459   7.785712   9.163891   9.971795
    31  C    7.935703   7.199026   8.075470   9.456685  10.060138
    32  C    8.219765   7.631584   8.588434   9.920909  10.410901
    33  S    9.478302   8.717859   9.549039  10.945077  11.592611
    34  C    9.575835   9.035104  10.006821  11.338354  11.805473
    35  O    7.404734   6.908510   7.895198   9.162425   9.570878
    36  C   10.267177   9.642050  10.565574  11.936555  12.479857
    37  H   10.127057   9.677590  10.682226  11.975990  12.373268
    38  H   11.319665  10.708282  11.632370  13.006293  13.547617
    39  H    7.775704   7.444095   8.485915   9.680234   9.965560
    40  H    8.425167   7.373054   7.835407   9.181863  10.075648
    41  H    2.173338   3.432128   3.864647   3.366675   2.050488
    42  H    7.451242   5.989165   5.168801   5.997108   7.463116
                    6          7          8          9         10
     6  C    0.000000
     7  C    2.784331   0.000000
     8  C    2.442744   1.426499   0.000000
     9  C    1.432306   2.463696   1.428041   0.000000
    10  C    3.838085   2.497799   1.492213   2.564254   0.000000
    11  C    5.166178   2.531818   2.937584   4.365421   2.501220
    12  C    4.204628   1.421337   2.483445   3.776109   2.864612
    13  C    5.036139   2.452957   3.762087   4.916340   4.262183
    14  C    4.840207   2.843818   4.270293   5.121826   5.138297
    15  H    5.797016   3.928829   5.355278   6.176965   6.196297
    16  H    6.085097   3.413810   4.608102   5.860264   4.840713
    17  H    1.085219   3.869031   3.431661   2.182613   4.733117
    18  N    4.921758   2.817694   2.484572   3.810748   1.405418
    19  N    3.708558   4.255032   5.129093   4.923708   6.568188
    20  O    2.826270   4.823059   5.082539   4.258509   6.553694
    21  O    5.475263   4.837541   6.102106   6.388067   7.333308
    22  O    6.359387   3.653998   4.160409   5.588247   3.605177
    23  O    4.381507   3.645285   2.410519   2.967878   1.227721
    24  C    2.444361   3.860363   2.597018   1.465674   3.140159
    25  C    3.584256   4.730126   3.414928   2.583844   3.583458
    26  S    3.219271   5.127399   3.981719   2.780048   4.488029
    27  C    4.599973   6.053785   4.713784   3.763333   4.781869
    28  H    3.990804   4.661572   3.430594   2.940128   3.453273
    29  C    4.578435   6.364724   5.068275   3.952211   5.272881
    30  O    5.867195   7.200451   5.858423   5.019735   5.758736
    31  C    5.842435   7.738261   6.453140   5.329412   6.600681
    32  C    6.341570   8.374033   7.176809   6.016831   7.414629
    33  S    7.346439   9.117986   7.772911   6.733380   7.743417
    34  C    7.744500   9.779701   8.558532   7.414735   8.718135
    35  O    5.721017   7.804792   6.739299   5.574156   7.130311
    36  C    8.298724  10.236951   8.938219   7.836211   8.976187
    37  H    8.438375  10.519931   9.350206   8.200944   9.547521
    38  H    9.361911  11.286575   9.972554   8.887200   9.959783
    39  H    6.356689   8.515778   7.549487   6.378528   8.018775
    40  H    6.136602   7.139860   5.818471   5.176176   5.573631
    41  H    4.596662   5.282064   6.148455   5.877670   7.583851
    42  H    5.707793   3.747826   3.275439   4.492816   1.970939
                   11         12         13         14         15
    11  C    0.000000
    12  C    1.481114   0.000000
    13  C    2.464082   1.398356   0.000000
    14  C    3.763164   2.431234   1.398106   0.000000
    15  H    4.631414   3.419196   2.167971   1.085081   0.000000
    16  H    2.607566   2.126147   1.082728   2.173476   2.530020
    17  H    6.234012   5.288818   6.083700   5.782603   6.682522
    18  N    1.400750   2.432201   3.701648   4.861985   5.827461
    19  N    6.540872   5.081053   4.866467   3.722284   4.049568
    20  O    7.350551   6.057764   6.329020   5.497981   6.084390
    21  O    6.479221   5.038591   4.214143   2.817321   2.496618
    22  O    1.223438   2.379012   2.803302   4.201167   4.863044
    23  O    3.571190   4.088728   5.484697   6.353361   7.416185
    24  C    5.400120   5.074505   6.300683   6.579308   7.637991
    25  C    5.916331   5.803297   7.078249   7.471105   8.532191
    26  S    6.748627   6.380204   7.543900   7.697570   8.719902
    27  C    7.209948   7.148790   8.436053   8.803538   9.864025
    28  H    5.594557   5.582574   6.843589   7.324635   8.370039
    29  C    7.716584   7.548255   8.800587   9.065620  10.113747
    30  O    8.149250   8.212593   9.514098   9.942079  10.999209
    31  C    9.061578   8.921598  10.169635  10.410466  11.448648
    32  C    9.807086   9.586412  10.776065  10.927726  11.933273
    33  S   10.239695  10.237495  11.532561  11.854991  12.908456
    34  C   11.141396  10.975906  12.181736  12.347698  13.353559
    35  O    9.380059   9.036055  10.140928  10.198543  11.164053
    36  C   11.460492  11.397727  12.659594  12.906890  13.940475
    37  H   11.924999  11.722139  12.891138  13.008035  13.989576
    38  H   12.453258  12.432073  13.706860  13.972052  15.008836
    39  H   10.175719   9.756479  10.789460  10.755805  11.675937
    40  H    7.857450   8.033259   9.338304   9.856860  10.908564
    41  H    7.524314   6.059307   5.736637   4.501700   4.636777
    42  H    2.084107   3.315931   4.506285   5.730000   6.659392
                   16         17         18         19         20
    16  H    0.000000
    17  H    7.143284   0.000000
    18  N    3.992856   5.909518   0.000000
    19  N    5.843509   4.002537   7.069052   0.000000
    20  O    7.397851   2.465380   7.454938   2.287138   0.000000
    21  O    4.900296   6.035313   7.403364   2.287553   4.574680
    22  O    2.437006   7.434090   2.296628   7.407199   8.424358
    23  O    6.026110   5.093260   2.252310   7.513202   7.195123
    24  C    7.193198   2.616372   4.536541   6.146259   5.047405
    25  C    7.896519   3.674318   4.912398   7.198389   6.075838
    26  S    8.465076   2.928844   5.866349   6.732192   5.240941
    27  C    9.257799   4.422555   6.114157   8.246844   6.839555
    28  H    7.592464   4.242128   4.623619   7.386781   6.496382
    29  C    9.672968   4.221202   6.653897   8.181196   6.581144
    30  O   10.285050   5.665711   6.995716   9.453080   8.023300
    31  C   11.041669   5.352382   7.958801   9.326651   7.561798
    32  C   11.672083   5.757129   8.760873   9.596645   7.737321
    33  S   12.360655   6.870902   9.046952  10.872627   9.090926
    34  C   13.065742   7.122932  10.045696  10.955208   9.027438
    35  O   11.059426   5.128007   8.453130   8.737702   6.913875
    36  C   13.515246   7.716495  10.290119  11.666799   9.756693
    37  H   13.782991   7.779591  10.860423  11.481515   9.520434
    38  H   14.550974   8.768463  11.253811  12.721811  10.783083
    39  H   11.722526   5.696859   9.315368   9.062971   7.186585
    40  H   10.043426   6.076045   6.697468   9.668154   8.417777
    41  H    6.658866   4.734258   8.081708   1.090459   2.615588
    42  H    4.652795   6.647601   1.002896   7.999406   8.320535
                   21         22         23         24         25
    21  O    0.000000
    22  O    7.014692   0.000000
    23  O    8.459888   4.548340   0.000000
    24  C    7.780450   6.598583   2.942941   0.000000
    25  C    8.786046   7.046668   3.096839   1.376318   0.000000
    26  S    8.579895   7.940695   4.122832   1.759177   2.580921
    27  C    9.985742   8.324989   4.067205   2.332380   1.413270
    28  H    8.798754   6.654862   3.056055   2.170957   1.083052
    29  C   10.050129   8.870357   4.591583   2.532925   2.359743
    30  O   11.173041   9.197917   4.932782   3.640760   2.479805
    31  C   11.279891  10.199413   5.830246   3.946944   3.746101
    32  C   11.608116  10.952354   6.710132   4.784963   4.891969
    33  S   12.815676  11.327402   6.833921   5.279983   4.677111
    34  C   12.998378  12.267385   7.931434   6.140057   6.097537
    35  O   10.737894  10.534727   6.590923   4.580503   5.064623
    36  C   13.692055  12.562877   8.089617   6.447334   6.104445
    37  H   13.543123  13.048429   8.792711   7.001856   7.074893
    38  H   14.759828  13.538103   9.030732   7.481554   7.056767
    39  H   11.091653  11.325833   7.545042   5.511660   6.086972
    40  H   11.251080   8.838335   4.745023   3.930781   2.604124
    41  H    2.448551   8.350599   8.509107   7.038309   8.125708
    42  H    8.318509   2.587412   2.353147   4.991733   5.120458
                   26         27         28         29         30
    26  S    0.000000
    27  C    2.570884   0.000000
    28  H    3.631556   2.199841   0.000000
    29  C    1.740957   1.398264   3.376714   0.000000
    30  O    3.877388   1.365261   2.819768   2.387213   0.000000
    31  C    2.798288   2.543004   4.703060   1.437774   2.944998
    32  C    3.256452   3.840070   5.916092   2.539744   4.338005
    33  S    4.453186   3.272216   5.409600   2.817829   2.860973
    34  C    4.668851   4.897398   7.065629   3.750282   5.075306
    35  O    2.845578   4.329484   6.143683   2.931594   5.149433
    36  C    5.240024   4.755890   6.949589   3.919761   4.556026
    37  H    5.423069   5.925500   8.070175   4.715489   6.150037
    38  H    6.317734   5.675183   7.844446   4.949553   5.293790
    39  H    3.757187   5.385505   7.168117   3.991632   6.184678
    40  H    4.530674   1.976273   2.544849   3.229670   1.006534
    41  H    7.445700   9.098035   8.375637   8.926983  10.314256
    42  H    6.346738   6.243108   4.710706   6.908037   6.961422
                   31         32         33         34         35
    31  C    0.000000
    32  C    1.393571   0.000000
    33  S    1.761288   2.581997   0.000000
    34  C    2.362676   1.420377   2.584095   0.000000
    35  O    2.372102   1.356515   3.880554   2.480923   0.000000
    36  C    2.507101   2.318434   1.723454   1.375981   3.622879
    37  H    3.382571   2.220254   3.619254   1.076536   2.853775
    38  H    3.562517   3.365069   2.451496   2.208644   4.625000
    39  H    3.349551   2.122511   4.692610   2.776923   1.083558
    40  H    3.915334   5.307876   3.746882   6.040994   6.076075
    41  H    9.988074  10.140900  11.564849  11.462864   9.207278
    42  H    8.172518   9.059774   9.097815  10.279623   8.882903
                   36         37         38         39         40
    36  C    0.000000
    37  H    2.160226   0.000000
    38  H    1.082572   2.621704   0.000000
    39  H    4.094668   2.737565   4.978003   0.000000
    40  H    5.463086   7.116664   6.135085   7.128300   0.000000
    41  H   12.248109  11.911742  13.294120   9.417048  10.587330
    42  H   10.407908  11.132064  11.322047   9.796188   6.550035
                   41         42
    41  H    0.000000
    42  H    9.028854   0.000000
 Stoichiometry    C22H10N2O6S2
 Framework group  C1[X(C22H10N2O6S2)]
 Deg. of freedom   120
 Full point group                 C1      NOp   1
 Largest Abelian subgroup         C1      NOp   1
 Largest concise Abelian subgroup C1      NOp   1
                         Standard orientation:                         
 ---------------------------------------------------------------------
 Center     Atomic      Atomic             Coordinates (Angstroms)
 Number     Number       Type             X           Y           Z
 ---------------------------------------------------------------------
      1          6           0        2.620002   -3.014125    0.428121
      2          6           0        2.264114   -1.583657    0.264399
      3          6           0        3.264281   -0.609828    0.074335
      4          6           0        4.626888   -0.976143    0.038068
      5          6           0        5.022150   -2.405267    0.189629
      6          6           0        0.943610   -1.216247    0.338429
      7          6           0        2.871260    0.749334   -0.077696
      8          6           0        1.499124    1.135215   -0.020781
      9          6           0        0.502328    0.141149    0.219074
     10          6           0        1.165852    2.557353   -0.325992
     11          6           0        3.591651    3.136625   -0.515849
     12          6           0        3.900369    1.704292   -0.299481
     13          6           0        5.243657    1.317341   -0.334794
     14          6           0        5.606643   -0.022851   -0.171012
     15          1           0        6.647105   -0.329504   -0.199383
     16          1           0        5.980996    2.092489   -0.501458
     17          1           0        0.217663   -2.001165    0.524452
     18          7           0        2.227369    3.453264   -0.539827
     19          7           0        3.990442   -3.330093    0.381661
     20          8           0        1.785841   -3.902398    0.589502
     21          8           0        6.194498   -2.757738    0.163834
     22          8           0        4.457033    3.985891   -0.679131
     23          8           0        0.024536    3.001615   -0.411604
     24          6           0       -0.936785    0.343895    0.408937
     25          6           0       -1.624991    1.066879    1.356522
     26         16           0       -2.060448   -0.549743   -0.607673
     27          6           0       -3.027050    0.908432    1.276165
     28          1           0       -1.143331    1.697694    2.093461
     29          6           0       -3.449197    0.070425    0.239499
     30          8           0       -3.956045    1.498572    2.084028
     31          6           0       -4.801069   -0.257605   -0.123864
     32          6           0       -5.223229   -1.116784   -1.136599
     33         16           0       -6.208903    0.424239    0.685599
     34          6           0       -6.634291   -1.223208   -1.259270
     35          8           0       -4.295314   -1.749297   -1.897542
     36          6           0       -7.292234   -0.448089   -0.332109
     37          1           0       -7.146528   -1.839113   -1.978438
     38          1           0       -8.361726   -0.342157   -0.201996
     39          1           0       -4.571042   -2.605529   -2.501642
     40          1           0       -3.570318    2.272885    2.598582
     41          1           0        4.317425   -4.328187    0.088418
     42          1           0        1.931796    4.372470   -0.268724
 ---------------------------------------------------------------------
 Rotational constants (GHZ):           0.2383207           0.0644845           0.0539054
 Standard basis: 6-311+G(d,p) (5D, 7F)
 There are   812 symmetry adapted cartesian basis functions of A   symmetry.
 There are   780 symmetry adapted basis functions of A   symmetry.
   780 basis functions,  1260 primitive gaussians,   812 cartesian basis functions
   118 alpha electrons      118 beta electrons
       nuclear repulsion energy      3313.6967830137 Hartrees.
 NAtoms=   42 NActive=   42 NUniq=   42 SFac= 1.00D+00 NAtFMM=   60 NAOKFM=F Big=F
 Integral buffers will be    131072 words long.
 Raffenetti 2 integral format.
 Two-electron integral symmetry is turned on.
 Nuclear repulsion after empirical dispersion term =     3313.6661975000 Hartrees.
 One-electron integrals computed using PRISM.
 NBasis=   780 RedAO= T EigKep=  1.88D-06  NBF=   780
 NBsUse=   768 1.00D-06 EigRej=  8.45D-07 NBFU=   768
 ExpMin= 4.05D-02 ExpMax= 9.34D+04 ExpMxC= 3.17D+03 IAcc=3 IRadAn=         5 AccDes= 0.00D+00
 Harris functional with IExCor= 4639 and IRadAn=       5 diagonalized for initial guess.
 HarFok:  IExCor= 4639 AccDes= 0.00D+00 IRadAn=         5 IDoV= 1 UseB2=F ITyADJ=14
 ICtDFT=  3500011 ScaDFX=  1.000000  1.000000  1.000000  1.000000
 FoFCou: FMM=F IPFlag=           0 FMFlag=      100000 FMFlg1=           0
         NFxFlg=           0 DoJE=T BraDBF=F KetDBF=T FulRan=T
         wScrn=  0.000000 ICntrl=       500 IOpCl=  0 I1Cent=   200000004 NGrid=           0
         NMat0=    1 NMatS0=      1 NMatT0=    0 NMatD0=    1 NMtDS0=    0 NMtDT0=    0
 Petite list used in FoFCou.
 Requested convergence on RMS density matrix=1.00D-08 within 128 cycles.
 Requested convergence on MAX density matrix=1.00D-06.
 Requested convergence on             energy=1.00D-06.
 No special actions if energy rises.
 SCF Done:  E(RwB97XD) =  -2201.52723577     A.U. after   19 cycles
            NFock= 19  Conv=0.54D-08     -V/T= 2.0033

 **********************************************************************

            Population analysis using the SCF Density.

 **********************************************************************

 Orbital symmetries:
       Occupied  (A) (A) (A) (A) (A) (A) (A) (A) (A) (A) (A) (A)
                 (A) (A) (A) (A) (A) (A) (A) (A) (A) (A) (A) (A)
                 (A) (A) (A) (A) (A) (A) (A) (A) (A) (A) (A) (A)
                 (A) (A) (A) (A) (A) (A) (A) (A) (A) (A) (A) (A)
                 (A) (A) (A) (A) (A) (A) (A) (A) (A) (A) (A) (A)
                 (A) (A) (A) (A) (A) (A) (A) (A) (A) (A) (A) (A)
                 (A) (A) (A) (A) (A) (A) (A) (A) (A) (A) (A) (A)
                 (A) (A) (A) (A) (A) (A) (A) (A) (A) (A) (A) (A)
                 (A) (A) (A) (A) (A) (A) (A) (A) (A) (A) (A) (A)
                 (A) (A) (A) (A) (A) (A) (A) (A) (A) (A)
       Virtual   (A) (A) (A) (A) (A) (A) (A) (A) (A) (A) (A) (A)
                 (A) (A) (A) (A) (A) (A) (A) (A) (A) (A) (A) (A)
                 (A) (A) (A) (A) (A) (A) (A) (A) (A) (A) (A) (A)
                 (A) (A) (A) (A) (A) (A) (A) (A) (A) (A) (A) (A)
                 (A) (A) (A) (A) (A) (A) (A) (A) (A) (A) (A) (A)
                 (A) (A) (A) (A) (A) (A) (A) (A) (A) (A) (A) (A)
                 (A) (A) (A) (A) (A) (A) (A) (A) (A) (A) (A) (A)
                 (A) (A) (A) (A) (A) (A) (A) (A) (A) (A) (A) (A)
                 (A) (A) (A) (A) (A) (A) (A) (A) (A) (A) (A) (A)
                 (A) (A) (A) (A) (A) (A) (A) (A) (A) (A) (A) (A)
                 (A) (A) (A) (A) (A) (A) (A) (A) (A) (A) (A) (A)
                 (A) (A) (A) (A) (A) (A) (A) (A) (A) (A) (A) (A)
                 (A) (A) (A) (A) (A) (A) (A) (A) (A) (A) (A) (A)
                 (A) (A) (A) (A) (A) (A) (A) (A) (A) (A) (A) (A)
                 (A) (A) (A) (A) (A) (A) (A) (A) (A) (A) (A) (A)
                 (A) (A) (A) (A) (A) (A) (A) (A) (A) (A) (A) (A)
                 (A) (A) (A) (A) (A) (A) (A) (A) (A) (A) (A) (A)
                 (A) (A) (A) (A) (A) (A) (A) (A) (A) (A) (A) (A)
                 (A) (A) (A) (A) (A) (A) (A) (A) (A) (A) (A) (A)
                 (A) (A) (A) (A) (A) (A) (A) (A) (A) (A) (A) (A)
                 (A) (A) (A) (A) (A) (A) (A) (A) (A) (A) (A) (A)
                 (A) (A) (A) (A) (A) (A) (A) (A) (A) (A) (A) (A)
                 (A) (A) (A) (A) (A) (A) (A) (A) (A) (A) (A) (A)
                 (A) (A) (A) (A) (A) (A) (A) (A) (A) (A) (A) (A)
                 (A) (A) (A) (A) (A) (A) (A) (A) (A) (A) (A) (A)
                 (A) (A) (A) (A) (A) (A) (A) (A) (A) (A) (A) (A)
                 (A) (A) (A) (A) (A) (A) (A) (A) (A) (A) (A) (A)
                 (A) (A) (A) (A) (A) (A) (A) (A) (A) (A) (A) (A)
                 (A) (A) (A) (A) (A) (A) (A) (A) (A) (A) (A) (A)
                 (A) (A) (A) (A) (A) (A) (A) (A) (A) (A) (A) (A)
                 (A) (A) (A) (A) (A) (A) (A) (A) (A) (A) (A) (A)
                 (A) (A) (A) (A) (A) (A) (A) (A) (A) (A) (A) (A)
                 (A) (A) (A) (A) (A) (A) (A) (A) (A) (A) (A) (A)
                 (A) (A) (A) (A) (A) (A) (A) (A) (A) (A) (A) (A)
                 (A) (A) (A) (A) (A) (A) (A) (A) (A) (A) (A) (A)
                 (A) (A) (A) (A) (A) (A) (A) (A) (A) (A) (A) (A)
                 (A) (A) (A) (A) (A) (A) (A) (A) (A) (A) (A) (A)
                 (A) (A) (A) (A) (A) (A) (A) (A) (A) (A) (A) (A)
                 (A) (A) (A) (A) (A) (A) (A) (A) (A) (A) (A) (A)
                 (A) (A) (A) (A) (A) (A) (A) (A) (A) (A) (A) (A)
                 (A) (A) (A) (A) (A) (A) (A) (A) (A) (A) (A) (A)
                 (A) (A) (A) (A) (A) (A) (A) (A) (A) (A) (A) (A)
                 (A) (A) (A) (A) (A) (A) (A) (A) (A) (A) (A) (A)
                 (A) (A) (A) (A) (A) (A) (A) (A) (A) (A) (A) (A)
                 (A) (A) (A) (A) (A) (A) (A) (A) (A) (A) (A) (A)
                 (A) (A) (A) (A) (A) (A) (A) (A) (A) (A) (A) (A)
                 (A) (A) (A) (A) (A) (A) (A) (A) (A) (A) (A) (A)
                 (A) (A) (A) (A) (A) (A) (A) (A) (A) (A) (A) (A)
                 (A) (A) (A) (A) (A) (A) (A) (A) (A) (A) (A) (A)
                 (A) (A) (A) (A) (A) (A) (A) (A) (A) (A) (A) (A)
                 (A) (A) (A) (A) (A) (A) (A) (A) (A) (A) (A) (A)
                 (A) (A) (A) (A) (A) (A) (A) (A) (A) (A) (A) (A)
                 (A) (A) (A) (A) (A) (A) (A) (A) (A) (A) (A) (A)
                 (A) (A) (A) (A) (A) (A) (A) (A) (A) (A) (A) (A)
                 (A) (A)
 The electronic state is 1-A.
 Alpha  occ. eigenvalues --  -89.05445 -89.04948 -19.30041 -19.29731 -19.25985
 Alpha  occ. eigenvalues --  -19.25904 -19.25642 -19.25491 -14.51401 -14.50219
 Alpha  occ. eigenvalues --  -10.44242 -10.43857 -10.43828 -10.43660 -10.36802
 Alpha  occ. eigenvalues --  -10.36282 -10.36153 -10.35863 -10.35809 -10.35359
 Alpha  occ. eigenvalues --  -10.34976 -10.34902 -10.34879 -10.33997 -10.33963
 Alpha  occ. eigenvalues --  -10.33823 -10.33721 -10.33544 -10.32963 -10.32340
 Alpha  occ. eigenvalues --  -10.30843 -10.30046  -8.09400  -8.08910  -6.04262
 Alpha  occ. eigenvalues --   -6.03864  -6.03762  -6.03462  -6.03366  -6.02991
 Alpha  occ. eigenvalues --   -1.19090  -1.18998  -1.17331  -1.17304  -1.17093
 Alpha  occ. eigenvalues --   -1.16294  -1.06411  -1.05979  -1.03263  -1.00366
 Alpha  occ. eigenvalues --   -0.98665  -0.97356  -0.94691  -0.90921  -0.89374
 Alpha  occ. eigenvalues --   -0.87357  -0.84189  -0.83396  -0.82354  -0.81302
 Alpha  occ. eigenvalues --   -0.80623  -0.77268  -0.76523  -0.74870  -0.72254
 Alpha  occ. eigenvalues --   -0.70621  -0.70461  -0.69011  -0.68086  -0.66340
 Alpha  occ. eigenvalues --   -0.65250  -0.64145  -0.63060  -0.61857  -0.61240
 Alpha  occ. eigenvalues --   -0.60498  -0.59696  -0.58908  -0.57991  -0.56928
 Alpha  occ. eigenvalues --   -0.56849  -0.56232  -0.55894  -0.55015  -0.54676
 Alpha  occ. eigenvalues --   -0.54531  -0.53726  -0.52995  -0.52746  -0.51937
 Alpha  occ. eigenvalues --   -0.51825  -0.51501  -0.51069  -0.50993  -0.50842
 Alpha  occ. eigenvalues --   -0.48959  -0.47792  -0.47397  -0.46516  -0.46068
 Alpha  occ. eigenvalues --   -0.44908  -0.44118  -0.43996  -0.42855  -0.41557
 Alpha  occ. eigenvalues --   -0.41174  -0.40451  -0.39644  -0.39230  -0.39004
 Alpha  occ. eigenvalues --   -0.38166  -0.37628  -0.36932  -0.35352  -0.33774
 Alpha  occ. eigenvalues --   -0.32385  -0.31982  -0.26111
 Alpha virt. eigenvalues --   -0.08437  -0.01833  -0.00601   0.01344   0.02111
 Alpha virt. eigenvalues --    0.03601   0.04660   0.05055   0.05929   0.06222
 Alpha virt. eigenvalues --    0.06358   0.06672   0.07090   0.07478   0.07668
 Alpha virt. eigenvalues --    0.07863   0.08261   0.08640   0.09120   0.09392
 Alpha virt. eigenvalues --    0.09721   0.09985   0.10039   0.10386   0.10650
 Alpha virt. eigenvalues --    0.11106   0.11545   0.11714   0.11917   0.12108
 Alpha virt. eigenvalues --    0.12720   0.12836   0.13537   0.13556   0.14028
 Alpha virt. eigenvalues --    0.14111   0.14422   0.15199   0.15503   0.15563
 Alpha virt. eigenvalues --    0.15733   0.15841   0.16355   0.16519   0.16798
 Alpha virt. eigenvalues --    0.17115   0.17595   0.17825   0.18067   0.18520
 Alpha virt. eigenvalues --    0.18606   0.18937   0.19419   0.19495   0.19545
 Alpha virt. eigenvalues --    0.19936   0.20162   0.20408   0.20841   0.21152
 Alpha virt. eigenvalues --    0.21322   0.21481   0.21646   0.21881   0.21979
 Alpha virt. eigenvalues --    0.22166   0.22573   0.22687   0.22765   0.23267
 Alpha virt. eigenvalues --    0.23683   0.23791   0.24038   0.24367   0.24487
 Alpha virt. eigenvalues --    0.24787   0.25032   0.25371   0.25580   0.25948
 Alpha virt. eigenvalues --    0.25985   0.26176   0.26332   0.26682   0.26822
 Alpha virt. eigenvalues --    0.27110   0.27337   0.27552   0.27742   0.28123
 Alpha virt. eigenvalues --    0.28456   0.28658   0.29021   0.29126   0.29175
 Alpha virt. eigenvalues --    0.29283   0.29648   0.29800   0.30129   0.30624
 Alpha virt. eigenvalues --    0.30874   0.31153   0.31316   0.31608   0.31860
 Alpha virt. eigenvalues --    0.31917   0.32118   0.32499   0.32607   0.32797
 Alpha virt. eigenvalues --    0.32941   0.33179   0.33262   0.33654   0.34137
 Alpha virt. eigenvalues --    0.34465   0.34641   0.34719   0.34875   0.35316
 Alpha virt. eigenvalues --    0.35555   0.35805   0.36039   0.36313   0.36724
 Alpha virt. eigenvalues --    0.36819   0.37161   0.37463   0.37518   0.38033
 Alpha virt. eigenvalues --    0.38276   0.38471   0.38821   0.39158   0.39308
 Alpha virt. eigenvalues --    0.39464   0.39752   0.39967   0.40195   0.40679
 Alpha virt. eigenvalues --    0.41208   0.41235   0.41673   0.42216   0.42618
 Alpha virt. eigenvalues --    0.43270   0.43755   0.43876   0.44700   0.44881
 Alpha virt. eigenvalues --    0.45302   0.45519   0.45734   0.45998   0.46274
 Alpha virt. eigenvalues --    0.47582   0.47846   0.48033   0.48454   0.49502
 Alpha virt. eigenvalues --    0.50250   0.50332   0.51043   0.51833   0.52896
 Alpha virt. eigenvalues --    0.53323   0.53669   0.54161   0.54751   0.55013
 Alpha virt. eigenvalues --    0.55541   0.55643   0.56421   0.57124   0.57539
 Alpha virt. eigenvalues --    0.57982   0.58468   0.59290   0.59515   0.60698
 Alpha virt. eigenvalues --    0.61384   0.61496   0.62381   0.62897   0.63216
 Alpha virt. eigenvalues --    0.63546   0.64219   0.64545   0.65070   0.65240
 Alpha virt. eigenvalues --    0.66104   0.66471   0.66816   0.67510   0.67769
 Alpha virt. eigenvalues --    0.68174   0.68715   0.68924   0.69105   0.69870
 Alpha virt. eigenvalues --    0.69982   0.70837   0.71204   0.71332   0.72085
 Alpha virt. eigenvalues --    0.72354   0.73082   0.73560   0.73823   0.73959
 Alpha virt. eigenvalues --    0.74234   0.74916   0.75426   0.76273   0.76411
 Alpha virt. eigenvalues --    0.76570   0.77362   0.77853   0.78458   0.78775
 Alpha virt. eigenvalues --    0.79242   0.79582   0.80133   0.80308   0.80637
 Alpha virt. eigenvalues --    0.80914   0.81763   0.82042   0.82535   0.83283
 Alpha virt. eigenvalues --    0.84063   0.84734   0.84935   0.85193   0.85605
 Alpha virt. eigenvalues --    0.86427   0.86599   0.86699   0.88002   0.88978
 Alpha virt. eigenvalues --    0.89807   0.90063   0.90648   0.91217   0.91519
 Alpha virt. eigenvalues --    0.92367   0.93171   0.93535   0.94575   0.94803
 Alpha virt. eigenvalues --    0.95069   0.95824   0.96268   0.96636   0.96957
 Alpha virt. eigenvalues --    0.97288   0.97833   0.98083   0.99018   0.99060
 Alpha virt. eigenvalues --    0.99579   0.99894   1.00097   1.00778   1.01474
 Alpha virt. eigenvalues --    1.01765   1.02220   1.02656   1.02863   1.03598
 Alpha virt. eigenvalues --    1.04159   1.04660   1.05040   1.06298   1.06659
 Alpha virt. eigenvalues --    1.07054   1.07552   1.08609   1.09141   1.09823
 Alpha virt. eigenvalues --    1.10052   1.10713   1.10961   1.11326   1.12345
 Alpha virt. eigenvalues --    1.12770   1.13304   1.13614   1.14265   1.14929
 Alpha virt. eigenvalues --    1.15651   1.15834   1.16335   1.16712   1.17542
 Alpha virt. eigenvalues --    1.18655   1.19041   1.20014   1.20310   1.21514
 Alpha virt. eigenvalues --    1.21664   1.22797   1.23101   1.23665   1.24630
 Alpha virt. eigenvalues --    1.24909   1.25310   1.25779   1.26700   1.27214
 Alpha virt. eigenvalues --    1.29269   1.29526   1.29843   1.31012   1.31438
 Alpha virt. eigenvalues --    1.31861   1.32368   1.32998   1.33836   1.34519
 Alpha virt. eigenvalues --    1.35063   1.35279   1.36217   1.37034   1.38050
 Alpha virt. eigenvalues --    1.39282   1.40378   1.41400   1.42176   1.43186
 Alpha virt. eigenvalues --    1.43935   1.44442   1.45522   1.47141   1.48126
 Alpha virt. eigenvalues --    1.49238   1.49754   1.51535   1.51629   1.52227
 Alpha virt. eigenvalues --    1.52577   1.53329   1.54362   1.54516   1.54905
 Alpha virt. eigenvalues --    1.55146   1.55599   1.56484   1.57309   1.58284
 Alpha virt. eigenvalues --    1.58809   1.59775   1.61206   1.61763   1.62911
 Alpha virt. eigenvalues --    1.63238   1.63511   1.64091   1.65343   1.66434
 Alpha virt. eigenvalues --    1.66862   1.67708   1.68860   1.69551   1.70651
 Alpha virt. eigenvalues --    1.72187   1.73180   1.73778   1.74116   1.75137
 Alpha virt. eigenvalues --    1.75287   1.75810   1.76663   1.77403   1.78098
 Alpha virt. eigenvalues --    1.78916   1.79070   1.79847   1.80873   1.81294
 Alpha virt. eigenvalues --    1.82548   1.84220   1.84963   1.85101   1.85483
 Alpha virt. eigenvalues --    1.86437   1.87474   1.88142   1.88474   1.89996
 Alpha virt. eigenvalues --    1.90716   1.92806   1.92969   1.93600   1.93864
 Alpha virt. eigenvalues --    1.94662   1.94810   1.95112   1.95803   1.96255
 Alpha virt. eigenvalues --    1.97142   1.97891   1.98456   1.99366   1.99628
 Alpha virt. eigenvalues --    2.00174   2.01328   2.02455   2.02971   2.03521
 Alpha virt. eigenvalues --    2.04039   2.05094   2.06078   2.06537   2.07060
 Alpha virt. eigenvalues --    2.07468   2.08686   2.09201   2.10523   2.12043
 Alpha virt. eigenvalues --    2.12430   2.13028   2.14176   2.14711   2.15964
 Alpha virt. eigenvalues --    2.16308   2.17447   2.18734   2.19110   2.20362
 Alpha virt. eigenvalues --    2.20528   2.21651   2.21979   2.23505   2.23832
 Alpha virt. eigenvalues --    2.24474   2.25422   2.26201   2.27729   2.28236
 Alpha virt. eigenvalues --    2.29929   2.32810   2.33470   2.34749   2.37032
 Alpha virt. eigenvalues --    2.38877   2.39640   2.41486   2.45382   2.46217
 Alpha virt. eigenvalues --    2.48490   2.49078   2.49576   2.50680   2.52516
 Alpha virt. eigenvalues --    2.54634   2.56086   2.57975   2.58736   2.61819
 Alpha virt. eigenvalues --    2.62782   2.65515   2.66276   2.67402   2.68575
 Alpha virt. eigenvalues --    2.69990   2.70680   2.71690   2.72107   2.72997
 Alpha virt. eigenvalues --    2.73696   2.75911   2.75978   2.77463   2.77532
 Alpha virt. eigenvalues --    2.78584   2.79374   2.79711   2.80384   2.81697
 Alpha virt. eigenvalues --    2.82083   2.82732   2.83587   2.84904   2.86007
 Alpha virt. eigenvalues --    2.86656   2.87322   2.87990   2.89833   2.90989
 Alpha virt. eigenvalues --    2.91691   2.92523   2.93211   2.93999   2.95176
 Alpha virt. eigenvalues --    2.97177   2.97474   2.98036   2.98578   2.99473
 Alpha virt. eigenvalues --    3.00300   3.00959   3.01417   3.01802   3.02402
 Alpha virt. eigenvalues --    3.03494   3.04028   3.05623   3.06172   3.06649
 Alpha virt. eigenvalues --    3.06840   3.08591   3.09429   3.11059   3.13872
 Alpha virt. eigenvalues --    3.14907   3.15258   3.18059   3.19729   3.21518
 Alpha virt. eigenvalues --    3.22333   3.23930   3.24334   3.25875   3.26916
 Alpha virt. eigenvalues --    3.27209   3.28806   3.29836   3.30480   3.32261
 Alpha virt. eigenvalues --    3.32819   3.35705   3.36468   3.38480   3.39682
 Alpha virt. eigenvalues --    3.41361   3.41628   3.42121   3.42717   3.43199
 Alpha virt. eigenvalues --    3.43551   3.46030   3.46558   3.46832   3.47944
 Alpha virt. eigenvalues --    3.49341   3.50747   3.51417   3.52511   3.52937
 Alpha virt. eigenvalues --    3.55343   3.56102   3.58296   3.62104   3.64378
 Alpha virt. eigenvalues --    3.65851   3.67487   3.67649   3.69708   3.72675
 Alpha virt. eigenvalues --    3.74157   3.77235   3.84044   3.87926   3.90411
 Alpha virt. eigenvalues --    3.94058   3.94632   3.95249   3.96639   3.98853
 Alpha virt. eigenvalues --    4.00902   4.02987   4.06963   4.09938   4.11817
 Alpha virt. eigenvalues --    4.17927   4.20433   4.25464   4.29444   4.31993
 Alpha virt. eigenvalues --    4.34092   4.42177   4.43582   4.45014   4.57447
 Alpha virt. eigenvalues --    4.72513   4.75311   4.87750   4.92375   4.94341
 Alpha virt. eigenvalues --    5.12149   5.12609   5.14027   5.15434   5.15727
 Alpha virt. eigenvalues --    5.18135   5.19390   5.20868   5.30606   5.33335
 Alpha virt. eigenvalues --    5.34700   5.36899   5.41191   5.51549   5.79222
 Alpha virt. eigenvalues --    5.82132   5.84218   5.88222   5.89380   5.92496
 Alpha virt. eigenvalues --    8.11009   8.12724  17.42840  17.46216  17.62367
 Alpha virt. eigenvalues --   17.65987  17.70282  17.75705  23.58452  23.66497
 Alpha virt. eigenvalues --   23.81894  23.90525  23.92533  23.93531  23.94863
 Alpha virt. eigenvalues --   23.97065  23.97632  23.98340  24.00435  24.04817
 Alpha virt. eigenvalues --   24.06528  24.09484  24.12271  24.13381  24.14405
 Alpha virt. eigenvalues --   24.15424  24.24307  24.25141  24.25647  24.25815
 Alpha virt. eigenvalues --   35.68531  35.74307  50.05487  50.07306  50.12174
 Alpha virt. eigenvalues --   50.13847  50.17282  50.18827 189.35944 189.38212
          Condensed to atoms (all electrons):
               1          2          3          4          5          6
     1  C   13.490375  -4.646569  -0.894779   1.967838  -2.544488  -0.671744
     2  C   -4.646569  12.168372   0.458736  -0.212411   1.462292  -0.358356
     3  C   -0.894779   0.458736   6.758575   0.874169  -0.761147   0.445801
     4  C    1.967838  -0.212411   0.874169  13.540542  -3.570207  -0.527427
     5  C   -2.544488   1.462292  -0.761147  -3.570207  10.764227   0.210812
     6  C   -0.671744  -0.358356   0.445801  -0.527427   0.210812   9.207033
     7  C   -1.214365   1.036508   1.215735  -0.127883  -0.233671   0.441871
     8  C   -0.233146  -0.252217   0.441285   0.141889   0.110654   1.316346
     9  C   -0.592126  -0.437765  -0.295811  -0.273129   0.395918  -1.192802
    10  C    0.097587  -0.361986  -0.220853   0.004765  -0.078791  -1.662379
    11  C    0.090448   0.406487  -1.041807   0.287105  -0.088752   0.011610
    12  C    0.363027   0.162529   0.555327  -0.062739  -0.269063   0.316016
    13  C    0.092770  -1.059896  -0.805818  -5.379299   0.388737   0.452802
    14  C   -0.380407  -1.418310  -0.483765  -0.571393  -0.213359   0.221061
    15  H    0.002018  -0.006784   0.010378  -0.056923  -0.011736   0.000118
    16  H   -0.000873  -0.002255  -0.004406  -0.001075   0.006307  -0.000027
    17  H    0.005286  -0.032710   0.007950  -0.002151   0.002987   0.407019
    18  N   -0.004769   0.016172   0.019999   0.001982   0.001034   0.039999
    19  N    0.071005  -0.225801  -0.040512  -0.127789   0.028339   0.111177
    20  O    0.301942  -0.158313  -0.000193  -0.042170   0.086743   0.061049
    21  O    0.115721  -0.078804   0.013323  -0.244964   0.300992   0.003444
    22  O    0.000835  -0.001584  -0.013272   0.008533   0.000112   0.000118
    23  O   -0.000421   0.001539  -0.006274   0.001470   0.000594   0.023499
    24  C    0.534937  -0.244195  -0.523039   0.052257  -0.007102  -1.727919
    25  C   -0.084759  -0.271614  -0.042686  -0.037680   0.009255  -0.351251
    26  S   -0.024646   0.211047   0.052846   0.050753   0.002524   0.316993
    27  C    0.011728  -0.013136  -0.034672  -0.016036  -0.002867  -0.261603
    28  H   -0.000719  -0.002627   0.001859   0.000147   0.000049   0.019196
    29  C    0.033102  -0.165593  -0.032941  -0.021368   0.000490  -0.454512
    30  O   -0.000021  -0.000344   0.000108  -0.000006   0.000003   0.006326
    31  C   -0.008038  -0.020746   0.002574  -0.001806   0.000176   0.020289
    32  C   -0.003213  -0.042596  -0.000500  -0.002308   0.000022   0.077968
    33  S    0.000118   0.002013  -0.000127   0.000060   0.000006  -0.012948
    34  C    0.000564   0.002970   0.000203   0.000016   0.000000  -0.005012
    35  O   -0.000188   0.000141   0.000096  -0.000029   0.000003   0.007878
    36  C   -0.000167  -0.001301   0.000027  -0.000029   0.000000   0.006940
    37  H   -0.000000   0.000001   0.000000   0.000000   0.000000  -0.000001
    38  H    0.000000   0.000000   0.000000  -0.000000   0.000000  -0.000000
    39  H   -0.000070  -0.000123  -0.000002  -0.000003  -0.000000   0.001061
    40  H    0.000007   0.000146  -0.000005   0.000005  -0.000001  -0.002436
    41  H    0.009933  -0.031892  -0.007942   0.001049  -0.009231   0.019657
    42  H   -0.000213  -0.002382   0.001415  -0.001371  -0.000108   0.003721
               7          8          9         10         11         12
     1  C   -1.214365  -0.233146  -0.592126   0.097587   0.090448   0.363027
     2  C    1.036508  -0.252217  -0.437765  -0.361986   0.406487   0.162529
     3  C    1.215735   0.441285  -0.295811  -0.220853  -1.041807   0.555327
     4  C   -0.127883   0.141889  -0.273129   0.004765   0.287105  -0.062739
     5  C   -0.233671   0.110654   0.395918  -0.078791  -0.088752  -0.269063
     6  C    0.441871   1.316346  -1.192802  -1.662379   0.011610   0.316016
     7  C    7.293218  -0.193456  -0.466039  -0.554965  -1.147944   0.937883
     8  C   -0.193456   9.354322   0.089721  -2.322772   0.556600   0.467998
     9  C   -0.466039   0.089721   8.075843   0.457671  -0.160403  -0.367388
    10  C   -0.554965  -2.322772   0.457671  11.575355  -1.916006   1.027493
    11  C   -1.147944   0.556600  -0.160403  -1.916006  11.865526  -3.581911
    12  C    0.937883   0.467998  -0.367388   1.027493  -3.581911  14.518852
    13  C   -0.640185  -1.048708  -0.059330  -0.497568  -0.028237  -0.287753
    14  C   -0.031318  -1.664073  -0.236411  -0.437461   0.331019  -7.065927
    15  H   -0.006486  -0.001558   0.000181  -0.000421   0.004630   0.007337
    16  H    0.019229  -0.011942   0.001367   0.001052  -0.023663  -0.057923
    17  H   -0.013499   0.031713  -0.027762   0.005716  -0.000378   0.001387
    18  N    0.046757  -0.049036   0.006617  -0.158553   0.001467  -0.080387
    19  N   -0.058922   0.044282   0.025161   0.009324  -0.003376   0.002801
    20  O   -0.031870   0.019018   0.073447   0.001854   0.000653  -0.001014
    21  O   -0.029336   0.000903   0.001223   0.000254   0.002607   0.026882
    22  O    0.000704  -0.061125   0.003074   0.076187   0.280009  -0.263451
    23  O    0.028369  -0.096149  -0.025450   0.300695   0.046397  -0.017013
    24  C   -0.518557  -0.522016   1.131549   1.210888   0.102349  -0.506136
    25  C   -0.041677   0.261547  -0.044505  -0.073665  -0.018322  -0.057243
    26  S   -0.019345   0.096189  -0.021316  -0.106853  -0.034001   0.013521
    27  C   -0.001848  -0.226390  -0.200374  -0.120596   0.022239  -0.013088
    28  H    0.000367   0.028281   0.011499  -0.006508  -0.000802   0.001397
    29  C   -0.024393  -0.435599   0.182667   0.000464   0.010963  -0.076490
    30  O   -0.000092   0.006009  -0.006557  -0.004057   0.000022   0.000172
    31  C   -0.004698   0.026070  -0.178238  -0.041833  -0.000396  -0.002595
    32  C   -0.001454  -0.021967  -0.198686  -0.040301   0.000472  -0.003495
    33  S   -0.000047  -0.007351   0.025478   0.005879  -0.000013   0.000073
    34  C    0.000086  -0.006864   0.034462   0.001957   0.000024   0.000130
    35  O    0.000089   0.000727  -0.000622  -0.001026  -0.000011  -0.000067
    36  C   -0.000077   0.001372  -0.014969  -0.001265   0.000002  -0.000029
    37  H    0.000000   0.000000   0.000025  -0.000000  -0.000000  -0.000000
    38  H    0.000000  -0.000001   0.000016   0.000000   0.000000  -0.000000
    39  H   -0.000000   0.000033  -0.000972  -0.000103  -0.000000  -0.000005
    40  H   -0.000275  -0.000258  -0.000676   0.000630  -0.000037   0.000090
    41  H   -0.006417   0.002337   0.000559   0.000148   0.000078   0.001734
    42  H   -0.010337  -0.001553   0.003761   0.010035  -0.042808   0.030560
              13         14         15         16         17         18
     1  C    0.092770  -0.380407   0.002018  -0.000873   0.005286  -0.004769
     2  C   -1.059896  -1.418310  -0.006784  -0.002255  -0.032710   0.016172
     3  C   -0.805818  -0.483765   0.010378  -0.004406   0.007950   0.019999
     4  C   -5.379299  -0.571393  -0.056923  -0.001075  -0.002151   0.001982
     5  C    0.388737  -0.213359  -0.011736   0.006307   0.002987   0.001034
     6  C    0.452802   0.221061   0.000118  -0.000027   0.407019   0.039999
     7  C   -0.640185  -0.031318  -0.006486   0.019229  -0.013499   0.046757
     8  C   -1.048708  -1.664073  -0.001558  -0.011942   0.031713  -0.049036
     9  C   -0.059330  -0.236411   0.000181   0.001367  -0.027762   0.006617
    10  C   -0.497568  -0.437461  -0.000421   0.001052   0.005716  -0.158553
    11  C   -0.028237   0.331019   0.004630  -0.023663  -0.000378   0.001467
    12  C   -0.287753  -7.065927   0.007337  -0.057923   0.001387  -0.080387
    13  C   15.406575  -0.502500  -0.035377   0.459648  -0.000419  -0.005729
    14  C   -0.502500  18.740259   0.450694  -0.028795  -0.000887  -0.012649
    15  H   -0.035377   0.450694   0.447207  -0.004119   0.000000   0.000097
    16  H    0.459648  -0.028795  -0.004119   0.445435   0.000000  -0.001601
    17  H   -0.000419  -0.000887   0.000000   0.000000   0.426745  -0.000026
    18  N   -0.005729  -0.012649   0.000097  -0.001601  -0.000026   7.351150
    19  N    0.017144  -0.005251  -0.002053   0.000071  -0.001148   0.000101
    20  O   -0.001710   0.000470  -0.000005   0.000001   0.011504  -0.000013
    21  O    0.159488   0.042394   0.007644   0.000071  -0.000008  -0.000050
    22  O    0.115355   0.193055   0.000043   0.008001   0.000000  -0.056194
    23  O    0.000235  -0.003045   0.000001  -0.000010   0.000145  -0.071885
    24  C   -0.238363  -0.281258  -0.000043  -0.000327  -0.015517  -0.051141
    25  C   -0.017377  -0.004229   0.000002  -0.000006  -0.012389   0.014828
    26  S    0.020527   0.012095   0.000000  -0.000008   0.018127  -0.014888
    27  C    0.005668   0.000997  -0.000000  -0.000003  -0.012645   0.014367
    28  H    0.000040   0.000061   0.000000   0.000000  -0.000083  -0.000661
    29  C   -0.012879  -0.008881  -0.000001  -0.000001  -0.011527   0.000184
    30  O    0.000007   0.000003  -0.000000   0.000000   0.000040   0.000062
    31  C   -0.000265  -0.000087   0.000000   0.000000  -0.002406  -0.000366
    32  C   -0.000261  -0.000170  -0.000000  -0.000000  -0.001250  -0.000132
    33  S    0.000015  -0.000003  -0.000000  -0.000000  -0.000146   0.000102
    34  C    0.000018   0.000004  -0.000000  -0.000000   0.000111   0.000036
    35  O   -0.000005  -0.000003   0.000000   0.000000  -0.000023  -0.000012
    36  C   -0.000002  -0.000001   0.000000   0.000000  -0.000030  -0.000002
    37  H   -0.000000   0.000000   0.000000   0.000000   0.000000  -0.000000
    38  H   -0.000000  -0.000000   0.000000   0.000000   0.000000   0.000000
    39  H   -0.000000  -0.000000   0.000000   0.000000  -0.000004  -0.000000
    40  H    0.000005   0.000001   0.000000  -0.000000  -0.000004   0.000000
    41  H    0.005890   0.016638  -0.000010  -0.000000  -0.000028  -0.000001
    42  H    0.024114   0.006892  -0.000000  -0.000039   0.000001   0.269248
              19         20         21         22         23         24
     1  C    0.071005   0.301942   0.115721   0.000835  -0.000421   0.534937
     2  C   -0.225801  -0.158313  -0.078804  -0.001584   0.001539  -0.244195
     3  C   -0.040512  -0.000193   0.013323  -0.013272  -0.006274  -0.523039
     4  C   -0.127789  -0.042170  -0.244964   0.008533   0.001470   0.052257
     5  C    0.028339   0.086743   0.300992   0.000112   0.000594  -0.007102
     6  C    0.111177   0.061049   0.003444   0.000118   0.023499  -1.727919
     7  C   -0.058922  -0.031870  -0.029336   0.000704   0.028369  -0.518557
     8  C    0.044282   0.019018   0.000903  -0.061125  -0.096149  -0.522016
     9  C    0.025161   0.073447   0.001223   0.003074  -0.025450   1.131549
    10  C    0.009324   0.001854   0.000254   0.076187   0.300695   1.210888
    11  C   -0.003376   0.000653   0.002607   0.280009   0.046397   0.102349
    12  C    0.002801  -0.001014   0.026882  -0.263451  -0.017013  -0.506136
    13  C    0.017144  -0.001710   0.159488   0.115355   0.000235  -0.238363
    14  C   -0.005251   0.000470   0.042394   0.193055  -0.003045  -0.281258
    15  H   -0.002053  -0.000005   0.007644   0.000043   0.000001  -0.000043
    16  H    0.000071   0.000001   0.000071   0.008001  -0.000010  -0.000327
    17  H   -0.001148   0.011504  -0.000008   0.000000   0.000145  -0.015517
    18  N    0.000101  -0.000013  -0.000050  -0.056194  -0.071885  -0.051141
    19  N    7.259302  -0.060425  -0.052445  -0.000030   0.000008   0.020648
    20  O   -0.060425   7.965213   0.001561  -0.000000   0.000014   0.025975
    21  O   -0.052445   0.001561   7.987623   0.000019   0.000000   0.000004
    22  O   -0.000030  -0.000000   0.000019   7.972732   0.001345  -0.001269
    23  O    0.000008   0.000014   0.000000   0.001345   7.976129  -0.050418
    24  C    0.020648   0.025975   0.000004  -0.001269  -0.050418  11.974794
    25  C   -0.001524   0.002496   0.000012  -0.001315  -0.006565   0.332061
    26  S    0.008128  -0.001451  -0.000015   0.000176   0.007215   0.127913
    27  C   -0.000035   0.000208  -0.000004  -0.000081   0.027728  -2.270736
    28  H   -0.000003   0.000001   0.000000   0.000004  -0.004740   0.055495
    29  C   -0.000218   0.004022  -0.000005  -0.000057   0.027983  -1.607283
    30  O   -0.000000  -0.000000   0.000000  -0.000000  -0.000183   0.066377
    31  C   -0.000028  -0.000016  -0.000000  -0.000005   0.006869  -0.205702
    32  C   -0.000042   0.000387  -0.000000  -0.000001   0.003787  -0.906056
    33  S    0.000003  -0.000003  -0.000000   0.000000  -0.000191   0.122578
    34  C    0.000004   0.000004  -0.000000   0.000000   0.000201  -0.140617
    35  O    0.000001   0.000007  -0.000000  -0.000000   0.000008  -0.006687
    36  C   -0.000001   0.000002   0.000000  -0.000000  -0.000028  -0.019826
    37  H    0.000000   0.000000   0.000000  -0.000000   0.000000   0.000087
    38  H   -0.000000  -0.000000  -0.000000   0.000000   0.000000  -0.000114
    39  H   -0.000000   0.000001   0.000000  -0.000000  -0.000001   0.001014
    40  H    0.000000  -0.000000   0.000000   0.000000  -0.000109  -0.060200
    41  H    0.281112   0.007732   0.008272   0.000000   0.000000   0.000844
    42  H    0.000001  -0.000000  -0.000000   0.009612   0.014569  -0.003775
              25         26         27         28         29         30
     1  C   -0.084759  -0.024646   0.011728  -0.000719   0.033102  -0.000021
     2  C   -0.271614   0.211047  -0.013136  -0.002627  -0.165593  -0.000344
     3  C   -0.042686   0.052846  -0.034672   0.001859  -0.032941   0.000108
     4  C   -0.037680   0.050753  -0.016036   0.000147  -0.021368  -0.000006
     5  C    0.009255   0.002524  -0.002867   0.000049   0.000490   0.000003
     6  C   -0.351251   0.316993  -0.261603   0.019196  -0.454512   0.006326
     7  C   -0.041677  -0.019345  -0.001848   0.000367  -0.024393  -0.000092
     8  C    0.261547   0.096189  -0.226390   0.028281  -0.435599   0.006009
     9  C   -0.044505  -0.021316  -0.200374   0.011499   0.182667  -0.006557
    10  C   -0.073665  -0.106853  -0.120596  -0.006508   0.000464  -0.004057
    11  C   -0.018322  -0.034001   0.022239  -0.000802   0.010963   0.000022
    12  C   -0.057243   0.013521  -0.013088   0.001397  -0.076490   0.000172
[...]
    37  H   -0.000000   0.000000   0.000000  -0.000000   0.000000  -0.000000
    38  H   -0.000000  -0.000000   0.000000   0.000000   0.000000   0.000000
    39  H   -0.000000  -0.000000   0.000000  -0.000000  -0.000004  -0.000000
    40  H    0.000007   0.000002   0.000000  -0.000000  -0.000002  -0.000009
    41  H    0.002155   0.004482  -0.000011   0.000000  -0.000015  -0.000001
    42  H   -0.004038  -0.000339   0.000000  -0.000014  -0.000000   0.340288
              19         20         21         22         23         24
     1  C    0.142502   0.265994   0.109652   0.000570  -0.001485   0.637668
     2  C   -0.254619  -0.141990  -0.071012  -0.003456  -0.002264  -0.090112
     3  C   -0.114798   0.012923   0.028292  -0.013632  -0.016345  -0.574318
     4  C   -0.115597  -0.045581  -0.207003  -0.001845   0.000768   0.048050
     5  C    0.068670   0.085183   0.272535  -0.000600   0.000587  -0.002368
     6  C    0.131835   0.055432   0.004557  -0.000080   0.035783  -1.481916
     7  C   -0.106088  -0.032837  -0.035764   0.023146   0.030077  -0.371694
     8  C    0.040519   0.018097   0.002051  -0.064778  -0.105709  -0.565394
     9  C    0.019768   0.072823   0.001000   0.002698  -0.016175   1.005287
    10  C    0.008979   0.001116   0.000236   0.080313   0.228195   1.108330
    11  C   -0.005238   0.000556   0.002622   0.238041   0.059952   0.043561
    12  C    0.001820  -0.001159   0.028640  -0.222547  -0.023495  -0.531952
    13  C    0.044571  -0.002436   0.142826   0.095108   0.001357  -0.240694
    14  C   -0.001224  -0.001617   0.014670   0.174702  -0.002203  -0.293055
    15  H   -0.001389  -0.000008   0.006965   0.000047   0.000001  -0.000081
    16  H    0.000124   0.000001   0.000072   0.006454  -0.000013  -0.000357
    17  H   -0.000826   0.009319  -0.000009   0.000001   0.000178  -0.015005
    18  N   -0.000068  -0.000021  -0.000077  -0.039203  -0.034369  -0.075930
    19  N    7.309038  -0.049886  -0.036197  -0.000048  -0.000030   0.024752
    20  O   -0.049886   7.982119   0.001860  -0.000000   0.000019   0.021896
    21  O   -0.036197   0.001860   7.994374   0.000019   0.000000   0.000155
    22  O   -0.000048  -0.000000   0.000019   7.993754   0.001605  -0.000628
    23  O   -0.000030   0.000019   0.000000   0.001605   8.017156  -0.115978
    24  C    0.024752   0.021896   0.000155  -0.000628  -0.115978  12.574529
    25  C   -0.002400   0.002463  -0.000003  -0.001610  -0.018479   0.246893
    26  S    0.008592  -0.001571   0.000020   0.000381   0.006264  -0.114543
    27  C   -0.000307   0.000312  -0.000003  -0.000115   0.062219  -2.296757
    28  H   -0.000003   0.000001   0.000000   0.000009  -0.006793   0.024221
    29  C   -0.000346   0.004112  -0.000005  -0.000030   0.048843  -1.935911
    30  O   -0.000001   0.000000   0.000000  -0.000000  -0.000106   0.086862
    31  C   -0.000020  -0.000084  -0.000000  -0.000006   0.005524  -0.252075
    32  C   -0.000046   0.000372  -0.000000  -0.000001   0.003881  -1.057941
    33  S    0.000003  -0.000005  -0.000000   0.000000  -0.000265   0.162879
    34  C    0.000003   0.000006  -0.000000   0.000000   0.000157  -0.077594
    35  O    0.000001   0.000003  -0.000000  -0.000000   0.000063   0.013019
    36  C   -0.000001   0.000001  -0.000000  -0.000000  -0.000064  -0.017183
    37  H    0.000000   0.000000   0.000000   0.000000   0.000000   0.000075
    38  H    0.000000  -0.000000  -0.000000  -0.000000   0.000000  -0.000144
    39  H    0.000000   0.000000  -0.000000  -0.000000   0.000000  -0.006717
    40  H    0.000000  -0.000000   0.000000   0.000000  -0.000341  -0.053096
    41  H    0.341530   0.002642   0.002551  -0.000000  -0.000000   0.000274
    42  H    0.000000  -0.000000  -0.000000   0.002415   0.004920   0.000424
              25         26         27         28         29         30
     1  C   -0.161545   0.037508  -0.007932  -0.000824   0.047934  -0.000002
     2  C   -0.334335   0.180427  -0.072386  -0.003148  -0.211794  -0.000409
     3  C   -0.029359   0.019673  -0.034463   0.001699  -0.047300   0.000143
     4  C   -0.058911   0.071408  -0.020699   0.000183  -0.027176  -0.000013
     5  C    0.009575   0.002133  -0.002608   0.000040   0.000819   0.000003
     6  C   -0.026687  -0.078532  -0.227148   0.018062  -0.543078   0.010571
     7  C   -0.039947  -0.067999  -0.027038   0.000124  -0.044872  -0.000004
     8  C    0.426593  -0.107895  -0.198254   0.027758  -0.526048   0.009534
     9  C   -0.122731  -0.005741  -0.260194   0.005940   0.240109  -0.006417
    10  C   -0.098291   0.023734  -0.100940  -0.005597   0.053441  -0.006941
    11  C   -0.011356  -0.035949   0.020930  -0.001242   0.004416   0.000151
    12  C   -0.058038   0.023765  -0.015796   0.001804  -0.082730   0.000260
    13  C   -0.020970   0.027559   0.006286   0.000031  -0.014242   0.000013
    14  C    0.003450   0.015211   0.002721   0.000067  -0.010182   0.000006
    15  H    0.000002   0.000002  -0.000000   0.000000  -0.000001  -0.000000
    16  H   -0.000008  -0.000007  -0.000004  -0.000000  -0.000001   0.000000
    17  H   -0.013048   0.020025  -0.010852  -0.000069  -0.012187   0.000041
    18  N    0.002282  -0.010245   0.010357  -0.000568  -0.005087   0.000138
    19  N   -0.002400   0.008592  -0.000307  -0.000003  -0.000346  -0.000001
    20  O    0.002463  -0.001571   0.000312   0.000001   0.004112   0.000000
    21  O   -0.000003   0.000020  -0.000003   0.000000  -0.000005   0.000000
    22  O   -0.001610   0.000381  -0.000115   0.000009  -0.000030  -0.000000
    23  O   -0.018479   0.006264   0.062219  -0.006793   0.048843  -0.000106
    24  C    0.246893  -0.114543  -2.296757   0.024221  -1.935911   0.086862
    25  C   12.565784  -2.731267   1.816187   0.400387  -3.541584  -0.035468
    26  S   -2.731267  20.186774  -1.500562   0.017329   0.544535   0.011556
    27  C    1.816187  -1.500562  12.238876  -0.133048  -0.258228   0.369303
    28  H    0.400387   0.017329  -0.133048   0.501149   0.011037  -0.004474
    29  C   -3.541584   0.544535  -0.258228   0.011037  11.542010  -0.297612
    30  O   -0.035468   0.011556   0.369303  -0.004474  -0.297612   8.028170
    31  C   -0.821612   0.305686  -0.423783  -0.001204   0.816369  -0.057511
    32  C   -0.292841  -0.472670  -2.242160   0.000425  -0.859479  -0.019941
    33  S   -0.161740   0.115831   0.222582   0.000423   0.677945  -0.061966
    34  C   -0.282923  -0.047222  -0.046084  -0.000072  -0.156460  -0.002623
    35  O   -0.000754  -0.013854   0.049801   0.000024  -0.004963  -0.000867
    36  C   -0.046035   0.059607  -0.448158   0.000101  -0.121713   0.001781
    37  H   -0.000062   0.000856   0.000232   0.000000  -0.004661   0.000016
    38  H    0.000340  -0.001049   0.005368   0.000000  -0.004864  -0.000025
    39  H    0.002965  -0.001418  -0.008578   0.000000   0.037831  -0.000042
    40  H   -0.134997   0.004147   0.077062   0.002264   0.107000   0.237939
    41  H   -0.000030   0.000040  -0.000004  -0.000000   0.000002  -0.000000
    42  H    0.000869  -0.000392   0.000101   0.000007  -0.000181  -0.000000
              31         32         33         34         35         36
     1  C   -0.012450  -0.002608  -0.000118   0.000497  -0.000276  -0.000165
     2  C   -0.023585  -0.057985   0.002385   0.002621   0.000216  -0.001409
     3  C    0.001903  -0.003824   0.000074   0.000147  -0.000023  -0.000006
     4  C   -0.001800  -0.002612   0.000110   0.000067  -0.000018  -0.000033
     5  C    0.000059   0.000044   0.000009   0.000004   0.000002  -0.000000
     6  C    0.011261   0.025177  -0.012746  -0.012231   0.001390   0.006624
     7  C   -0.009596  -0.005061   0.000033   0.000413  -0.000128  -0.000178
     8  C    0.034050  -0.040605  -0.006187  -0.007640   0.000024   0.001612
     9  C   -0.195886  -0.197367   0.026929   0.050382   0.003880  -0.017185
    10  C   -0.030868  -0.033875   0.007944   0.005168  -0.000009  -0.001652
    11  C   -0.000612   0.000277  -0.000126  -0.000016  -0.000012   0.000007
    12  C   -0.001894  -0.004548   0.000207   0.000204  -0.000066  -0.000039
    13  C   -0.000192  -0.000363   0.000027   0.000023  -0.000005  -0.000003
    14  C    0.000076  -0.000234   0.000000   0.000004  -0.000002  -0.000001
    15  H    0.000000  -0.000000  -0.000000  -0.000000   0.000000   0.000000
    16  H    0.000000  -0.000000  -0.000000  -0.000000  -0.000000   0.000000
    17  H   -0.002413  -0.002503  -0.000066   0.000138  -0.000042  -0.000048
    18  N   -0.000307  -0.000335   0.000039   0.000025  -0.000006  -0.000002
    19  N   -0.000020  -0.000046   0.000003   0.000003   0.000001  -0.000001
    20  O   -0.000084   0.000372  -0.000005   0.000006   0.000003   0.000001
    21  O   -0.000000  -0.000000  -0.000000  -0.000000  -0.000000  -0.000000
    22  O   -0.000006  -0.000001   0.000000   0.000000  -0.000000  -0.000000
    23  O    0.005524   0.003881  -0.000265   0.000157   0.000063  -0.000064
    24  C   -0.252075  -1.057941   0.162879  -0.077594   0.013019  -0.017183
    25  C   -0.821612  -0.292841  -0.161740  -0.282923  -0.000754  -0.046035
    26  S    0.305686  -0.472670   0.115831  -0.047222  -0.013854   0.059607
    27  C   -0.423783  -2.242160   0.222582  -0.046084   0.049801  -0.448158
    28  H   -0.001204   0.000425   0.000423  -0.000072   0.000024   0.000101
    29  C    0.816369  -0.859479   0.677945  -0.156460  -0.004963  -0.121713
    30  O   -0.057511  -0.019941  -0.061966  -0.002623  -0.000867   0.001781
    31  C   11.573111  -6.695832   0.568051   1.815427   0.118007  -1.399186
    32  C   -6.695832  25.837320  -2.934136  -8.439368  -0.289944   3.082401
    33  S    0.568051  -2.934136  17.479229   0.371267   0.045245  -0.153371
    34  C    1.815427  -8.439368   0.371267  14.329699   0.101537  -1.479702
    35  O    0.118007  -0.289944   0.045245   0.101537   8.072948  -0.012242
    36  C   -1.399186   3.082401  -0.153371  -1.479702  -0.012242   6.416028
    37  H    0.018752  -0.130776   0.010109   0.436082  -0.002917   0.028730
    38  H    0.052672  -0.075650  -0.032508   0.083607  -0.000305   0.339392
    39  H   -0.068865   0.395973  -0.014350  -0.307187   0.178595   0.013694
    40  H    0.012249  -0.010157   0.014305   0.002959  -0.000014  -0.002738
    41  H   -0.000000  -0.000000   0.000000  -0.000000   0.000000  -0.000000
    42  H    0.000019  -0.000000  -0.000001  -0.000000  -0.000000   0.000000
              37         38         39         40         41         42
     1  C   -0.000000   0.000000  -0.000052   0.000011  -0.026325  -0.000124
     2  C    0.000001   0.000000  -0.000256   0.000215  -0.000299  -0.000514
     3  C    0.000000   0.000000  -0.000015   0.000014   0.003184   0.000923
     4  C    0.000000  -0.000000  -0.000003   0.000008   0.006038   0.000447
     5  C    0.000000   0.000000  -0.000000  -0.000001  -0.030827  -0.000038
     6  C   -0.000004   0.000000  -0.000066  -0.003711   0.006020   0.000075
     7  C    0.000000   0.000000  -0.000027  -0.000382  -0.002326   0.007806
     8  C    0.000001  -0.000001  -0.000108  -0.000857   0.000634   0.012907
     9  C    0.000026   0.000015  -0.002000  -0.000084   0.000400   0.000078
    10  C   -0.000000   0.000000  -0.000095   0.001867   0.000041  -0.020955
    11  C   -0.000000   0.000000  -0.000000  -0.000110  -0.000108  -0.045325
    12  C   -0.000000  -0.000000  -0.000006   0.000144  -0.000001   0.009000
    13  C   -0.000000  -0.000000  -0.000000   0.000007   0.002155  -0.004038
    14  C    0.000000  -0.000000  -0.000000   0.000002   0.004482  -0.000339
    15  H    0.000000   0.000000   0.000000   0.000000  -0.000011   0.000000
    16  H   -0.000000   0.000000  -0.000000  -0.000000   0.000000  -0.000014
    17  H    0.000000   0.000000  -0.000004  -0.000002  -0.000015  -0.000000
    18  N   -0.000000   0.000000  -0.000000  -0.000009  -0.000001   0.340288
    19  N    0.000000   0.000000   0.000000   0.000000   0.341530   0.000000
    20  O    0.000000  -0.000000   0.000000  -0.000000   0.002642  -0.000000
    21  O    0.000000  -0.000000  -0.000000   0.000000   0.002551  -0.000000
    22  O    0.000000  -0.000000  -0.000000   0.000000  -0.000000   0.002415
    23  O    0.000000   0.000000   0.000000  -0.000341  -0.000000   0.004920
    24  C    0.000075  -0.000144  -0.006717  -0.053096   0.000274   0.000424
    25  C   -0.000062   0.000340   0.002965  -0.134997  -0.000030   0.000869
    26  S    0.000856  -0.001049  -0.001418   0.004147   0.000040  -0.000392
    27  C    0.000232   0.005368  -0.008578   0.077062  -0.000004   0.000101
    28  H    0.000000   0.000000   0.000000   0.002264  -0.000000   0.000007
    29  C   -0.004661  -0.004864   0.037831   0.107000   0.000002  -0.000181
    30  O    0.000016  -0.000025  -0.000042   0.237939  -0.000000  -0.000000
    31  C    0.018752   0.052672  -0.068865   0.012249  -0.000000   0.000019
    32  C   -0.130776  -0.075650   0.395973  -0.010157  -0.000000  -0.000000
    33  S    0.010109  -0.032508  -0.014350   0.014305   0.000000  -0.000001
    34  C    0.436082   0.083607  -0.307187   0.002959  -0.000000  -0.000000
    35  O   -0.002917  -0.000305   0.178595  -0.000014   0.000000  -0.000000
    36  C    0.028730   0.339392   0.013694  -0.002738  -0.000000   0.000000
    37  H    0.502311  -0.003618   0.002299   0.000000  -0.000000  -0.000000
    38  H   -0.003618   0.448262   0.000015  -0.000002   0.000000   0.000000
    39  H    0.002299   0.000015   0.495753  -0.000000   0.000000   0.000000
    40  H    0.000000  -0.000002  -0.000000   0.462187   0.000000  -0.000000
    41  H   -0.000000   0.000000   0.000000   0.000000   0.291912   0.000000
    42  H   -0.000000   0.000000   0.000000  -0.000000   0.000000   0.297298
 Mulliken charges:
               1
     1  C    0.514494
     2  C   -0.173503
     3  C    0.233894
     4  C    0.178844
     5  C    0.271734
     6  C   -0.514127
     7  C    0.172485
     8  C   -0.031104
     9  C    0.286011
    10  C    0.130978
    11  C    0.318868
    12  C    0.102854
    13  C   -0.434958
    14  C   -0.656223
    15  H    0.192165
    16  H    0.192248
    17  H    0.213427
    18  N   -0.454217
    19  N   -0.453576
    20  O   -0.260055
    21  O   -0.263024
    22  O   -0.270686
    23  O   -0.163435
    24  C    0.172566
    25  C   -0.430758
    26  S   -0.492145
    27  C   -0.546232
    28  H    0.143958
    29  C    0.574330
    30  O   -0.262066
    31  C    0.666568
    32  C    0.526994
    33  S   -0.328043
    34  C   -0.341312
    35  O   -0.258307
    36  C   -0.248864
    37  H    0.142549
    38  H    0.188493
    39  H    0.282666
    40  H    0.284122
    41  H    0.398041
    42  H    0.394345
 Sum of Mulliken charges =  -0.00000
 Mulliken charges with hydrogens summed into heavy atoms:
               1
     1  C    0.514494
     2  C   -0.173503
     3  C    0.233894
     4  C    0.178844
     5  C    0.271734
     6  C   -0.300700
     7  C    0.172485
     8  C   -0.031104
     9  C    0.286011
    10  C    0.130978
    11  C    0.318868
    12  C    0.102854
    13  C   -0.242710
    14  C   -0.464058
    18  N   -0.059871
    19  N   -0.055535
    20  O   -0.260055
    21  O   -0.263024
    22  O   -0.270686
    23  O   -0.163435
    24  C    0.172566
    25  C   -0.286800
    26  S   -0.492145
    27  C   -0.546232
    29  C    0.574330
    30  O    0.022057
    31  C    0.666568
    32  C    0.526994
    33  S   -0.328043
    34  C   -0.198763
    35  O    0.024359
    36  C   -0.060371
 Electronic spatial extent (au):  <R**2>=          18102.9962
 Charge=             -0.0000 electrons
 Dipole moment (field-independent basis, Debye):
    X=             -2.0006    Y=              0.1046    Z=             -0.1798  Tot=              2.0113
 Quadrupole moment (field-independent basis, Debye-Ang):
   XX=           -187.4718   YY=           -202.9018   ZZ=           -187.2553
   XY=              6.3475   XZ=              9.3124   YZ=             15.1669
 Traceless Quadrupole moment (field-independent basis, Debye-Ang):
   XX=              5.0711   YY=            -10.3588   ZZ=              5.2877
   XY=              6.3475   XZ=              9.3124   YZ=             15.1669
 Octapole moment (field-independent basis, Debye-Ang**2):
  XXX=           -322.5198  YYY=             -9.5779  ZZZ=             -6.5265  XYY=            -96.0051
  XXY=            -48.5467  XXZ=            -67.0888  XZZ=            -25.1152  YZZ=             -2.1477
  YYZ=              1.1722  XYZ=            -47.7187
 Hexadecapole moment (field-independent basis, Debye-Ang**3):
 XXXX=         -18068.2000 YYYY=          -4655.1411 ZZZZ=           -791.6591 XXXY=            684.3520
 XXXZ=            413.5713 YYYX=           -309.3571 YYYZ=            158.7780 ZZZX=             63.2197
 ZZZY=             96.9056 XXYY=          -4170.8378 XXZZ=          -3224.5094 YYZZ=           -790.7631
 XXYZ=            304.0351 YYXZ=             98.3524 ZZXY=             36.3767
 N-N= 3.335752011312D+03 E-N=-1.184711647462D+04  KE= 2.195623124837D+03
 Unable to Open any file for archive entry.
 1\1\GINC-CX3-1-25\FOpt\RwB97XD\6-311+G(d,p)\C22H10N2O6S2\NS5018\17-Nov
 -2020\0\\# opt=modredundant wb97xd/6-311+g(d,p)\\NDI_-60.pdb\\0,1\C,-2
 .6319533961,-3.0369508165,-0.3544352575\C,-2.2832302282,-1.5983111814,
 -0.1936085701\C,-3.3042551171,-0.6274332001,-0.0689390046\C,-4.6696543
 542,-0.9957870894,-0.0953868323\C,-5.050860539,-2.4252901421,-0.258203
 4805\C,-0.9700585395,-1.223836878,-0.190098501\C,-2.9400513581,0.72872
 80532,0.0908364564\C,-1.5620605869,1.102025449,0.1136348174\C,-0.57747
 16016,0.1338289109,-0.0605974319\C,-1.227260548,2.5320289711,0.3996075
 449\C,-3.6634560979,3.1169489309,0.4109349715\C,-3.9834245249,1.680722
 7762,0.2220361958\C,-5.304752928,1.3007786983,0.1883916533\C,-5.655124
 2792,-0.0466298209,0.0282891798\H,-6.6925128873,-0.3570015909,0.002924
 6756\H,-6.0647444112,2.0660097911,0.2906899861\H,-0.2106612809,-1.9864
 616596,-0.3174935436\N,-2.3133652802,3.4001964869,0.4793408364\N,-3.99
 1429014,-3.3151099136,-0.3692491992\O,-1.8153897456,-3.918721736,-0.46
 61622707\O,-6.1935089585,-2.8144597631,-0.2933368337\O,-4.493965878,3.
 9894779366,0.5113113633\O,-0.1173586633,2.9710228217,0.5753510557\C,0.
 8666259552,0.4043295458,-0.1446676901\C,1.5307665284,1.1748217355,-1.0
 505407933\S,1.9634061357,-0.4436052033,0.8903225724\C,2.9345729782,1.1
 069211547,-0.8922847696\H,1.0374380291,1.7789887146,-1.8010586143\C,3.
 3493281861,0.2776285679,0.123050704\O,3.8337997552,1.769576024,-1.6701
 325218\C,4.705153293,0.0225069384,0.5643036011\C,5.1176851134,-0.84757
 58119,1.5444703281\S,6.0897539286,0.8423691004,-0.1112500849\C,6.52222
 65403,-0.8600202482,1.756616578\O,4.2221473023,-1.6088605179,2.2278399
 977\C,7.1662562003,0.0065926135,0.9294740533\H,7.0186018315,-1.4858488
 916,2.4879095924\H,8.2271392457,0.196822174,0.8708802056\H,4.677370712
 7,-2.1631667867,2.8620916454\H,3.4176448211,2.5338030367,-2.0705714143
 \H,-4.2425648796,-4.2895682804,-0.4794428184\H,-2.0718014595,4.3655111
 001,0.6651516175\\Version=ES64L-G16RevC.01\State=1-A\HF=-2201.5696036\
 RMSD=6.363e-09\RMSF=2.272e-04\Dipole=0.77897,0.0762311,0.1165452\Quadr
 upole=3.2700192,-8.3578695,5.0878503,-3.4578609,7.4035019,-11.0392986\
 PG=C01 [X(C22H10N2O6S2)]\\@
 The archive entry for this job was punched.


 THE CHYMISTS ARE A STRANGE CLASS OF MORTALS IMPELLED
 BY AN ALMOST INSANE IMPULSE TO SEEK THEIR PLEASURE
 AMONG SMOKE AND VAPOR, SOOT AND FLAME, POISONS AND
 POVERTY; YET AMONG ALL THESE EVILS I SEEM TO LIVE
 SO SWEETLY, THAT I MAY DIE IF I WOULD CHANGE PLACES
 WITH THE PERSIAN KING.
   --  JOHANN JOACHIM BECHER, 1635-1682
 ACTA LABORATORII CHYMICA MONACENSIS, 1669
 Job cpu time:       1 days 19 hours 19 minutes 46.8 seconds.
 Elapsed time:       0 days  7 hours 11 minutes 56.1 seconds.
 File lengths (MBytes):  RWF=    361 Int=      0 D2E=      0 Chk=     44 Scr=      1
 Normal termination of Gaussian 16 at Tue Nov 17 16:23:40 2020.
