 Entering Gaussian System, Link 0=g16
 Input=NDI_-80.gjf
 Output=NDI_-80.log
 Initial command:
 /apps/gaussian/g16-c01-avx/g16/l1.exe "/tmp/pbs.2575785[10].pbs/Gau-1484601.inp" -scrdir="/tmp/pbs.2575785[10].pbs/"
 Entering Link 1 = /apps/gaussian/g16-c01-avx/g16/l1.exe PID=   1484605.
  
 Copyright (c) 1988-2019, Gaussian, Inc.  All Rights Reserved.
  
 This is part of the Gaussian(R) 16 program.  It is based on
 the Gaussian(R) 09 system (copyright 2009, Gaussian, Inc.),
 the Gaussian(R) 03 system (copyright 2003, Gaussian, Inc.),
 the Gaussian(R) 98 system (copyright 1998, Gaussian, Inc.),
 the Gaussian(R) 94 system (copyright 1995, Gaussian, Inc.),
 the Gaussian 92(TM) system (copyright 1992, Gaussian, Inc.),
 the Gaussian 90(TM) system (copyright 1990, Gaussian, Inc.),
 the Gaussian 88(TM) system (copyright 1988, Gaussian, Inc.),
 the Gaussian 86(TM) system (copyright 1986, Carnegie Mellon
 University), and the Gaussian 82(TM) system (copyright 1983,
 Carnegie Mellon University). Gaussian is a federally registered
 trademark of Gaussian, Inc.
  
 This software contains proprietary and confidential information,
 including trade secrets, belonging to Gaussian, Inc.
  
 This software is provided under written license and may be
 used, copied, transmitted, or stored only in accord with that
 written license.
  
 The following legend is applicable only to US Government
 contracts under FAR:
  
                    RESTRICTED RIGHTS LEGEND
  
 Use, reproduction and disclosure by the US Government is
 subject to restrictions as set forth in subparagraphs (a)
 and (c) of the Commercial Computer Software - Restricted
 Rights clause in FAR 52.227-19.
  
 Gaussian, Inc.
 340 Quinnipiac St., Bldg. 40, Wallingford CT 06492
  
  
 ---------------------------------------------------------------
 Warning -- This program may not be used in any manner that
 competes with the business of Gaussian, Inc. or will provide
 assistance to any competitor of Gaussian, Inc.  The licensee
 of this program is prohibited from giving any competitor of
 Gaussian, Inc. access to this program.  By using this program,
 the user acknowledges that Gaussian, Inc. is engaged in the
 business of creating and licensing software in the field of
 computational chemistry and represents and warrants to the
 licensee that it is not a competitor of Gaussian, Inc. and that
 it will not use this program in any manner prohibited above.
 ---------------------------------------------------------------
  

 Cite this work as:
 Gaussian 16, Revision C.01,
 M. J. Frisch, G. W. Trucks, H. B. Schlegel, G. E. Scuseria, 
 M. A. Robb, J. R. Cheeseman, G. Scalmani, V. Barone, 
 G. A. Petersson, H. Nakatsuji, X. Li, M. Caricato, A. V. Marenich, 
 J. Bloino, B. G. Janesko, R. Gomperts, B. Mennucci, H. P. Hratchian, 
 J. V. Ortiz, A. F. Izmaylov, J. L. Sonnenberg, D. Williams-Young, 
 F. Ding, F. Lipparini, F. Egidi, J. Goings, B. Peng, A. Petrone, 
 T. Henderson, D. Ranasinghe, V. G. Zakrzewski, J. Gao, N. Rega, 
 G. Zheng, W. Liang, M. Hada, M. Ehara, K. Toyota, R. Fukuda, 
 J. Hasegawa, M. Ishida, T. Nakajima, Y. Honda, O. Kitao, H. Nakai, 
 T. Vreven, K. Throssell, J. A. Montgomery, Jr., J. E. Peralta, 
 F. Ogliaro, M. J. Bearpark, J. J. Heyd, E. N. Brothers, K. N. Kudin, 
 V. N. Staroverov, T. A. Keith, R. Kobayashi, J. Normand, 
 K. Raghavachari, A. P. Rendell, J. C. Burant, S. S. Iyengar, 
 J. Tomasi, M. Cossi, J. M. Millam, M. Klene, C. Adamo, R. Cammi, 
 J. W. Ochterski, R. L. Martin, K. Morokuma, O. Farkas, 
 J. B. Foresman, and D. J. Fox, Gaussian, Inc., Wallingford CT, 2019.
 
 ******************************************
 Gaussian 16:  ES64L-G16RevC.01  3-Jul-2019
                17-Nov-2020 
 ******************************************
 %mem=10GB
 %nprocshared=8
 Will use up to    8 processors via shared memory.
 --------------------------------------
 # opt=modredundant wb97xd/6-311+g(d,p)
 --------------------------------------
 1/18=120,19=15,26=3,38=1/1,3;
 2/9=110,12=2,17=6,18=5,40=1/2;
 3/5=4,6=6,7=111,11=2,25=1,30=1,71=1,74=-58/1,2,3;
 4//1;
 5/5=2,38=5/2;
 6/7=2,8=2,9=2,10=2,28=1/1;
 7//1,2,3,16;
 1/18=20,19=15,26=3/3(2);
 2/9=110/2;
 99//99;
 2/9=110/2;
 3/5=4,6=6,7=111,11=2,25=1,30=1,71=1,74=-58/1,2,3;
 4/5=5,16=3,69=1/1;
 5/5=2,38=5/2;
 7//1,2,3,16;
 1/18=20,19=15,26=3/3(-5);
 2/9=110/2;
 6/7=2,8=2,9=2,10=2,19=2,28=1/1;
 99/9=1/99;
 -----------
 NDI_-80.pdb
 -----------
 Symbolic Z-matrix:
 Charge =  0 Multiplicity = 1
 C                    -2.56     -2.99     -0.41 
 C                    -2.26     -1.55     -0.22 
 C                    -3.3      -0.61     -0.08 
 C                    -4.65     -1.02     -0.12 
 C                    -4.99     -2.46     -0.3 
 C                    -0.95     -1.14     -0.22 
 C                    -2.96      0.76      0.1 
 C                    -1.6       1.19      0.12 
 C                    -0.56      0.23     -0.07 
 C                    -1.33      2.62      0.45 
 C                    -3.78      3.12      0.51 
 C                    -4.03      1.68      0.27 
 C                    -5.36      1.25      0.23 
 C                    -5.67     -0.1       0.04 
 H                    -6.7      -0.44      0.01 
 H                    -6.13      2.        0.36 
 H                    -0.19     -1.9      -0.37 
 N                    -2.43      3.48      0.61 
 N                    -3.92     -3.35     -0.44 
 O                    -1.69     -3.85     -0.53 
 O                    -6.15     -2.85     -0.34 
 O                    -4.68      3.94      0.63 
 O                    -0.21      3.1       0.6 
 C                     0.88      0.48     -0.18 
 C                     1.639     0.909    -1.245 
 S                     1.918     0.065     1.178 
 C                     3.028     0.904    -0.984 
 H                     1.216     1.222    -2.192 
 C                     3.366     0.49      0.307 
 O                     4.015     1.274    -1.851 
 C                     4.68      0.412     0.885 
 C                     5.022    -0.03      2.161 
 S                     6.138     0.909     0.031 
 C                     6.412     0.028     2.445 
 O                     4.043    -0.455     2.999 
 C                     7.136     0.511     1.379 
 H                     6.866    -0.273     3.374 
 H                     8.207     0.658     1.322 
 H                     4.287    -1.04      3.877 
 H                     3.655     1.802    -2.629 
 H                    -4.23     -4.36     -0.17 
 H                    -2.15      4.41      0.36 
 
 The following ModRedundant input section has been read:
 D       8       9      24      25 F                                           
 

 GradGradGradGradGradGradGradGradGradGradGradGradGradGradGradGradGradGrad
 Berny optimization.
 Initialization pass.
                           ----------------------------
                           !    Initial Parameters    !
                           ! (Angstroms and Degrees)  !
 --------------------------                            --------------------------
 ! Name  Definition              Value          Derivative Info.                !
 --------------------------------------------------------------------------------
 ! R1    R(1,2)                  1.4831         estimate D2E/DX2                !
 ! R2    R(1,19)                 1.4072         estimate D2E/DX2                !
 ! R3    R(1,20)                 1.2292         estimate D2E/DX2                !
 ! R4    R(2,3)                  1.4088         estimate D2E/DX2                !
 ! R5    R(2,6)                  1.3727         estimate D2E/DX2                !
 ! R6    R(3,4)                  1.4115         estimate D2E/DX2                !
 ! R7    R(3,7)                  1.423          estimate D2E/DX2                !
 ! R8    R(4,5)                  1.4905         estimate D2E/DX2                !
 ! R9    R(4,14)                 1.3829         estimate D2E/DX2                !
 ! R10   R(5,19)                 1.3988         estimate D2E/DX2                !
 ! R11   R(5,21)                 1.2245         estimate D2E/DX2                !
 ! R12   R(6,9)                  1.4323         estimate D2E/DX2                !
 ! R13   R(6,17)                 1.0852         estimate D2E/DX2                !
 ! R14   R(7,8)                  1.4265         estimate D2E/DX2                !
 ! R15   R(7,12)                 1.4213         estimate D2E/DX2                !
 ! R16   R(8,9)                  1.428          estimate D2E/DX2                !
 ! R17   R(8,10)                 1.4922         estimate D2E/DX2                !
 ! R18   R(9,24)                 1.4657         estimate D2E/DX2                !
 ! R19   R(10,18)                1.4054         estimate D2E/DX2                !
 ! R20   R(10,23)                1.2277         estimate D2E/DX2                !
 ! R21   R(11,12)                1.4811         estimate D2E/DX2                !
 ! R22   R(11,18)                1.4007         estimate D2E/DX2                !
 ! R23   R(11,22)                1.2234         estimate D2E/DX2                !
 ! R24   R(12,13)                1.3984         estimate D2E/DX2                !
 ! R25   R(13,14)                1.3981         estimate D2E/DX2                !
 ! R26   R(13,16)                1.0827         estimate D2E/DX2                !
 ! R27   R(14,15)                1.0851         estimate D2E/DX2                !
 ! R28   R(18,42)                1.0029         estimate D2E/DX2                !
 ! R29   R(19,41)                1.0905         estimate D2E/DX2                !
 ! R30   R(24,25)                1.3764         estimate D2E/DX2                !
 ! R31   R(24,26)                1.7589         estimate D2E/DX2                !
 ! R32   R(25,27)                1.4133         estimate D2E/DX2                !
 ! R33   R(25,28)                1.0834         estimate D2E/DX2                !
 ! R34   R(26,29)                1.7424         estimate D2E/DX2                !
 ! R35   R(27,29)                1.3973         estimate D2E/DX2                !
 ! R36   R(27,30)                1.3648         estimate D2E/DX2                !
 ! R37   R(29,31)                1.4376         estimate D2E/DX2                !
 ! R38   R(30,40)                1.0068         estimate D2E/DX2                !
 ! R39   R(31,32)                1.393          estimate D2E/DX2                !
 ! R40   R(31,33)                1.7613         estimate D2E/DX2                !
 ! R41   R(32,34)                1.4199         estimate D2E/DX2                !
 ! R42   R(32,35)                1.3569         estimate D2E/DX2                !
 ! R43   R(33,36)                1.7238         estimate D2E/DX2                !
 ! R44   R(34,36)                1.3762         estimate D2E/DX2                !
 ! R45   R(34,37)                1.0769         estimate D2E/DX2                !
 ! R46   R(35,39)                1.0829         estimate D2E/DX2                !
 ! R47   R(36,38)                1.0825         estimate D2E/DX2                !
 ! A1    A(2,1,19)             116.527          estimate D2E/DX2                !
 ! A2    A(2,1,20)             123.2737         estimate D2E/DX2                !
 ! A3    A(19,1,20)            120.1979         estimate D2E/DX2                !
 ! A4    A(1,2,3)              120.7455         estimate D2E/DX2                !
 ! A5    A(1,2,6)              118.8843         estimate D2E/DX2                !
 ! A6    A(3,2,6)              120.3454         estimate D2E/DX2                !
 ! A7    A(2,3,4)              120.6259         estimate D2E/DX2                !
 ! A8    A(2,3,7)              118.5916         estimate D2E/DX2                !
 ! A9    A(4,3,7)              120.7824         estimate D2E/DX2                !
 ! A10   A(3,4,5)              120.1483         estimate D2E/DX2                !
 ! A11   A(3,4,14)             120.5934         estimate D2E/DX2                !
 ! A12   A(5,4,14)             119.2388         estimate D2E/DX2                !
 ! A13   A(4,5,19)             116.8914         estimate D2E/DX2                !
 ! A14   A(4,5,21)             121.8545         estimate D2E/DX2                !
 ! A15   A(19,5,21)            121.2488         estimate D2E/DX2                !
 ! A16   A(2,6,9)              123.0626         estimate D2E/DX2                !
 ! A17   A(2,6,17)             117.3337         estimate D2E/DX2                !
 ! A18   A(9,6,17)             119.5802         estimate D2E/DX2                !
 ! A19   A(3,7,8)              121.3176         estimate D2E/DX2                !
 ! A20   A(3,7,12)             117.2859         estimate D2E/DX2                !
 ! A21   A(8,7,12)             121.3945         estimate D2E/DX2                !
 ! A22   A(7,8,9)              119.3284         estimate D2E/DX2                !
 ! A23   A(7,8,10)             117.6762         estimate D2E/DX2                !
 ! A24   A(9,8,10)             122.8113         estimate D2E/DX2                !
 ! A25   A(6,9,8)              117.2994         estimate D2E/DX2                !
 ! A26   A(6,9,24)             115.0121         estimate D2E/DX2                !
 ! A27   A(8,9,24)             127.6498         estimate D2E/DX2                !
 ! A28   A(8,10,18)            118.0319         estimate D2E/DX2                !
 ! A29   A(8,10,23)            124.524          estimate D2E/DX2                !
 ! A30   A(18,10,23)           117.4428         estimate D2E/DX2                !
 ! A31   A(12,11,18)           115.0947         estimate D2E/DX2                !
 ! A32   A(12,11,22)           122.9128         estimate D2E/DX2                !
 ! A33   A(18,11,22)           121.9866         estimate D2E/DX2                !
 ! A34   A(7,12,11)            121.4411         estimate D2E/DX2                !
 ! A35   A(7,12,13)            120.9006         estimate D2E/DX2                !
 ! A36   A(11,12,13)           117.6548         estimate D2E/DX2                !
 ! A37   A(12,13,14)           120.7772         estimate D2E/DX2                !
 ! A38   A(12,13,16)           117.3846         estimate D2E/DX2                !
 ! A39   A(14,13,16)           121.8361         estimate D2E/DX2                !
 ! A40   A(4,14,13)            119.6408         estimate D2E/DX2                !
 ! A41   A(4,14,15)            119.2412         estimate D2E/DX2                !
 ! A42   A(13,14,15)           121.1172         estimate D2E/DX2                !
 ! A43   A(10,18,11)           126.0815         estimate D2E/DX2                !
 ! A44   A(10,18,42)           108.6957         estimate D2E/DX2                !
 ! A45   A(11,18,42)           119.3146         estimate D2E/DX2                !
 ! A46   A(1,19,5)             125.0576         estimate D2E/DX2                !
 ! A47   A(1,19,41)            120.4267         estimate D2E/DX2                !
 ! A48   A(5,19,41)            110.3085         estimate D2E/DX2                !
 ! A49   A(9,24,25)            130.7709         estimate D2E/DX2                !
 ! A50   A(9,24,26)            118.7904         estimate D2E/DX2                !
 ! A51   A(25,24,26)           110.2133         estimate D2E/DX2                !
 ! A52   A(24,25,27)           113.4513         estimate D2E/DX2                !
 ! A53   A(24,25,28)           123.4436         estimate D2E/DX2                !
 ! A54   A(27,25,28)           123.105          estimate D2E/DX2                !
 ! A55   A(24,26,29)            92.6899         estimate D2E/DX2                !
 ! A56   A(25,27,29)           114.1682         estimate D2E/DX2                !
 ! A57   A(25,27,30)           126.3313         estimate D2E/DX2                !
 ! A58   A(29,27,30)           119.4935         estimate D2E/DX2                !
 ! A59   A(26,29,27)           109.4577         estimate D2E/DX2                !
 ! A60   A(26,29,31)           123.0493         estimate D2E/DX2                !
 ! A61   A(27,29,31)           127.4923         estimate D2E/DX2                !
 ! A62   A(27,30,40)           111.9915         estimate D2E/DX2                !
 ! A63   A(29,31,32)           127.5816         estimate D2E/DX2                !
 ! A64   A(29,31,33)           123.1183         estimate D2E/DX2                !
 ! A65   A(32,31,33)           109.2957         estimate D2E/DX2                !
 ! A66   A(31,32,34)           114.2419         estimate D2E/DX2                !
 ! A67   A(31,32,35)           119.2049         estimate D2E/DX2                !
 ! A68   A(34,32,35)           126.5519         estimate D2E/DX2                !
 ! A69   A(31,33,36)            92.0024         estimate D2E/DX2                !
 ! A70   A(32,34,36)           111.9887         estimate D2E/DX2                !
 ! A71   A(32,34,37)           125.0169         estimate D2E/DX2                !
 ! A72   A(36,34,37)           122.9925         estimate D2E/DX2                !
 ! A73   A(32,35,39)           120.4875         estimate D2E/DX2                !
 ! A74   A(33,36,34)           112.4695         estimate D2E/DX2                !
 ! A75   A(33,36,38)           120.0166         estimate D2E/DX2                !
 ! A76   A(34,36,38)           127.5127         estimate D2E/DX2                !
 ! D1    D(19,1,2,3)            -0.0402         estimate D2E/DX2                !
 ! D2    D(19,1,2,6)          -178.232          estimate D2E/DX2                !
 ! D3    D(20,1,2,3)          -179.6115         estimate D2E/DX2                !
 ! D4    D(20,1,2,6)             2.1967         estimate D2E/DX2                !
 ! D5    D(2,1,19,5)            -0.2714         estimate D2E/DX2                !
 ! D6    D(2,1,19,41)         -154.9401         estimate D2E/DX2                !
 ! D7    D(20,1,19,5)          179.3139         estimate D2E/DX2                !
 ! D8    D(20,1,19,41)          24.6452         estimate D2E/DX2                !
 ! D9    D(1,2,3,4)             -0.105          estimate D2E/DX2                !
 ! D10   D(1,2,3,7)           -179.9973         estimate D2E/DX2                !
 ! D11   D(6,2,3,4)            178.0603         estimate D2E/DX2                !
 ! D12   D(6,2,3,7)             -1.832          estimate D2E/DX2                !
 ! D13   D(1,2,6,9)            178.7655         estimate D2E/DX2                !
 ! D14   D(1,2,6,17)             0.5382         estimate D2E/DX2                !
 ! D15   D(3,2,6,9)              0.5662         estimate D2E/DX2                !
 ! D16   D(3,2,6,17)          -177.661          estimate D2E/DX2                !
 ! D17   D(2,3,4,5)              0.5238         estimate D2E/DX2                !
 ! D18   D(2,3,4,14)           178.9053         estimate D2E/DX2                !
 ! D19   D(7,3,4,5)           -179.5863         estimate D2E/DX2                !
 ! D20   D(7,3,4,14)            -1.2048         estimate D2E/DX2                !
 ! D21   D(2,3,7,8)              0.9439         estimate D2E/DX2                !
 ! D22   D(2,3,7,12)          -178.5478         estimate D2E/DX2                !
 ! D23   D(4,3,7,8)           -178.9482         estimate D2E/DX2                !
 ! D24   D(4,3,7,12)             1.56           estimate D2E/DX2                !
 ! D25   D(3,4,5,19)            -0.7863         estimate D2E/DX2                !
 ! D26   D(3,4,5,21)          -179.9543         estimate D2E/DX2                !
 ! D27   D(14,4,5,19)         -179.1897         estimate D2E/DX2                !
 ! D28   D(14,4,5,21)            1.6423         estimate D2E/DX2                !
 ! D29   D(3,4,14,13)            0.6262         estimate D2E/DX2                !
 ! D30   D(3,4,14,15)         -179.7176         estimate D2E/DX2                !
 ! D31   D(5,4,14,13)          179.0223         estimate D2E/DX2                !
 ! D32   D(5,4,14,15)           -1.3214         estimate D2E/DX2                !
 ! D33   D(4,5,19,1)             0.6724         estimate D2E/DX2                !
 ! D34   D(4,5,19,41)          157.5074         estimate D2E/DX2                !
 ! D35   D(21,5,19,1)          179.8457         estimate D2E/DX2                !
 ! D36   D(21,5,19,41)         -23.3193         estimate D2E/DX2                !
 ! D37   D(2,6,9,8)              1.5899         estimate D2E/DX2                !
 ! D38   D(2,6,9,24)          -176.322          estimate D2E/DX2                !
 ! D39   D(17,6,9,8)           179.779          estimate D2E/DX2                !
 ! D40   D(17,6,9,24)            1.8672         estimate D2E/DX2                !
 ! D41   D(3,7,8,9)              1.2142         estimate D2E/DX2                !
 ! D42   D(3,7,8,10)          -173.9942         estimate D2E/DX2                !
 ! D43   D(12,7,8,9)          -179.3149         estimate D2E/DX2                !
 ! D44   D(12,7,8,10)            5.4766         estimate D2E/DX2                !
 ! D45   D(3,7,12,11)          177.9024         estimate D2E/DX2                !
 ! D46   D(3,7,12,13)           -1.4077         estimate D2E/DX2                !
 ! D47   D(8,7,12,11)           -1.5889         estimate D2E/DX2                !
 ! D48   D(8,7,12,13)          179.1009         estimate D2E/DX2                !
 ! D49   D(7,8,9,6)             -2.414          estimate D2E/DX2                !
 ! D50   D(7,8,9,24)           175.1958         estimate D2E/DX2                !
 ! D51   D(10,8,9,6)           172.5365         estimate D2E/DX2                !
 ! D52   D(10,8,9,24)           -9.8537         estimate D2E/DX2                !
 ! D53   D(7,8,10,18)           -5.2348         estimate D2E/DX2                !
 ! D54   D(7,8,10,23)          174.3306         estimate D2E/DX2                !
 ! D55   D(9,8,10,18)          179.736          estimate D2E/DX2                !
 ! D56   D(9,8,10,23)           -0.6986         estimate D2E/DX2                !
 ! D57   D(6,9,24,25)           97.6317         estimate D2E/DX2                !
 ! D58   D(6,9,24,26)          -76.3248         estimate D2E/DX2                !
 ! D59   D(8,9,24,25)          -80.0245         Frozen                          !
 ! D60   D(8,9,24,26)          106.0189         estimate D2E/DX2                !
 ! D61   D(8,10,18,11)           1.0927         estimate D2E/DX2                !
 ! D62   D(8,10,18,42)        -151.3012         estimate D2E/DX2                !
 ! D63   D(23,10,18,11)       -178.5038         estimate D2E/DX2                !
 ! D64   D(23,10,18,42)         29.1023         estimate D2E/DX2                !
 ! D65   D(18,11,12,7)          -2.5592         estimate D2E/DX2                !
 ! D66   D(18,11,12,13)        176.7725         estimate D2E/DX2                !
 ! D67   D(22,11,12,7)         178.3061         estimate D2E/DX2                !
 ! D68   D(22,11,12,13)         -2.3622         estimate D2E/DX2                !
 ! D69   D(12,11,18,10)          2.7627         estimate D2E/DX2                !
 ! D70   D(12,11,18,42)        152.5373         estimate D2E/DX2                !
 ! D71   D(22,11,18,10)       -178.0937         estimate D2E/DX2                !
 ! D72   D(22,11,18,42)        -28.3191         estimate D2E/DX2                !
 ! D73   D(7,12,13,14)           0.8911         estimate D2E/DX2                !
 ! D74   D(7,12,13,16)        -179.6245         estimate D2E/DX2                !
 ! D75   D(11,12,13,14)       -178.4444         estimate D2E/DX2                !
 ! D76   D(11,12,13,16)          1.04           estimate D2E/DX2                !
 ! D77   D(12,13,14,4)          -0.4717         estimate D2E/DX2                !
 ! D78   D(12,13,14,15)        179.8786         estimate D2E/DX2                !
 ! D79   D(16,13,14,4)        -179.9328         estimate D2E/DX2                !
 ! D80   D(16,13,14,15)          0.4175         estimate D2E/DX2                !
 ! D81   D(9,24,25,27)        -174.2105         estimate D2E/DX2                !
 ! D82   D(9,24,25,28)           5.869          estimate D2E/DX2                !
 ! D83   D(26,24,25,27)          0.1468         estimate D2E/DX2                !
 ! D84   D(26,24,25,28)       -179.7737         estimate D2E/DX2                !
 ! D85   D(9,24,26,29)         175.7356         estimate D2E/DX2                !
 ! D86   D(25,24,26,29)          0.6097         estimate D2E/DX2                !
 ! D87   D(24,25,27,29)         -1.1007         estimate D2E/DX2                !
 ! D88   D(24,25,27,30)        179.8673         estimate D2E/DX2                !
 ! D89   D(28,25,27,29)        178.8201         estimate D2E/DX2                !
 ! D90   D(28,25,27,30)         -0.2119         estimate D2E/DX2                !
 ! D91   D(24,26,29,27)         -1.1938         estimate D2E/DX2                !
 ! D92   D(24,26,29,31)        178.5242         estimate D2E/DX2                !
 ! D93   D(25,27,29,26)          1.5121         estimate D2E/DX2                !
 ! D94   D(25,27,29,31)       -178.19           estimate D2E/DX2                !
 ! D95   D(30,27,29,26)       -179.3838         estimate D2E/DX2                !
 ! D96   D(30,27,29,31)          0.9141         estimate D2E/DX2                !
 ! D97   D(25,27,30,40)         16.0627         estimate D2E/DX2                !
 ! D98   D(29,27,30,40)       -162.9227         estimate D2E/DX2                !
 ! D99   D(26,29,31,32)          1.9748         estimate D2E/DX2                !
 ! D100  D(26,29,31,33)       -177.1815         estimate D2E/DX2                !
 ! D101  D(27,29,31,32)       -178.3603         estimate D2E/DX2                !
 ! D102  D(27,29,31,33)          2.4834         estimate D2E/DX2                !
 ! D103  D(29,31,32,34)       -179.2644         estimate D2E/DX2                !
 ! D104  D(29,31,32,35)          0.3521         estimate D2E/DX2                !
 ! D105  D(33,31,32,34)         -0.013          estimate D2E/DX2                !
 ! D106  D(33,31,32,35)        179.6034         estimate D2E/DX2                !
 ! D107  D(29,31,33,36)        179.5078         estimate D2E/DX2                !
 ! D108  D(32,31,33,36)          0.2162         estimate D2E/DX2                !
 ! D109  D(31,32,34,36)         -0.2685         estimate D2E/DX2                !
 ! D110  D(31,32,34,37)       -179.7827         estimate D2E/DX2                !
 ! D111  D(35,32,34,36)       -179.8517         estimate D2E/DX2                !
 ! D112  D(35,32,34,37)          0.6341         estimate D2E/DX2                !
 ! D113  D(31,32,35,39)        163.6728         estimate D2E/DX2                !
 ! D114  D(34,32,35,39)        -16.7626         estimate D2E/DX2                !
 ! D115  D(31,33,36,34)         -0.3765         estimate D2E/DX2                !
 ! D116  D(31,33,36,38)        179.9869         estimate D2E/DX2                !
 ! D117  D(32,34,36,33)          0.4321         estimate D2E/DX2                !
 ! D118  D(32,34,36,38)       -179.9646         estimate D2E/DX2                !
 ! D119  D(37,34,36,33)        179.9578         estimate D2E/DX2                !
 ! D120  D(37,34,36,38)         -0.4389         estimate D2E/DX2                !
 --------------------------------------------------------------------------------
 Trust Radius=3.00D-01 FncErr=1.00D-07 GrdErr=1.00D-06 EigMax=2.50D+02 EigMin=1.00D-04
 Number of steps in this run=    252 maximum allowed number of steps=    252.
 GradGradGradGradGradGradGradGradGradGradGradGradGradGradGradGradGradGrad

                          Input orientation:                          
 ---------------------------------------------------------------------
 Center     Atomic      Atomic             Coordinates (Angstroms)
 Number     Number       Type             X           Y           Z
 ---------------------------------------------------------------------
      1          6           0       -2.560000   -2.990000   -0.410000
      2          6           0       -2.260000   -1.550000   -0.220000
      3          6           0       -3.300000   -0.610000   -0.080000
      4          6           0       -4.650000   -1.020000   -0.120000
      5          6           0       -4.990000   -2.460000   -0.300000
      6          6           0       -0.950000   -1.140000   -0.220000
      7          6           0       -2.960000    0.760000    0.100000
      8          6           0       -1.600000    1.190000    0.120000
      9          6           0       -0.560000    0.230000   -0.070000
     10          6           0       -1.330000    2.620000    0.450000
     11          6           0       -3.780000    3.120000    0.510000
     12          6           0       -4.030000    1.680000    0.270000
     13          6           0       -5.360000    1.250000    0.230000
     14          6           0       -5.670000   -0.100000    0.040000
     15          1           0       -6.700000   -0.440000    0.010000
     16          1           0       -6.130000    2.000000    0.360000
     17          1           0       -0.190000   -1.900000   -0.370000
     18          7           0       -2.430000    3.480000    0.610000
     19          7           0       -3.920000   -3.350000   -0.440000
     20          8           0       -1.690000   -3.850000   -0.530000
     21          8           0       -6.150000   -2.850000   -0.340000
     22          8           0       -4.680000    3.940000    0.630000
     23          8           0       -0.210000    3.100000    0.600000
     24          6           0        0.880000    0.480000   -0.180000
     25          6           0        1.639000    0.909000   -1.245000
     26         16           0        1.918000    0.065000    1.178000
     27          6           0        3.028000    0.904000   -0.984000
     28          1           0        1.216000    1.222000   -2.192000
     29          6           0        3.366000    0.490000    0.307000
     30          8           0        4.015000    1.274000   -1.851000
     31          6           0        4.680000    0.412000    0.885000
     32          6           0        5.022000   -0.030000    2.161000
     33         16           0        6.138000    0.909000    0.031000
     34          6           0        6.412000    0.028000    2.445000
     35          8           0        4.043000   -0.455000    2.999000
     36          6           0        7.136000    0.511000    1.379000
     37          1           0        6.866000   -0.273000    3.374000
     38          1           0        8.207000    0.658000    1.322000
     39          1           0        4.287000   -1.040000    3.877000
     40          1           0        3.655000    1.802000   -2.629000
     41          1           0       -4.230000   -4.360000   -0.170000
     42          1           0       -2.150000    4.410000    0.360000
 ---------------------------------------------------------------------
                    Distance matrix (angstroms):
                    1          2          3          4          5
     1  C    0.000000
     2  C    1.483139   0.000000
     3  C    2.514140   1.408829   0.000000
     4  C    2.886711   2.450102   1.411453   0.000000
     5  C    2.489558   2.878784   2.515353   1.490503   0.000000
     6  C    2.459817   1.372662   2.413089   3.703296   4.250929
     7  C    3.805601   2.434851   1.422990   2.464325   3.827440
     8  C    4.321447   2.838803   2.483948   3.774149   4.999100
     9  C    3.805785   2.465948   2.865886   4.277043   5.187861
    10  C    5.807289   4.324662   3.820301   4.959526   6.305910
    11  C    6.298166   4.965098   3.806757   4.277078   5.766854
    12  C    4.942894   3.715629   2.428889   2.797588   4.287902
    13  C    5.121250   4.201488   2.792723   2.404059   3.765886
    14  C    4.269274   3.714593   2.427221   1.382896   2.479435
    15  H    4.880420   4.582423   3.405437   2.134432   2.664695
    16  H    6.183680   5.283540   3.874868   3.397234   4.650462
    17  H    2.608946   2.104733   3.379393   4.552856   4.833063
    18  N    6.551198   5.100853   4.238054   5.070631   6.531868
    19  N    1.407160   2.458455   2.832243   2.462560   1.398785
    20  O    1.229187   2.389770   3.645847   4.115653   3.588175
    21  O    3.593411   4.103230   3.634240   2.376405   1.224459
    22  O    7.321264   6.059620   4.807390   5.016473   6.474643
    23  O    6.605354   5.147563   4.875920   6.099705   7.387286
    24  C    4.891564   3.739265   4.320937   5.730140   6.566194
    25  C    5.790598   4.722235   5.297009   6.673694   7.495787
    26  S    5.648651   4.692368   5.409779   6.782378   7.502038
    27  C    6.835090   5.879520   6.569094   7.962409   8.721965
    28  H    5.930822   4.863676   5.311405   6.612844   7.459975
    29  C    6.909556   6.007596   6.767224   8.168151   8.882212
    30  O    7.967986   7.071829   7.758552   9.129130   9.871088
    31  C    8.103594   7.296168   8.102846   9.492605  10.156845
    32  C    8.535711   7.810703   8.637949   9.986523  10.592524
    33  S    9.542111   8.754204   9.560101  10.960145  11.631513
    34  C    9.887170   9.208469  10.055129  11.403744  11.988777
    35  O    7.851568   7.161620   7.963913   9.252872   9.823366
    36  C   10.462788   9.751376  10.596953  11.979180  12.597054
    37  H   10.514287   9.890978  10.742032  12.057541  12.603411
    38  H   11.499392  10.807919  11.661238  13.045976  13.656999
    39  H    8.310372   7.740072   8.567690   9.790116  10.272607
    40  H    8.155578   7.212934   7.790197   9.123146   9.915892
    41  H    2.173338   3.432128   3.864647   3.366675   2.050488
    42  H    7.451242   5.989165   5.168801   5.997108   7.463116
                    6          7          8          9         10
     6  C    0.000000
     7  C    2.784331   0.000000
     8  C    2.442744   1.426499   0.000000
     9  C    1.432306   2.463696   1.428041   0.000000
    10  C    3.838085   2.497799   1.492213   2.564254   0.000000
    11  C    5.166178   2.531818   2.937584   4.365421   2.501220
    12  C    4.204628   1.421337   2.483445   3.776109   2.864612
    13  C    5.036139   2.452957   3.762087   4.916340   4.262183
    14  C    4.840207   2.843818   4.270293   5.121826   5.138297
    15  H    5.797016   3.928829   5.355278   6.176965   6.196297
    16  H    6.085097   3.413810   4.608102   5.860264   4.840713
    17  H    1.085219   3.869031   3.431661   2.182613   4.733117
    18  N    4.921758   2.817694   2.484572   3.810748   1.405418
    19  N    3.708558   4.255032   5.129093   4.923708   6.568188
    20  O    2.826270   4.823059   5.082539   4.258509   6.553694
    21  O    5.475263   4.837541   6.102106   6.388067   7.333308
    22  O    6.359387   3.653998   4.160409   5.588247   3.605177
    23  O    4.381507   3.645285   2.410519   2.967878   1.227721
    24  C    2.444361   3.860363   2.597018   1.465674   3.140159
    25  C    3.457159   4.793957   3.526089   2.584041   3.823023
    26  S    3.410550   5.043807   3.842045   2.779427   4.196131
    27  C    4.537193   6.087030   4.766445   3.763431   4.898283
    28  H    3.762896   4.785988   3.643655   2.939579   3.926409
    29  C    4.643542   6.335142   5.018578   3.952620   5.158465
    30  O    5.756629   7.260938   5.951481   5.019215   5.972884
    31  C    5.943621   7.688103   6.374081   5.329423   6.417522
    32  C    6.524266   8.281555   7.035976   6.016950   7.092103
    33  S    7.382489   9.099482   7.743612   6.733086   7.672946
    34  C    7.916154   9.688614   8.423064   7.414500   8.404585
    35  O    5.980070   7.676095   6.545083   5.574549   6.694935
    36  C    8.406307  10.179738   8.852334   7.836260   8.774057
    37  H    8.646293  10.408479   9.187058   8.201196   9.170259
    38  H    9.458394  11.234126   9.894699   8.887133   9.775694
    39  H    6.649931   8.368079   7.331079   6.378489   7.529317
    40  H    5.971990   7.231281   5.962094   5.175509   5.916045
    41  H    4.596662   5.282064   6.148455   5.877670   7.583851
    42  H    5.707793   3.747826   3.275439   4.492816   1.970939
                   11         12         13         14         15
    11  C    0.000000
    12  C    1.481114   0.000000
    13  C    2.464082   1.398356   0.000000
    14  C    3.763164   2.431234   1.398106   0.000000
    15  H    4.631414   3.419196   2.167971   1.085081   0.000000
    16  H    2.607566   2.126147   1.082728   2.173476   2.530020
    17  H    6.234012   5.288818   6.083700   5.782603   6.682522
    18  N    1.400750   2.432201   3.701648   4.861985   5.827461
    19  N    6.540872   5.081053   4.866467   3.722284   4.049568
    20  O    7.350551   6.057764   6.329020   5.497981   6.084390
    21  O    6.479221   5.038591   4.214143   2.817321   2.496618
    22  O    1.223438   2.379012   2.803302   4.201167   4.863044
    23  O    3.571190   4.088728   5.484697   6.353361   7.416185
    24  C    5.400120   5.074505   6.300683   6.579308   7.637991
    25  C    6.110164   5.918380   7.160859   7.489378   8.540126
    26  S    6.499727   6.229879   7.434528   7.674634   8.711439
    27  C    7.313792   7.210413   8.482456   8.815429   9.870580
    28  H    5.988591   5.813065   7.007899   7.358431   8.382965
    29  C    7.617311   7.491214   8.759372   9.059177  10.113232
    30  O    8.351291   8.329796   9.603216   9.963081  11.009648
    31  C    8.890753   8.823273  10.096181  10.397051  11.445345
    32  C    9.493340   9.404184  10.637344  10.900569  11.924772
    33  S   10.172742  10.199990  11.504777  11.851035  12.908698
    34  C   10.825043  10.793289  12.040743  12.319705  13.344392
    35  O    8.954054   8.785158   9.949412  10.159925  11.151071
    36  C   11.257047  11.281666  12.570455  12.890302  13.936049
    37  H   11.534828  11.496601  12.715319  12.972925  13.977866
    38  H   12.264133  12.324583  13.623745  13.956691  15.004852
    39  H    9.680846   9.464742  10.564531  10.712050  11.663098
    40  H    8.177388   8.214518   9.473585   9.884169  10.918650
    41  H    7.524314   6.059307   5.736637   4.501700   4.636777
    42  H    2.084107   3.315931   4.506285   5.730000   6.659392
                   16         17         18         19         20
    16  H    0.000000
    17  H    7.143284   0.000000
    18  N    3.992856   5.909518   0.000000
    19  N    5.843509   4.002537   7.069052   0.000000
    20  O    7.397851   2.465380   7.454938   2.287138   0.000000
    21  O    4.900296   6.035313   7.403364   2.287553   4.574680
    22  O    2.437006   7.434090   2.296628   7.407199   8.424358
    23  O    6.026110   5.093260   2.252310   7.513202   7.195123
    24  C    7.193198   2.616372   4.536541   6.146259   5.047405
    25  C    8.007725   3.464296   5.158278   7.049084   5.851628
    26  S    8.317671   3.271268   5.557873   6.954308   5.591257
    27  C    9.320757   4.312185   6.242305   8.164996   6.713133
    28  H    7.815478   3.878583   5.122800   7.095857   6.077192
    29  C    9.615452   4.337691   6.528823   8.269789   6.715602
    30  O   10.408488   5.472628   7.242995   9.291745   7.781224
    31  C   10.938623   5.535094   7.748571   9.479888   7.793829
    32  C   11.477439   6.088334   8.382005   9.886706   8.178314
    33  S   12.320809   6.935046   8.964146  10.932716   9.178256
    34  C   12.866148   7.431542   9.667704  11.246525   9.462130
    35  O   10.792649   5.599685   7.943002   9.144239   7.539705
    36  C   13.388138   7.908363  10.045630  11.851212  10.028005
    37  H   13.533172   8.151797  10.399054  11.847038  10.061873
    38  H   14.431770   8.939566  11.027982  12.893131  11.031889
    39  H   11.407225   6.230581   8.730508   9.556539   7.939917
    40  H   10.233257   5.795853   7.094648   9.418888   8.057290
    41  H    6.658866   4.734258   8.081708   1.090459   2.615588
    42  H    4.652795   6.647601   1.002896   7.999406   8.320535
                   21         22         23         24         25
    21  O    0.000000
    22  O    7.014692   0.000000
    23  O    8.459888   4.548340   0.000000
    24  C    7.780450   6.598583   2.942941   0.000000
    25  C    8.695840   7.254815   3.409297   1.376353   0.000000
    26  S    8.711726   7.671345   3.751492   1.758930   2.580912
    27  C    9.936948   8.440116   4.220914   2.332401   1.413318
    28  H    8.617949   7.079126   3.654535   2.170623   1.083378
    29  C   10.105863   8.760419   4.436860   2.533272   2.359405
    30  O   11.073289   9.426873   5.214624   3.640179   2.479080
    31  C   11.376738  10.006069   5.587367   3.947005   3.745876
    32  C   11.790716  10.594039   6.293445   4.785033   4.891548
    33  S   12.855453  11.250550   6.739536   5.279690   4.676449
    34  C   13.184952  11.900858   7.529415   6.139866   6.097031
    35  O   10.990095  10.050817   6.039970   4.580921   5.064706
    36  C   13.811918  12.326269   7.827738   6.447401   6.104162
    37  H   13.778642  12.593213   8.315166   7.002151   7.074872
    38  H   14.872517  13.316349   8.793778   7.481485   7.056282
    39  H   11.401323  10.758741   6.935513   5.511560   6.086492
    40  H   11.091377   9.201323   5.200910   3.930128   2.603298
    41  H    2.448551   8.350599   8.509107   7.038309   7.960097
    42  H    8.318509   2.587412   2.353147   4.991733   5.402735
                   26         27         28         29         30
    26  S    0.000000
    27  C    2.571044   0.000000
    28  H    3.631577   2.200848   0.000000
    29  C    1.742404   1.397255   3.376881   0.000000
    30  O    3.877361   1.364829   2.820175   2.385963   0.000000
    31  C    2.799089   2.542504   4.703544   1.437624   2.944650
    32  C    3.257319   3.839195   5.916228   2.539695   4.337120
    33  S    4.453801   3.271445   5.409786   2.817041   2.860468
    34  C    4.669335   4.896619   7.065821   3.750014   5.074814
    35  O    2.846413   4.329133   6.144163   2.932272   5.149051
    36  C    5.240882   4.755406   6.950105   3.919506   4.555844
    37  H    5.423962   5.925178   8.070804   4.715788   6.149962
    38  H    6.318537   5.674521   7.844767   4.949114   5.293416
    39  H    3.757364   5.384565   7.168015   3.991747   6.183734
    40  H    4.530738   1.976248   2.544816   3.228771   1.006811
    41  H    7.693870   9.002825   8.056434   9.024924  10.126586
    42  H    6.008059   6.396097   5.292070   6.767235   7.261559
                   31         32         33         34         35
    31  C    0.000000
    32  C    1.393020   0.000000
    33  S    1.761275   2.581487   0.000000
    34  C    2.362389   1.419901   2.584305   0.000000
    35  O    2.372015   1.356949   3.880534   2.480396   0.000000
    36  C    2.507144   2.318017   1.723807   1.376162   3.622734
    37  H    3.382742   2.220530   3.619773   1.076921   2.853608
    38  H    3.562473   3.364742   2.451620   2.209084   4.624932
    39  H    3.348853   2.122494   4.692176   2.776126   1.082887
    40  H    3.915472   5.307449   3.746777   6.040993   6.076099
    41  H   10.162338  10.477689  11.631775  11.804445   9.681638
    42  H    7.931490   8.625241   9.003121   9.841595   8.305769
                   36         37         38         39         40
    36  C    0.000000
    37  H    2.160459   0.000000
    38  H    1.082543   2.622164   0.000000
    39  H    4.094192   2.737250   4.977713   0.000000
    40  H    5.463342   7.117033   6.135132   7.127722   0.000000
    41  H   12.462423  12.344421  13.493901   9.996994  10.304861
    42  H   10.122764  10.597308  11.057595   9.138203   7.030918
                   41         42
    41  H    0.000000
    42  H    9.028854   0.000000
 Stoichiometry    C22H10N2O6S2
 Framework group  C1[X(C22H10N2O6S2)]
 Deg. of freedom   120
 Full point group                 C1      NOp   1
 Largest Abelian subgroup         C1      NOp   1
 Largest concise Abelian subgroup C1      NOp   1
                         Standard orientation:                         
 ---------------------------------------------------------------------
 Center     Atomic      Atomic             Coordinates (Angstroms)
 Number     Number       Type             X           Y           Z
 ---------------------------------------------------------------------
      1          6           0        2.810352   -3.011454    0.271259
      2          6           0        2.366779   -1.597989    0.200140
      3          6           0        3.301502   -0.557375    0.032170
      4          6           0        4.680761   -0.839266   -0.069721
      5          6           0        5.163097   -2.248385   -0.011964
      6          6           0        1.030834   -1.314542    0.338382
      7          6           0        2.825424    0.782169   -0.030066
      8          6           0        1.436279    1.081875    0.093845
      9          6           0        0.507896    0.018591    0.310250
     10          6           0        1.010609    2.496058   -0.119678
     11          6           0        3.390424    3.228412   -0.356818
     12          6           0        3.788958    1.807420   -0.231710
     13          6           0        5.150169    1.503756   -0.333170
     14          6           0        5.595615    0.180692   -0.257147
     15          1           0        6.650322   -0.061372   -0.337140
     16          1           0        5.834994    2.329392   -0.480270
     17          1           0        0.358642   -2.150287    0.503873
     18          7           0        2.010172    3.463956   -0.317784
     19          7           0        4.194149   -3.242144    0.161771
     20          8           0        2.035267   -3.955337    0.409928
     21          8           0        6.352121   -2.528392   -0.096330
     22          8           0        4.198840    4.135378   -0.500611
     23          8           0       -0.156803    2.875448   -0.142345
     24          6           0       -0.932668    0.124555    0.558739
     25          6           0       -1.626854    0.419620    1.709995
     26         16           0       -2.048722   -0.310430   -0.729300
     27          6           0       -3.027816    0.297670    1.568928
     28          1           0       -1.149074    0.717920    2.635441
     29          6           0       -3.443581   -0.073765    0.287719
     30          8           0       -3.960890    0.523551    2.539035
     31          6           0       -4.792491   -0.243474   -0.179619
     32          6           0       -5.208354   -0.643955   -1.447363
     33         16           0       -6.205252    0.064756    0.825960
     34          6           0       -6.618034   -0.702098   -1.607181
     35          8           0       -4.275657   -0.926880   -2.391471
     36          6           0       -7.282242   -0.350102   -0.454469
     37          1           0       -7.125994   -0.992412   -2.511312
     38          1           0       -8.352440   -0.308607   -0.296817
     39          1           0       -4.545303   -1.482431   -3.281022
     40          1           0       -3.580202    1.039016    3.315592
     41          1           0        4.567322   -4.201590   -0.197819
     42          1           0        1.672085    4.347845    0.014236
 ---------------------------------------------------------------------
 Rotational constants (GHZ):           0.2407192           0.0634403           0.0547222
 Standard basis: 6-311+G(d,p) (5D, 7F)
 There are   812 symmetry adapted cartesian basis functions of A   symmetry.
 There are   780 symmetry adapted basis functions of A   symmetry.
   780 basis functions,  1260 primitive gaussians,   812 cartesian basis functions
   118 alpha electrons      118 beta electrons
       nuclear repulsion energy      3313.5086870642 Hartrees.
 NAtoms=   42 NActive=   42 NUniq=   42 SFac= 1.00D+00 NAtFMM=   60 NAOKFM=F Big=F
 Integral buffers will be    131072 words long.
 Raffenetti 2 integral format.
 Two-electron integral symmetry is turned on.
 Nuclear repulsion after empirical dispersion term =     3313.4781378404 Hartrees.
 One-electron integrals computed using PRISM.
 NBasis=   780 RedAO= T EigKep=  1.91D-06  NBF=   780
 NBsUse=   768 1.00D-06 EigRej=  8.86D-07 NBFU=   768
 ExpMin= 4.05D-02 ExpMax= 9.34D+04 ExpMxC= 3.17D+03 IAcc=3 IRadAn=         5 AccDes= 0.00D+00
 Harris functional with IExCor= 4639 and IRadAn=       5 diagonalized for initial guess.
 HarFok:  IExCor= 4639 AccDes= 0.00D+00 IRadAn=         5 IDoV= 1 UseB2=F ITyADJ=14
 ICtDFT=  3500011 ScaDFX=  1.000000  1.000000  1.000000  1.000000
 FoFCou: FMM=F IPFlag=           0 FMFlag=      100000 FMFlg1=           0
         NFxFlg=           0 DoJE=T BraDBF=F KetDBF=T FulRan=T
         wScrn=  0.000000 ICntrl=       500 IOpCl=  0 I1Cent=   200000004 NGrid=           0
         NMat0=    1 NMatS0=      1 NMatT0=    0 NMatD0=    1 NMtDS0=    0 NMtDT0=    0
 Petite list used in FoFCou.
 Requested convergence on RMS density matrix=1.00D-08 within 128 cycles.
 Requested convergence on MAX density matrix=1.00D-06.
 Requested convergence on             energy=1.00D-06.
 No special actions if energy rises.
 SCF Done:  E(RwB97XD) =  -2201.52489756     A.U. after   19 cycles
            NFock= 19  Conv=0.35D-08     -V/T= 2.0033

 **********************************************************************

            Population analysis using the SCF Density.

 **********************************************************************

 Orbital symmetries:
       Occupied  (A) (A) (A) (A) (A) (A) (A) (A) (A) (A) (A) (A)
                 (A) (A) (A) (A) (A) (A) (A) (A) (A) (A) (A) (A)
                 (A) (A) (A) (A) (A) (A) (A) (A) (A) (A) (A) (A)
                 (A) (A) (A) (A) (A) (A) (A) (A) (A) (A) (A) (A)
                 (A) (A) (A) (A) (A) (A) (A) (A) (A) (A) (A) (A)
                 (A) (A) (A) (A) (A) (A) (A) (A) (A) (A) (A) (A)
                 (A) (A) (A) (A) (A) (A) (A) (A) (A) (A) (A) (A)
                 (A) (A) (A) (A) (A) (A) (A) (A) (A) (A) (A) (A)
                 (A) (A) (A) (A) (A) (A) (A) (A) (A) (A) (A) (A)
                 (A) (A) (A) (A) (A) (A) (A) (A) (A) (A)
       Virtual   (A) (A) (A) (A) (A) (A) (A) (A) (A) (A) (A) (A)
                 (A) (A) (A) (A) (A) (A) (A) (A) (A) (A) (A) (A)
                 (A) (A) (A) (A) (A) (A) (A) (A) (A) (A) (A) (A)
                 (A) (A) (A) (A) (A) (A) (A) (A) (A) (A) (A) (A)
                 (A) (A) (A) (A) (A) (A) (A) (A) (A) (A) (A) (A)
                 (A) (A) (A) (A) (A) (A) (A) (A) (A) (A) (A) (A)
                 (A) (A) (A) (A) (A) (A) (A) (A) (A) (A) (A) (A)
                 (A) (A) (A) (A) (A) (A) (A) (A) (A) (A) (A) (A)
                 (A) (A) (A) (A) (A) (A) (A) (A) (A) (A) (A) (A)
                 (A) (A) (A) (A) (A) (A) (A) (A) (A) (A) (A) (A)
                 (A) (A) (A) (A) (A) (A) (A) (A) (A) (A) (A) (A)
                 (A) (A) (A) (A) (A) (A) (A) (A) (A) (A) (A) (A)
                 (A) (A) (A) (A) (A) (A) (A) (A) (A) (A) (A) (A)
                 (A) (A) (A) (A) (A) (A) (A) (A) (A) (A) (A) (A)
                 (A) (A) (A) (A) (A) (A) (A) (A) (A) (A) (A) (A)
                 (A) (A) (A) (A) (A) (A) (A) (A) (A) (A) (A) (A)
                 (A) (A) (A) (A) (A) (A) (A) (A) (A) (A) (A) (A)
                 (A) (A) (A) (A) (A) (A) (A) (A) (A) (A) (A) (A)
                 (A) (A) (A) (A) (A) (A) (A) (A) (A) (A) (A) (A)
                 (A) (A) (A) (A) (A) (A) (A) (A) (A) (A) (A) (A)
                 (A) (A) (A) (A) (A) (A) (A) (A) (A) (A) (A) (A)
                 (A) (A) (A) (A) (A) (A) (A) (A) (A) (A) (A) (A)
                 (A) (A) (A) (A) (A) (A) (A) (A) (A) (A) (A) (A)
                 (A) (A) (A) (A) (A) (A) (A) (A) (A) (A) (A) (A)
                 (A) (A) (A) (A) (A) (A) (A) (A) (A) (A) (A) (A)
                 (A) (A) (A) (A) (A) (A) (A) (A) (A) (A) (A) (A)
                 (A) (A) (A) (A) (A) (A) (A) (A) (A) (A) (A) (A)
                 (A) (A) (A) (A) (A) (A) (A) (A) (A) (A) (A) (A)
                 (A) (A) (A) (A) (A) (A) (A) (A) (A) (A) (A) (A)
                 (A) (A) (A) (A) (A) (A) (A) (A) (A) (A) (A) (A)
                 (A) (A) (A) (A) (A) (A) (A) (A) (A) (A) (A) (A)
                 (A) (A) (A) (A) (A) (A) (A) (A) (A) (A) (A) (A)
                 (A) (A) (A) (A) (A) (A) (A) (A) (A) (A) (A) (A)
                 (A) (A) (A) (A) (A) (A) (A) (A) (A) (A) (A) (A)
                 (A) (A) (A) (A) (A) (A) (A) (A) (A) (A) (A) (A)
                 (A) (A) (A) (A) (A) (A) (A) (A) (A) (A) (A) (A)
                 (A) (A) (A) (A) (A) (A) (A) (A) (A) (A) (A) (A)
                 (A) (A) (A) (A) (A) (A) (A) (A) (A) (A) (A) (A)
                 (A) (A) (A) (A) (A) (A) (A) (A) (A) (A) (A) (A)
                 (A) (A) (A) (A) (A) (A) (A) (A) (A) (A) (A) (A)
                 (A) (A) (A) (A) (A) (A) (A) (A) (A) (A) (A) (A)
                 (A) (A) (A) (A) (A) (A) (A) (A) (A) (A) (A) (A)
                 (A) (A) (A) (A) (A) (A) (A) (A) (A) (A) (A) (A)
                 (A) (A) (A) (A) (A) (A) (A) (A) (A) (A) (A) (A)
                 (A) (A) (A) (A) (A) (A) (A) (A) (A) (A) (A) (A)
                 (A) (A) (A) (A) (A) (A) (A) (A) (A) (A) (A) (A)
                 (A) (A) (A) (A) (A) (A) (A) (A) (A) (A) (A) (A)
                 (A) (A) (A) (A) (A) (A) (A) (A) (A) (A) (A) (A)
                 (A) (A) (A) (A) (A) (A) (A) (A) (A) (A) (A) (A)
                 (A) (A) (A) (A) (A) (A) (A) (A) (A) (A) (A) (A)
                 (A) (A) (A) (A) (A) (A) (A) (A) (A) (A) (A) (A)
                 (A) (A) (A) (A) (A) (A) (A) (A) (A) (A) (A) (A)
                 (A) (A) (A) (A) (A) (A) (A) (A) (A) (A) (A) (A)
                 (A) (A) (A) (A) (A) (A) (A) (A) (A) (A) (A) (A)
                 (A) (A)
 The electronic state is 1-A.
 Alpha  occ. eigenvalues --  -89.05125 -89.04643 -19.29704 -19.29535 -19.26113
 Alpha  occ. eigenvalues --  -19.26054 -19.25847 -19.25725 -14.51538 -14.50369
 Alpha  occ. eigenvalues --  -10.44373 -10.44017 -10.43989 -10.43860 -10.36882
 Alpha  occ. eigenvalues --  -10.36284 -10.36047 -10.35886 -10.35836 -10.35655
 Alpha  occ. eigenvalues --  -10.35167 -10.35136 -10.35122 -10.34131 -10.34069
 Alpha  occ. eigenvalues --  -10.34010 -10.33901 -10.33023 -10.32631 -10.31996
 Alpha  occ. eigenvalues --  -10.30653 -10.29751  -8.09068  -8.08606  -6.03934
 Alpha  occ. eigenvalues --   -6.03533  -6.03458  -6.03126  -6.03063  -6.02688
 Alpha  occ. eigenvalues --   -1.19233  -1.19162  -1.17441  -1.17257  -1.17134
 Alpha  occ. eigenvalues --   -1.15958  -1.06585  -1.06133  -1.03460  -1.00167
 Alpha  occ. eigenvalues --   -0.98507  -0.97318  -0.94911  -0.90993  -0.89586
 Alpha  occ. eigenvalues --   -0.87172  -0.83926  -0.83188  -0.82321  -0.81514
 Alpha  occ. eigenvalues --   -0.80522  -0.77403  -0.76639  -0.75004  -0.72438
 Alpha  occ. eigenvalues --   -0.70622  -0.70167  -0.68899  -0.68127  -0.66454
 Alpha  occ. eigenvalues --   -0.65007  -0.64214  -0.62822  -0.62047  -0.61386
 Alpha  occ. eigenvalues --   -0.60638  -0.59846  -0.58755  -0.58120  -0.57131
 Alpha  occ. eigenvalues --   -0.56930  -0.56388  -0.55773  -0.55089  -0.54888
 Alpha  occ. eigenvalues --   -0.54605  -0.53821  -0.52783  -0.52624  -0.51996
 Alpha  occ. eigenvalues --   -0.51869  -0.51388  -0.51217  -0.51149  -0.50592
 Alpha  occ. eigenvalues --   -0.49140  -0.47662  -0.47340  -0.46280  -0.45870
 Alpha  occ. eigenvalues --   -0.44563  -0.44030  -0.43809  -0.42632  -0.41559
 Alpha  occ. eigenvalues --   -0.41097  -0.40579  -0.39739  -0.39362  -0.39082
 Alpha  occ. eigenvalues --   -0.38171  -0.37544  -0.36791  -0.35612  -0.34010
 Alpha  occ. eigenvalues --   -0.32181  -0.31724  -0.25935
 Alpha virt. eigenvalues --   -0.08545  -0.01865  -0.00386   0.01334   0.01580
 Alpha virt. eigenvalues --    0.03759   0.04634   0.04966   0.05837   0.06199
 Alpha virt. eigenvalues --    0.06494   0.06609   0.06985   0.07232   0.07541
 Alpha virt. eigenvalues --    0.07701   0.08281   0.08728   0.09205   0.09289
 Alpha virt. eigenvalues --    0.09645   0.09941   0.10044   0.10337   0.10726
 Alpha virt. eigenvalues --    0.11152   0.11577   0.11719   0.11855   0.12214
 Alpha virt. eigenvalues --    0.12626   0.12895   0.13482   0.13674   0.13874
 Alpha virt. eigenvalues --    0.14187   0.14613   0.15200   0.15529   0.15573
 Alpha virt. eigenvalues --    0.15820   0.15943   0.16160   0.16473   0.16848
 Alpha virt. eigenvalues --    0.17189   0.17446   0.17729   0.18054   0.18621
 Alpha virt. eigenvalues --    0.18696   0.18999   0.19288   0.19441   0.19595
 Alpha virt. eigenvalues --    0.19843   0.20146   0.20206   0.20749   0.21151
 Alpha virt. eigenvalues --    0.21198   0.21440   0.21609   0.21770   0.22053
 Alpha virt. eigenvalues --    0.22339   0.22377   0.22932   0.23060   0.23109
 Alpha virt. eigenvalues --    0.23654   0.23743   0.24051   0.24162   0.24376
 Alpha virt. eigenvalues --    0.24570   0.25339   0.25446   0.25546   0.25802
 Alpha virt. eigenvalues --    0.26022   0.26192   0.26349   0.26581   0.26970
 Alpha virt. eigenvalues --    0.27109   0.27190   0.27454   0.27728   0.27949
 Alpha virt. eigenvalues --    0.28057   0.28484   0.28515   0.28983   0.29096
 Alpha virt. eigenvalues --    0.29541   0.29549   0.30036   0.30231   0.30610
 Alpha virt. eigenvalues --    0.30779   0.30969   0.31294   0.31471   0.31712
 Alpha virt. eigenvalues --    0.31910   0.32134   0.32428   0.32603   0.32731
 Alpha virt. eigenvalues --    0.33120   0.33206   0.33440   0.33538   0.34199
 Alpha virt. eigenvalues --    0.34368   0.34527   0.34827   0.34992   0.35045
 Alpha virt. eigenvalues --    0.35280   0.35806   0.36079   0.36207   0.36433
 Alpha virt. eigenvalues --    0.36580   0.36863   0.37320   0.37576   0.37674
 Alpha virt. eigenvalues --    0.37937   0.38259   0.38620   0.38858   0.39306
 Alpha virt. eigenvalues --    0.39416   0.39722   0.40138   0.40298   0.40727
 Alpha virt. eigenvalues --    0.41220   0.41479   0.41559   0.41925   0.42438
 Alpha virt. eigenvalues --    0.42882   0.43285   0.43782   0.44482   0.44681
 Alpha virt. eigenvalues --    0.45263   0.45457   0.45709   0.46117   0.46605
 Alpha virt. eigenvalues --    0.47662   0.47933   0.48382   0.48844   0.49438
 Alpha virt. eigenvalues --    0.50133   0.50437   0.51284   0.51636   0.52812
 Alpha virt. eigenvalues --    0.53466   0.54045   0.54136   0.54610   0.54767
 Alpha virt. eigenvalues --    0.55311   0.56063   0.56328   0.57407   0.57499
 Alpha virt. eigenvalues --    0.58218   0.58332   0.59602   0.59761   0.60541
 Alpha virt. eigenvalues --    0.61424   0.61719   0.61978   0.62556   0.63621
 Alpha virt. eigenvalues --    0.63928   0.64287   0.64593   0.64903   0.65229
 Alpha virt. eigenvalues --    0.66218   0.66799   0.67220   0.67469   0.67930
 Alpha virt. eigenvalues --    0.68146   0.68769   0.69070   0.69373   0.69617
 Alpha virt. eigenvalues --    0.70154   0.70953   0.71479   0.71738   0.72089
 Alpha virt. eigenvalues --    0.72539   0.72950   0.73082   0.73349   0.73881
 Alpha virt. eigenvalues --    0.74264   0.75042   0.75393   0.76413   0.76715
 Alpha virt. eigenvalues --    0.77497   0.77787   0.78018   0.78619   0.78800
 Alpha virt. eigenvalues --    0.79119   0.79576   0.79647   0.80293   0.81068
 Alpha virt. eigenvalues --    0.81154   0.81778   0.82261   0.82725   0.83338
 Alpha virt. eigenvalues --    0.83825   0.84135   0.84622   0.85305   0.85766
 Alpha virt. eigenvalues --    0.86096   0.86273   0.87083   0.87907   0.88919
 Alpha virt. eigenvalues --    0.89798   0.90139   0.90367   0.91198   0.92027
 Alpha virt. eigenvalues --    0.92135   0.93076   0.93235   0.94652   0.95110
 Alpha virt. eigenvalues --    0.95199   0.95699   0.96062   0.96510   0.96577
 Alpha virt. eigenvalues --    0.97489   0.97617   0.98395   0.98554   0.98833
 Alpha virt. eigenvalues --    0.99540   1.00277   1.00574   1.00681   1.01537
 Alpha virt. eigenvalues --    1.01950   1.02437   1.02768   1.03194   1.03443
 Alpha virt. eigenvalues --    1.04128   1.04499   1.05091   1.06385   1.07059
 Alpha virt. eigenvalues --    1.07806   1.08444   1.08803   1.09035   1.09794
 Alpha virt. eigenvalues --    1.10080   1.10749   1.11248   1.11948   1.12516
 Alpha virt. eigenvalues --    1.12789   1.13132   1.13687   1.14352   1.15361
 Alpha virt. eigenvalues --    1.15497   1.16264   1.16567   1.17206   1.17343
 Alpha virt. eigenvalues --    1.18765   1.19206   1.19826   1.20213   1.21902
 Alpha virt. eigenvalues --    1.21969   1.22738   1.23341   1.23623   1.24775
 Alpha virt. eigenvalues --    1.25031   1.25604   1.25857   1.26919   1.27326
 Alpha virt. eigenvalues --    1.29190   1.29445   1.30773   1.31124   1.31307
 Alpha virt. eigenvalues --    1.31973   1.33048   1.33392   1.33739   1.34377
 Alpha virt. eigenvalues --    1.35000   1.35316   1.35858   1.36228   1.38332
 Alpha virt. eigenvalues --    1.39214   1.40309   1.41738   1.42097   1.43552
 Alpha virt. eigenvalues --    1.43948   1.44630   1.45910   1.46810   1.47685
 Alpha virt. eigenvalues --    1.49290   1.50421   1.50667   1.51444   1.52159
 Alpha virt. eigenvalues --    1.52712   1.53323   1.54015   1.54396   1.55068
 Alpha virt. eigenvalues --    1.55199   1.55595   1.56149   1.57554   1.58073
 Alpha virt. eigenvalues --    1.58863   1.59582   1.61029   1.62644   1.62991
 Alpha virt. eigenvalues --    1.63415   1.63801   1.63927   1.65188   1.66623
 Alpha virt. eigenvalues --    1.67007   1.67674   1.69139   1.69829   1.70437
 Alpha virt. eigenvalues --    1.71439   1.72088   1.73585   1.74037   1.75001
 Alpha virt. eigenvalues --    1.75229   1.75895   1.76327   1.77763   1.78314
 Alpha virt. eigenvalues --    1.78594   1.78887   1.79577   1.81013   1.81500
 Alpha virt. eigenvalues --    1.82640   1.84260   1.84580   1.85471   1.85733
 Alpha virt. eigenvalues --    1.87323   1.87998   1.88510   1.88944   1.89796
 Alpha virt. eigenvalues --    1.91734   1.92457   1.93155   1.93882   1.94111
 Alpha virt. eigenvalues --    1.94362   1.95166   1.95201   1.95966   1.96223
 Alpha virt. eigenvalues --    1.97096   1.97671   1.98183   1.99195   1.99767
 Alpha virt. eigenvalues --    2.00377   2.01219   2.02422   2.02911   2.03667
 Alpha virt. eigenvalues --    2.04172   2.05375   2.06177   2.06651   2.06974
 Alpha virt. eigenvalues --    2.07532   2.08388   2.09330   2.10460   2.12558
 Alpha virt. eigenvalues --    2.12764   2.12979   2.14566   2.15099   2.15809
 Alpha virt. eigenvalues --    2.16119   2.17469   2.18875   2.19360   2.20292
 Alpha virt. eigenvalues --    2.20717   2.22003   2.22342   2.23227   2.24043
 Alpha virt. eigenvalues --    2.24724   2.24874   2.26472   2.27298   2.28392
 Alpha virt. eigenvalues --    2.29802   2.32669   2.33268   2.35194   2.37075
 Alpha virt. eigenvalues --    2.38642   2.39457   2.41146   2.45202   2.45892
 Alpha virt. eigenvalues --    2.48333   2.49020   2.49653   2.51157   2.53572
 Alpha virt. eigenvalues --    2.54426   2.56061   2.57932   2.60066   2.61673
 Alpha virt. eigenvalues --    2.63442   2.65324   2.66519   2.67686   2.68431
 Alpha virt. eigenvalues --    2.70083   2.70399   2.71006   2.72012   2.72130
 Alpha virt. eigenvalues --    2.73581   2.74743   2.75907   2.77342   2.77544
 Alpha virt. eigenvalues --    2.78633   2.79235   2.79886   2.81052   2.81527
 Alpha virt. eigenvalues --    2.82332   2.83129   2.83254   2.84952   2.86430
 Alpha virt. eigenvalues --    2.87220   2.87432   2.88854   2.89753   2.90436
 Alpha virt. eigenvalues --    2.91415   2.91945   2.93035   2.94196   2.95416
 Alpha virt. eigenvalues --    2.97022   2.97331   2.97703   2.99113   2.99367
 Alpha virt. eigenvalues --    3.00229   3.00825   3.01093   3.01889   3.02285
 Alpha virt. eigenvalues --    3.03625   3.03953   3.05117   3.06182   3.06567
 Alpha virt. eigenvalues --    3.07175   3.08495   3.09788   3.10617   3.14039
 Alpha virt. eigenvalues --    3.14853   3.15266   3.18102   3.19771   3.21690
 Alpha virt. eigenvalues --    3.22520   3.23768   3.24665   3.26188   3.26838
 Alpha virt. eigenvalues --    3.27374   3.28527   3.30108   3.30514   3.31842
 Alpha virt. eigenvalues --    3.33731   3.35835   3.36514   3.38933   3.39915
 Alpha virt. eigenvalues --    3.41174   3.41498   3.42117   3.42512   3.43195
 Alpha virt. eigenvalues --    3.43415   3.45969   3.46275   3.47113   3.47651
 Alpha virt. eigenvalues --    3.49110   3.50657   3.51251   3.52575   3.52924
 Alpha virt. eigenvalues --    3.55130   3.56257   3.57962   3.62065   3.65000
 Alpha virt. eigenvalues --    3.65643   3.67303   3.67527   3.69318   3.72427
 Alpha virt. eigenvalues --    3.73860   3.77140   3.84602   3.88056   3.90822
 Alpha virt. eigenvalues --    3.94203   3.94474   3.95323   3.97036   3.98847
 Alpha virt. eigenvalues --    4.00956   4.03159   4.06947   4.09933   4.12005
 Alpha virt. eigenvalues --    4.18153   4.20269   4.25786   4.29438   4.31791
 Alpha virt. eigenvalues --    4.34117   4.42035   4.43447   4.44419   4.57144
 Alpha virt. eigenvalues --    4.72351   4.74451   4.87578   4.92121   4.94129
 Alpha virt. eigenvalues --    5.12341   5.12994   5.13891   5.15152   5.15593
 Alpha virt. eigenvalues --    5.17133   5.19242   5.20741   5.30470   5.33164
 Alpha virt. eigenvalues --    5.34617   5.36701   5.41314   5.51698   5.79562
 Alpha virt. eigenvalues --    5.82363   5.84062   5.88155   5.89277   5.92756
 Alpha virt. eigenvalues --    8.11285   8.13919  17.43119  17.46888  17.62738
 Alpha virt. eigenvalues --   17.66451  17.69398  17.76790  23.58839  23.66704
 Alpha virt. eigenvalues --   23.82491  23.90398  23.92402  23.93375  23.95370
 Alpha virt. eigenvalues --   23.96815  23.97449  23.98111  24.01098  24.04724
 Alpha virt. eigenvalues --   24.06299  24.09268  24.11949  24.14197  24.14918
 Alpha virt. eigenvalues --   24.15154  24.24154  24.25383  24.25708  24.26340
 Alpha virt. eigenvalues --   35.68391  35.74228  50.05849  50.07447  50.12058
 Alpha virt. eigenvalues --   50.13684  50.17141  50.18636 189.36249 189.39777
          Condensed to atoms (all electrons):
               1          2          3          4          5          6
     1  C   13.409362  -4.687878  -1.093256   1.987267  -2.608695  -0.414650
     2  C   -4.687878  12.734371   0.683042  -0.189787   1.564047  -0.374891
     3  C   -1.093256   0.683042   6.632874   1.031498  -0.738576   0.447516
     4  C    1.987267  -0.189787   1.031498  13.344295  -3.520440  -0.516589
     5  C   -2.608695   1.564047  -0.738576  -3.520440  10.808343   0.207500
     6  C   -0.414650  -0.374891   0.447516  -0.516589   0.207500  10.624741
     7  C   -1.273036   0.927059   1.267037  -0.176968  -0.279252   0.470814
     8  C   -0.271652  -0.268507   0.343570   0.340438   0.211949   1.584416
     9  C   -0.475072  -0.861281  -0.421463  -0.347990   0.423525  -1.921462
    10  C    0.144007  -0.291111  -0.329236   0.051949  -0.076830  -2.177940
    11  C    0.061868   0.421227  -0.952178   0.236197  -0.069922   0.045313
    12  C    0.228496   0.202482   0.705550   0.102065  -0.115955   0.638648
    13  C    0.179058  -1.085010  -0.772395  -5.082833   0.214478   0.511639
    14  C   -0.512584  -1.568197  -0.390544  -1.126587  -0.442253   0.205954
    15  H    0.002134  -0.005284   0.009768  -0.050836  -0.011115  -0.000140
    16  H   -0.001189  -0.002613  -0.003714  -0.001355   0.007058   0.000105
    17  H   -0.002504  -0.042119   0.003549  -0.002298   0.003041   0.404339
    18  N   -0.006776   0.006212   0.024408   0.013437   0.002338   0.045960
    19  N    0.122895  -0.258224  -0.032651  -0.130974   0.019602   0.114763
    20  O    0.289919  -0.171982  -0.002145  -0.042969   0.085252   0.068814
    21  O    0.108975  -0.066647   0.013130  -0.229345   0.294765   0.001323
    22  O    0.000591  -0.003112  -0.008810   0.004405   0.000097   0.001037
    23  O   -0.001917  -0.010802  -0.009203   0.003922   0.001251   0.005383
    24  C    0.688143  -0.400933  -0.734513   0.022991   0.005690  -2.573844
    25  C   -0.008711  -0.191712  -0.065721  -0.036653   0.005385  -0.496646
    26  S   -0.077062   0.113409   0.116839   0.028545   0.001328   0.550793
    27  C    0.043868  -0.022393  -0.049540  -0.022292  -0.002448  -0.609983
    28  H   -0.001186  -0.003416   0.002500   0.000022   0.000051   0.018040
    29  C    0.016343  -0.178781  -0.045298  -0.021282   0.001842  -0.382198
    30  O   -0.000220  -0.001190   0.000129   0.000018   0.000007   0.013204
    31  C   -0.005205  -0.020831   0.003026  -0.001169   0.000168   0.026888
    32  C   -0.003267  -0.043488  -0.000825  -0.002007   0.000079   0.056588
    33  S    0.000059   0.002371   0.000176   0.000033  -0.000001  -0.008113
    34  C    0.000102   0.003323   0.000580   0.000009  -0.000006   0.014785
    35  O   -0.000221   0.000307   0.000048   0.000001   0.000004   0.008205
    36  C   -0.000118  -0.001391   0.000002  -0.000019   0.000001   0.004396
    37  H   -0.000000   0.000000   0.000000   0.000000   0.000000  -0.000002
    38  H    0.000000   0.000000   0.000000  -0.000000  -0.000000   0.000000
    39  H   -0.000027  -0.000204  -0.000014  -0.000001   0.000000   0.000152
    40  H    0.000040   0.000483   0.000005   0.000002  -0.000002  -0.003315
    41  H    0.010674  -0.033508  -0.008600  -0.001239  -0.008993   0.023796
    42  H   -0.000176  -0.001984   0.001281  -0.001305  -0.000125   0.005165
               7          8          9         10         11         12
     1  C   -1.273036  -0.271652  -0.475072   0.144007   0.061868   0.228496
     2  C    0.927059  -0.268507  -0.861281  -0.291111   0.421227   0.202482
     3  C    1.267037   0.343570  -0.421463  -0.329236  -0.952178   0.705550
     4  C   -0.176968   0.340438  -0.347990   0.051949   0.236197   0.102065
     5  C   -0.279252   0.211949   0.423525  -0.076830  -0.069922  -0.115955
     6  C    0.470814   1.584416  -1.921462  -2.177940   0.045313   0.638648
     7  C    7.518252  -0.482658  -0.746314  -0.618143  -1.082312   0.734099
     8  C   -0.482658  10.336179   0.025155  -2.447889   0.734999   0.499585
     9  C   -0.746314   0.025155   8.828304   0.673444  -0.115624  -0.341086
    10  C   -0.618143  -2.447889   0.673444  11.913902  -1.998387   0.860473
    11  C   -1.082312   0.734999  -0.115624  -1.998387  11.943174  -3.652826
    12  C    0.734099   0.499585  -0.341086   0.860473  -3.652826  15.272116
    13  C   -0.542178  -1.400166  -0.047897  -0.661309  -0.042620  -0.593369
    14  C    0.680005  -2.154859  -0.281574  -0.543121   0.102072  -7.648794
    15  H   -0.006560  -0.001309   0.000282  -0.000386   0.005091   0.010007
    16  H    0.019390  -0.010553   0.001255   0.001236  -0.025518  -0.045287
    17  H   -0.013294   0.035652  -0.011790   0.007976  -0.000817   0.000104
    18  N    0.030943  -0.061571  -0.003607  -0.091511  -0.030104  -0.042841
    19  N   -0.069411   0.051731   0.027877   0.010192  -0.003124   0.010362
    20  O   -0.029947   0.020206   0.086027   0.002309   0.000661  -0.001635
    21  O   -0.025110   0.000177   0.001349   0.000149   0.002550   0.026770
    22  O    0.005341  -0.059858   0.004493   0.071781   0.259757  -0.239909
    23  O    0.058282  -0.091590  -0.071632   0.388207   0.050477  -0.071516
    24  C   -0.629783  -0.657664   1.623854   1.576312   0.120253  -0.715756
    25  C   -0.048551   0.141270  -0.119895  -0.032731   0.007816  -0.035420
    26  S   -0.037181   0.427081  -0.120613  -0.149893  -0.071729   0.027736
    27  C   -0.042100  -0.519742   0.039324  -0.045213   0.035925  -0.054013
    28  H    0.000900   0.015392   0.024242  -0.003012   0.000024   0.001023
    29  C    0.008420  -0.400362   0.098989   0.000256   0.028080  -0.085128
    30  O    0.000232   0.010090  -0.016546  -0.004918   0.000003   0.000209
    31  C   -0.000503   0.008814  -0.101188  -0.020238   0.000678  -0.002937
    32  C    0.004418  -0.021578  -0.171318  -0.035150   0.001849  -0.003855
    33  S   -0.000628  -0.007838   0.034230   0.004220  -0.000038  -0.000013
    34  C   -0.000603  -0.003432   0.027467  -0.001131   0.000096   0.000245
    35  O    0.000173   0.000737  -0.002668  -0.000424  -0.000022  -0.000131
    36  C    0.000114   0.001577  -0.012854  -0.000520   0.000006  -0.000027
    37  H   -0.000000   0.000000   0.000021  -0.000000  -0.000000  -0.000000
    38  H    0.000000  -0.000001   0.000012   0.000000   0.000000   0.000000
    39  H    0.000020   0.000046  -0.000617  -0.000058  -0.000000  -0.000010
    40  H   -0.000366  -0.000611   0.000343   0.000120  -0.000012   0.000070
    41  H   -0.006839   0.002802   0.001369   0.000195   0.000065   0.001560
    42  H   -0.010624   0.000605   0.005122   0.011681  -0.048873   0.031920
              13         14         15         16         17         18
     1  C    0.179058  -0.512584   0.002134  -0.001189  -0.002504  -0.006776
     2  C   -1.085010  -1.568197  -0.005284  -0.002613  -0.042119   0.006212
     3  C   -0.772395  -0.390544   0.009768  -0.003714   0.003549   0.024408
     4  C   -5.082833  -1.126587  -0.050836  -0.001355  -0.002298   0.013437
     5  C    0.214478  -0.442253  -0.011115   0.007058   0.003041   0.002338
     6  C    0.511639   0.205954  -0.000140   0.000105   0.404339   0.045960
     7  C   -0.542178   0.680005  -0.006560   0.019390  -0.013294   0.030943
     8  C   -1.400166  -2.154859  -0.001309  -0.010553   0.035652  -0.061571
     9  C   -0.047897  -0.281574   0.000282   0.001255  -0.011790  -0.003607
    10  C   -0.661309  -0.543121  -0.000386   0.001236   0.007976  -0.091511
    11  C   -0.042620   0.102072   0.005091  -0.025518  -0.000817  -0.030104
    12  C   -0.593369  -7.648794   0.010007  -0.045287   0.000104  -0.042841
    13  C   15.224308   0.313953  -0.039431   0.454487  -0.000522  -0.034845
    14  C    0.313953  19.889157   0.443755  -0.036544  -0.001102  -0.026107
    15  H   -0.039431   0.443755   0.446185  -0.004067   0.000000   0.000101
    16  H    0.454487  -0.036544  -0.004067   0.444483  -0.000000  -0.001472
    17  H   -0.000522  -0.001102   0.000000  -0.000000   0.427343  -0.000039
    18  N   -0.034845  -0.026107   0.000101  -0.001472  -0.000039   7.352802
    19  N    0.014758  -0.025907  -0.002008   0.000059  -0.000532   0.000183
    20  O   -0.001479   0.000479  -0.000004   0.000000   0.012589  -0.000012
    21  O    0.153388   0.034773   0.007724   0.000073  -0.000011  -0.000052
    22  O    0.117751   0.185754   0.000040   0.008013   0.000000  -0.054914
    23  O   -0.019107  -0.009298   0.000001  -0.000006   0.000086  -0.087742
    24  C   -0.343624  -0.396403  -0.000022  -0.000323  -0.005466  -0.065006
    25  C   -0.018604  -0.008763   0.000001   0.000004  -0.012241   0.031430
    26  S    0.011681   0.009001  -0.000002  -0.000008   0.018441  -0.017728
    27  C   -0.003266  -0.004929  -0.000000  -0.000002  -0.017300   0.027268
    28  H    0.000117   0.000112  -0.000000   0.000000  -0.000247   0.000164
    29  C   -0.013900  -0.009582  -0.000000  -0.000001  -0.011403   0.002070
    30  O    0.000008   0.000006  -0.000000   0.000000   0.000056   0.000016
    31  C   -0.000400  -0.000050  -0.000000   0.000000  -0.001644   0.000311
    32  C   -0.000262  -0.000109  -0.000000  -0.000000  -0.000422   0.000373
    33  S    0.000009  -0.000002  -0.000000  -0.000000  -0.000216   0.000130
    34  C    0.000031   0.000014  -0.000000  -0.000000   0.000028   0.000122
    35  O   -0.000011  -0.000005   0.000000  -0.000000   0.000025  -0.000036
    36  C   -0.000003  -0.000001   0.000000   0.000000  -0.000011  -0.000000
    37  H   -0.000000  -0.000000   0.000000  -0.000000   0.000000  -0.000000
    38  H    0.000000  -0.000000   0.000000   0.000000   0.000000   0.000000
    39  H   -0.000001  -0.000000   0.000000   0.000000   0.000000  -0.000001
    40  H    0.000006   0.000002  -0.000000  -0.000000  -0.000002   0.000015
    41  H    0.005767   0.015925  -0.000011  -0.000000  -0.000019  -0.000001
    42  H    0.025813   0.007939  -0.000000  -0.000034   0.000001   0.265508
              19         20         21         22         23         24
     1  C    0.122895   0.289919   0.108975   0.000591  -0.001917   0.688143
     2  C   -0.258224  -0.171982  -0.066647  -0.003112  -0.010802  -0.400933
     3  C   -0.032651  -0.002145   0.013130  -0.008810  -0.009203  -0.734513
     4  C   -0.130974  -0.042969  -0.229345   0.004405   0.003922   0.022991
     5  C    0.019602   0.085252   0.294765   0.000097   0.001251   0.005690
     6  C    0.114763   0.068814   0.001323   0.001037   0.005383  -2.573844
     7  C   -0.069411  -0.029947  -0.025110   0.005341   0.058282  -0.629783
     8  C    0.051731   0.020206   0.000177  -0.059858  -0.091590  -0.657664
     9  C    0.027877   0.086027   0.001349   0.004493  -0.071632   1.623854
    10  C    0.010192   0.002309   0.000149   0.071781   0.388207   1.576312
    11  C   -0.003124   0.000661   0.002550   0.259757   0.050477   0.120253
    12  C    0.010362  -0.001635   0.026770  -0.239909  -0.071516  -0.715756
    13  C    0.014758  -0.001479   0.153388   0.117751  -0.019107  -0.343624
    14  C   -0.025907   0.000479   0.034773   0.185754  -0.009298  -0.396403
    15  H   -0.002008  -0.000004   0.007724   0.000040   0.000001  -0.000022
    16  H    0.000059   0.000000   0.000073   0.008013  -0.000006  -0.000323
    17  H   -0.000532   0.012589  -0.000011   0.000000   0.000086  -0.005466
    18  N    0.000183  -0.000012  -0.000052  -0.054914  -0.087742  -0.065006
    19  N    7.253818  -0.058819  -0.052125  -0.000032  -0.000017   0.022377
    20  O   -0.058819   7.960237   0.001444  -0.000000   0.000013   0.030399
    21  O   -0.052125   0.001444   7.986431   0.000018   0.000000  -0.000241
    22  O   -0.000032  -0.000000   0.000018   7.968532   0.001081  -0.002133
    23  O   -0.000017   0.000013   0.000000   0.001081   7.956439   0.055872
    24  C    0.022377   0.030399  -0.000241  -0.002133   0.055872  12.855014
    25  C   -0.001052   0.003216  -0.000004  -0.000496  -0.078555   0.176911
    26  S    0.004963  -0.001882  -0.000028   0.000012   0.035041   0.092301
    27  C    0.000002   0.001853  -0.000007  -0.000059  -0.001108  -2.729353
    28  H   -0.000013   0.000005   0.000000   0.000001  -0.000666   0.032459
    29  C   -0.000369   0.003021  -0.000005  -0.000076   0.032727  -1.491191
    30  O   -0.000001  -0.000000   0.000000  -0.000000  -0.000183   0.071532
    31  C   -0.000034   0.000125   0.000000  -0.000007  -0.000950  -0.066481
    32  C   -0.000043   0.000184  -0.000000  -0.000002   0.001352  -0.873699
    33  S    0.000002   0.000004  -0.000000   0.000000   0.000009   0.126278
    34  C    0.000001   0.000007  -0.000000   0.000000   0.000438  -0.113631
    35  O    0.000001   0.000001  -0.000000  -0.000000   0.000058  -0.003450
    36  C   -0.000001   0.000001   0.000000  -0.000000  -0.000158  -0.008573
    37  H    0.000000  -0.000000   0.000000  -0.000000  -0.000000   0.000070
    38  H   -0.000000  -0.000000  -0.000000   0.000000   0.000000  -0.000103
    39  H   -0.000000   0.000000   0.000000  -0.000000  -0.000004   0.001637
    40  H    0.000000  -0.000000  -0.000000   0.000000   0.000104  -0.062994
    41  H    0.280694   0.007544   0.008245   0.000000  -0.000000   0.001035
    42  H   -0.000000  -0.000000  -0.000000   0.009385   0.014804  -0.003223
              25         26         27         28         29         30
     1  C   -0.008711  -0.077062   0.043868  -0.001186   0.016343  -0.000220
     2  C   -0.191712   0.113409  -0.022393  -0.003416  -0.178781  -0.001190
     3  C   -0.065721   0.116839  -0.049540   0.002500  -0.045298   0.000129
     4  C   -0.036653   0.028545  -0.022292   0.000022  -0.021282   0.000018
     5  C    0.005385   0.001328  -0.002448   0.000051   0.001842   0.000007
     6  C   -0.496646   0.550793  -0.609983   0.018040  -0.382198   0.013204
     7  C   -0.048551  -0.037181  -0.042100   0.000900   0.008420   0.000232
     8  C    0.141270   0.427081  -0.519742   0.015392  -0.400362   0.010090
     9  C   -0.119895  -0.120613   0.039324   0.024242   0.098989  -0.016546
    10  C   -0.032731  -0.149893  -0.045213  -0.003012   0.000256  -0.004918
    11  C    0.007816  -0.071729   0.035925   0.000024   0.028080   0.000003
    12  C   -0.035420   0.027736  -0.054013   0.001023  -0.085128   0.000209
[...]
    33  S    0.000012  -0.000001  -0.000000  -0.000000  -0.000148  -0.000102
    34  C    0.000044   0.000018  -0.000000  -0.000000   0.000026   0.000104
    35  O   -0.000019  -0.000010   0.000000  -0.000000   0.000010  -0.000030
    36  C   -0.000003  -0.000001   0.000000   0.000000  -0.000018   0.000012
    37  H   -0.000000  -0.000000   0.000000  -0.000000   0.000000  -0.000000
    38  H    0.000000  -0.000000   0.000000   0.000000   0.000000   0.000000
    39  H   -0.000001  -0.000000   0.000000   0.000000   0.000000  -0.000001
    40  H    0.000012   0.000003  -0.000000  -0.000000   0.000000   0.000003
    41  H    0.002078   0.004452  -0.000011   0.000000  -0.000016  -0.000000
    42  H   -0.002230   0.000022   0.000000  -0.000012   0.000000   0.340899
              19         20         21         22         23         24
     1  C    0.221261   0.245565   0.101980   0.000355  -0.003591   0.808733
     2  C   -0.299048  -0.153875  -0.058123  -0.004414  -0.020644  -0.371132
     3  C   -0.103725   0.011146   0.030561  -0.009040  -0.012397  -0.754636
     4  C   -0.119460  -0.040519  -0.191359  -0.003973   0.000742  -0.018763
     5  C    0.051227   0.080990   0.266990  -0.000479   0.001053  -0.003777
     6  C    0.144396   0.059941   0.003412   0.000675   0.012500  -2.287481
     7  C   -0.116307  -0.029580  -0.032064   0.027683   0.057631  -0.380177
     8  C    0.044115   0.019937   0.001487  -0.057894  -0.108656  -0.578097
     9  C    0.023774   0.084212   0.001626   0.003595  -0.097753   1.615336
    10  C    0.007298   0.001988   0.000126   0.073500   0.317720   1.294629
    11  C   -0.003625   0.000396   0.002343   0.217836   0.045505   0.094518
    12  C    0.013827  -0.001740   0.027214  -0.192014  -0.094652  -0.672046
    13  C    0.035228  -0.001614   0.135160   0.087539  -0.023317  -0.354019
    14  C   -0.033231   0.000500   0.006766   0.163873  -0.011076  -0.396041
    15  H   -0.001328  -0.000007   0.006974   0.000040   0.000001  -0.000064
    16  H    0.000110   0.000001   0.000073   0.006491  -0.000011  -0.000304
    17  H   -0.000419   0.009979  -0.000014   0.000000   0.000094  -0.003804
    18  N    0.000069  -0.000030  -0.000084  -0.033657  -0.057698  -0.073600
    19  N    7.303565  -0.046400  -0.036921  -0.000051  -0.000032   0.025661
    20  O   -0.046400   7.976822   0.001723  -0.000000   0.000017   0.027731
    21  O   -0.036921   0.001723   7.993910   0.000018  -0.000000  -0.000062
    22  O   -0.000051  -0.000000   0.000018   7.985132   0.001057  -0.001874
    23  O   -0.000032   0.000017  -0.000000   0.001057   8.014864  -0.020532
    24  C    0.025661   0.027731  -0.000062  -0.001874  -0.020532  13.551980
    25  C   -0.001754   0.002745  -0.000017  -0.000552  -0.086903  -0.012844
    26  S    0.005314  -0.000323  -0.000013   0.000065   0.037873  -0.220145
    27  C   -0.000271   0.001653  -0.000005  -0.000121   0.063536  -2.859469
    28  H   -0.000013   0.000006   0.000000   0.000001  -0.000647   0.011983
    29  C   -0.000435   0.002852  -0.000004  -0.000104   0.094335  -1.808708
    30  O   -0.000001   0.000000   0.000000  -0.000000  -0.000436   0.096494
    31  C   -0.000034   0.000071  -0.000000  -0.000009   0.000832  -0.013085
    32  C   -0.000053   0.000156  -0.000000  -0.000003   0.004193  -1.167015
    33  S    0.000002   0.000002  -0.000000  -0.000000   0.000165   0.187195
    34  C    0.000001   0.000004   0.000000   0.000000   0.000151  -0.024645
    35  O    0.000000   0.000001  -0.000000  -0.000000   0.000054   0.017478
    36  C   -0.000001   0.000000  -0.000000  -0.000000  -0.000087  -0.021659
    37  H    0.000000  -0.000000   0.000000  -0.000000  -0.000000   0.000087
    38  H    0.000000  -0.000000  -0.000000  -0.000000  -0.000000  -0.000123
    39  H   -0.000000   0.000000  -0.000000  -0.000000  -0.000010  -0.006924
    40  H    0.000000  -0.000000  -0.000000   0.000000  -0.000176  -0.044449
    41  H    0.342146   0.002058   0.002606  -0.000000  -0.000000   0.000260
    42  H    0.000000  -0.000000  -0.000000   0.002944   0.006245   0.000755
              25         26         27         28         29         30
     1  C   -0.049231  -0.035994   0.022129  -0.001148   0.031805  -0.000215
     2  C   -0.185159   0.086762  -0.088359  -0.003215  -0.206452  -0.001459
     3  C   -0.048399   0.090087  -0.044295   0.002631  -0.056357   0.000145
     4  C   -0.050191   0.032373  -0.029386   0.000114  -0.027936   0.000008
     5  C    0.001245   0.003519  -0.002411   0.000068   0.001771   0.000008
     6  C   -0.223856   0.329280  -0.559729   0.015240  -0.474115   0.017574
     7  C   -0.040133  -0.058440  -0.037568   0.001073  -0.003448   0.000287
     8  C    0.275192   0.196223  -0.345480   0.013434  -0.399624   0.011502
     9  C   -0.373171  -0.087102  -0.134737   0.023849   0.194347  -0.015970
    10  C   -0.094230  -0.059522  -0.132565  -0.005290  -0.044002  -0.007257
    11  C    0.000008  -0.073328   0.033634  -0.000209   0.028357   0.000111
    12  C   -0.029436   0.011428  -0.055444   0.000773  -0.107525   0.000182
    13  C   -0.018191   0.006440  -0.002489   0.000039  -0.018992   0.000006
    14  C   -0.001970   0.001720  -0.003539   0.000071  -0.012910   0.000005
    15  H    0.000001  -0.000001  -0.000001  -0.000000  -0.000001  -0.000000
    16  H    0.000002  -0.000009  -0.000003   0.000000  -0.000001   0.000000
    17  H   -0.010438   0.017506  -0.014940  -0.000247  -0.011808   0.000047
    18  N    0.007348  -0.011812   0.014980   0.000305  -0.002225   0.000064
    19  N   -0.001754   0.005314  -0.000271  -0.000013  -0.000435  -0.000001
    20  O    0.002745  -0.000323   0.001653   0.000006   0.002852   0.000000
    21  O   -0.000017  -0.000013  -0.000005   0.000000  -0.000004   0.000000
    22  O   -0.000552   0.000065  -0.000121   0.000001  -0.000104  -0.000000
    23  O   -0.086903   0.037873   0.063536  -0.000647   0.094335  -0.000436
    24  C   -0.012844  -0.220145  -2.859469   0.011983  -1.808708   0.096494
    25  C   12.377654  -2.103470   2.200521   0.384573  -3.259097  -0.055672
    26  S   -2.103470  19.525513  -1.527718   0.015583   0.191893   0.000209
    27  C    2.200521  -1.527718  12.976661  -0.125982  -0.037557   0.345130
    28  H    0.384573   0.015583  -0.125982   0.508280   0.029716  -0.002538
    29  C   -3.259097   0.191893  -0.037557   0.029716  11.376998  -0.263288
    30  O   -0.055672   0.000209   0.345130  -0.002538  -0.263288   8.031462
    31  C   -0.957402   0.237014  -0.527554  -0.005264   0.854789  -0.047096
    32  C   -0.495431  -0.336003  -2.558703   0.000331  -0.765728  -0.006005
    33  S   -0.147856   0.121867   0.242103   0.001268   0.626093  -0.067533
    34  C   -0.263796  -0.154410   0.083963   0.000019  -0.342562  -0.006253
    35  O    0.001958  -0.025360   0.051744   0.000002   0.022108  -0.000737
    36  C   -0.057834   0.063239  -0.505293   0.000148  -0.109782   0.001734
    37  H   -0.000055   0.000800   0.000219   0.000000  -0.004712   0.000016
    38  H    0.000316  -0.001070   0.005473  -0.000000  -0.004203  -0.000017
    39  H    0.001743  -0.000929  -0.012076   0.000000   0.030888  -0.000045
    40  H   -0.122843   0.000742   0.094655   0.001216   0.079031   0.230985
    41  H   -0.000016   0.000004  -0.000004  -0.000000  -0.000001  -0.000000
    42  H    0.000656  -0.000049   0.000150  -0.000002  -0.000324   0.000000
              31         32         33         34         35         36
     1  C   -0.005953  -0.000925  -0.000181   0.000081  -0.000164  -0.000078
     2  C   -0.014400  -0.044767   0.001703   0.002760   0.000258  -0.001088
     3  C    0.003812  -0.003787   0.000405   0.000574  -0.000050  -0.000024
     4  C   -0.001302  -0.002343   0.000069   0.000070  -0.000014  -0.000026
     5  C    0.000043   0.000053   0.000007  -0.000002   0.000004   0.000000
     6  C    0.031653   0.010060  -0.007185   0.003286   0.004579   0.004522
     7  C   -0.003120   0.001095  -0.000292  -0.000278   0.000026   0.000006
     8  C    0.016943  -0.050946  -0.005033  -0.004242  -0.000440   0.001128
     9  C   -0.081175  -0.131062   0.036362   0.047891   0.000510  -0.012419
    10  C   -0.022329  -0.036915   0.005410   0.004215   0.000333  -0.001107
    11  C    0.000642   0.002675  -0.000243   0.000033  -0.000021   0.000030
    12  C   -0.001801  -0.006045   0.000146   0.000418  -0.000189  -0.000044
    13  C   -0.000217  -0.000422   0.000012   0.000044  -0.000019  -0.000003
    14  C    0.000070  -0.000230  -0.000001   0.000018  -0.000010  -0.000001
    15  H   -0.000000  -0.000000  -0.000000  -0.000000   0.000000   0.000000
    16  H    0.000000  -0.000000  -0.000000  -0.000000  -0.000000   0.000000
    17  H   -0.001608  -0.001046  -0.000148   0.000026   0.000010  -0.000018
    18  N    0.000049   0.000619  -0.000102   0.000104  -0.000030   0.000012
    19  N   -0.000034  -0.000053   0.000002   0.000001   0.000000  -0.000001
    20  O    0.000071   0.000156   0.000002   0.000004   0.000001   0.000000
    21  O   -0.000000  -0.000000  -0.000000   0.000000  -0.000000  -0.000000
    22  O   -0.000009  -0.000003  -0.000000   0.000000  -0.000000  -0.000000
    23  O    0.000832   0.004193   0.000165   0.000151   0.000054  -0.000087
    24  C   -0.013085  -1.167015   0.187195  -0.024645   0.017478  -0.021659
    25  C   -0.957402  -0.495431  -0.147856  -0.263796   0.001958  -0.057834
    26  S    0.237014  -0.336003   0.121867  -0.154410  -0.025360   0.063239
    27  C   -0.527554  -2.558703   0.242103   0.083963   0.051744  -0.505293
    28  H   -0.005264   0.000331   0.001268   0.000019   0.000002   0.000148
    29  C    0.854789  -0.765728   0.626093  -0.342562   0.022108  -0.109782
    30  O   -0.047096  -0.006005  -0.067533  -0.006253  -0.000737   0.001734
    31  C   11.510160  -6.378474   0.569303   1.464861   0.075389  -1.357296
    32  C   -6.378474  25.076789  -2.879396  -7.682583  -0.215075   2.955331
    33  S    0.569303  -2.879396  17.471827   0.295973   0.043193  -0.137500
    34  C    1.464861  -7.682583   0.295973  13.992232   0.054897  -1.371384
    35  O    0.075389  -0.215075   0.043193   0.054897   8.078852  -0.011990
    36  C   -1.357296   2.955331  -0.137500  -1.371384  -0.011990   6.435959
    37  H    0.017312  -0.128634   0.010464   0.436067  -0.002947   0.027576
    38  H    0.052435  -0.079376  -0.032517   0.085813  -0.000290   0.340759
    39  H   -0.072536   0.390328  -0.015183  -0.289029   0.173662   0.015214
    40  H    0.008092  -0.012573   0.013046   0.003145  -0.000037  -0.003643
    41  H   -0.000000  -0.000000  -0.000000  -0.000000   0.000000  -0.000000
    42  H   -0.000008  -0.000016   0.000001  -0.000001  -0.000000   0.000000
              37         38         39         40         41         42
     1  C   -0.000000   0.000000  -0.000010   0.000042  -0.025259  -0.000101
     2  C    0.000000   0.000000  -0.000186   0.000549  -0.001663  -0.000242
     3  C    0.000000   0.000000  -0.000022   0.000042   0.002585   0.000949
     4  C    0.000000   0.000000  -0.000003   0.000007   0.009299   0.000034
     5  C    0.000000   0.000000   0.000000  -0.000002  -0.034377  -0.000075
     6  C   -0.000001   0.000000  -0.000046  -0.003933   0.006427   0.000476
     7  C    0.000000   0.000000   0.000009  -0.000482  -0.001903   0.007188
     8  C    0.000001  -0.000001  -0.000260   0.000885   0.000514   0.014329
     9  C    0.000015   0.000011  -0.000916   0.001101   0.000564   0.001176
    10  C   -0.000001   0.000001  -0.000097   0.000227   0.000040  -0.026009
    11  C   -0.000000   0.000000   0.000001  -0.000063  -0.000113  -0.045128
    12  C   -0.000000   0.000000  -0.000017   0.000178   0.000038   0.006555
    13  C   -0.000000   0.000000  -0.000001   0.000012   0.002078  -0.002230
    14  C   -0.000000  -0.000000  -0.000000   0.000003   0.004452   0.000022
    15  H    0.000000   0.000000   0.000000  -0.000000  -0.000011   0.000000
    16  H   -0.000000   0.000000   0.000000  -0.000000   0.000000  -0.000012
    17  H    0.000000   0.000000   0.000000   0.000000  -0.000016   0.000000
    18  N   -0.000000   0.000000  -0.000001   0.000003  -0.000000   0.340899
    19  N    0.000000   0.000000  -0.000000   0.000000   0.342146   0.000000
    20  O   -0.000000  -0.000000   0.000000  -0.000000   0.002058  -0.000000
    21  O    0.000000  -0.000000  -0.000000  -0.000000   0.002606  -0.000000
    22  O   -0.000000  -0.000000  -0.000000   0.000000  -0.000000   0.002944
    23  O   -0.000000  -0.000000  -0.000010  -0.000176  -0.000000   0.006245
    24  C    0.000087  -0.000123  -0.006924  -0.044449   0.000260   0.000755
    25  C   -0.000055   0.000316   0.001743  -0.122843  -0.000016   0.000656
    26  S    0.000800  -0.001070  -0.000929   0.000742   0.000004  -0.000049
    27  C    0.000219   0.005473  -0.012076   0.094655  -0.000004   0.000150
    28  H    0.000000  -0.000000   0.000000   0.001216  -0.000000  -0.000002
    29  C   -0.004712  -0.004203   0.030888   0.079031  -0.000001  -0.000324
    30  O    0.000016  -0.000017  -0.000045   0.230985  -0.000000   0.000000
    31  C    0.017312   0.052435  -0.072536   0.008092  -0.000000  -0.000008
    32  C   -0.128634  -0.079376   0.390328  -0.012573  -0.000000  -0.000016
    33  S    0.010464  -0.032517  -0.015183   0.013046  -0.000000   0.000001
    34  C    0.436067   0.085813  -0.289029   0.003145  -0.000000  -0.000001
    35  O   -0.002947  -0.000290   0.173662  -0.000037   0.000000  -0.000000
    36  C    0.027576   0.340759   0.015214  -0.003643  -0.000000   0.000000
    37  H    0.503762  -0.003647   0.002262   0.000000  -0.000000   0.000000
    38  H   -0.003647   0.449294   0.000007  -0.000002   0.000000   0.000000
    39  H    0.002262   0.000007   0.502649  -0.000001   0.000000  -0.000000
    40  H    0.000000  -0.000002  -0.000001   0.471034   0.000000  -0.000000
    41  H   -0.000000   0.000000   0.000000   0.000000   0.291589   0.000000
    42  H    0.000000   0.000000  -0.000000  -0.000000   0.000000   0.295099
 Mulliken charges:
               1
     1  C    0.560164
     2  C   -0.147028
     3  C    0.278817
     4  C    0.152206
     5  C    0.256568
     6  C   -0.558278
     7  C    0.215882
     8  C   -0.091692
     9  C    0.258958
    10  C    0.087981
    11  C    0.287971
    12  C    0.122478
    13  C   -0.433780
    14  C   -0.691382
    15  H    0.192816
    16  H    0.192579
    17  H    0.204719
    18  N   -0.468982
    19  N   -0.454889
    20  O   -0.256407
    21  O   -0.264304
    22  O   -0.266619
    23  O   -0.119949
    24  C    0.362637
    25  C   -0.564013
    26  S   -0.279755
    27  C   -0.530852
    28  H    0.133833
    29  C    0.396917
    30  O   -0.261449
    31  C    0.647193
    32  C    0.541925
    33  S   -0.333446
    34  C   -0.337461
    35  O   -0.267686
    36  C   -0.254385
    37  H    0.141416
    38  H    0.187135
    39  H    0.281530
    40  H    0.283209
    41  H    0.398706
    42  H    0.396716
 Sum of Mulliken charges =  -0.00000
 Mulliken charges with hydrogens summed into heavy atoms:
               1
     1  C    0.560164
     2  C   -0.147028
     3  C    0.278817
     4  C    0.152206
     5  C    0.256568
     6  C   -0.353560
     7  C    0.215882
     8  C   -0.091692
     9  C    0.258958
    10  C    0.087981
    11  C    0.287971
    12  C    0.122478
    13  C   -0.241201
    14  C   -0.498566
    18  N   -0.072266
    19  N   -0.056182
    20  O   -0.256407
    21  O   -0.264304
    22  O   -0.266619
    23  O   -0.119949
    24  C    0.362637
    25  C   -0.430180
    26  S   -0.279755
    27  C   -0.530852
    29  C    0.396917
    30  O    0.021760
    31  C    0.647193
    32  C    0.541925
    33  S   -0.333446
    34  C   -0.196045
    35  O    0.013844
    36  C   -0.067250
 Electronic spatial extent (au):  <R**2>=          18032.4653
 Charge=             -0.0000 electrons
 Dipole moment (field-independent basis, Debye):
    X=             -1.2009    Y=              0.3159    Z=             -0.1369  Tot=              1.2493
 Quadrupole moment (field-independent basis, Debye-Ang):
   XX=           -189.4984   YY=           -211.0633   ZZ=           -178.2771
   XY=              3.7234   XZ=             11.3348   YZ=             11.7604
 Traceless Quadrupole moment (field-independent basis, Debye-Ang):
   XX=              3.4479   YY=            -18.1171   ZZ=             14.6691
   XY=              3.7234   XZ=             11.3348   YZ=             11.7604
 Octapole moment (field-independent basis, Debye-Ang**2):
  XXX=           -296.1845  YYY=            -10.4145  ZZZ=             -3.7135  XYY=            -53.5514
  XXY=            -16.2044  XXZ=            -75.8565  XZZ=            -61.4865  YZZ=              0.2316
  YYZ=             -0.3117  XYZ=            -39.1496
 Hexadecapole moment (field-independent basis, Debye-Ang**3):
 XXXX=         -18256.3899 YYYY=          -4430.1405 ZZZZ=           -940.4964 XXXY=            539.3574
 XXXZ=            538.9828 YYYX=           -375.9443 YYYZ=             92.4720 ZZZX=            111.7561
 ZZZY=            139.9150 XXYY=          -4186.9470 XXZZ=          -3088.8059 YYZZ=           -833.5407
 XXYZ=            205.5055 YYXZ=             60.0577 ZZXY=             26.6644
 N-N= 3.338111377835D+03 E-N=-1.185190893613D+04  KE= 2.195618521179D+03
 Unable to Open any file for archive entry.
 1\1\GINC-CX1-140-3-2\FOpt\RwB97XD\6-311+G(d,p)\C22H10N2O6S2\NS5018\17-
 Nov-2020\0\\# opt=modredundant wb97xd/6-311+g(d,p)\\NDI_-80.pdb\\0,1\C
 ,-2.6527849527,-3.0494025397,-0.4141395649\C,-2.2901662251,-1.61631118
 06,-0.2371995324\C,-3.3018969983,-0.6420200457,-0.0739686457\C,-4.6711
 279982,-1.0004756707,-0.074190429\C,-5.0656448422,-2.4250387156,-0.248
 4960222\C,-0.9725556023,-1.2489669871,-0.2445789453\C,-2.9293815293,0.
 7104806902,0.0953658132\C,-1.5509980808,1.0732089927,0.0943315858\C,-0
 .5780199155,0.1023238704,-0.0931297154\C,-1.1914938436,2.5068403723,0.
 3320362884\C,-3.6217351107,3.1038781378,0.4476062041\C,-3.9603919863,1
 .6702230755,0.259599564\C,-5.2838184658,1.2992048472,0.2534310937\C,-5
 .6453159575,-0.0457379821,0.0855780032\H,-6.6852244875,-0.3489918738,0
 .0806842836\H,-6.0373562395,2.0668781625,0.3818049533\H,-0.2129823314,
 -2.0095997016,-0.382578891\N,-2.2679720305,3.3811593685,0.4599331764\N
 ,-4.0145411575,-3.3186520547,-0.4008957243\O,-1.845340172,-3.934150586
 7,-0.561440589\O,-6.2112656931,-2.8065021769,-0.2608211627\O,-4.443096
 1975,3.9793749372,0.585943558\O,-0.0688962384,2.9355974741,0.423517974
 \C,0.8725830711,0.3802072412,-0.1566820192\C,1.5826536792,0.8492466911
 ,-1.2166102082\S,1.8928135068,-0.0164209053,1.176958961\C,2.9725414554
 ,0.9229250496,-0.9399159228\H,1.1353945215,1.1457721142,-2.1572470938\
 C,3.32131478,0.4950480816,0.3163242974\O,3.9136204875,1.3481624125,-1.
 8272790855\C,4.6427603161,0.4606862324,0.9118217362\C,4.9894024444,0.0
 004739071,2.1583285158\S,6.0657432371,1.0429036126,0.0868049172\C,6.37
 48136719,0.1101449431,2.4541279879\O,4.0517867403,-0.501477985,3.00746
 92323\C,7.0713571178,0.6555636982,1.4213151911\H,6.820234185,-0.202125
 7177,3.3906441165\H,8.1314968053,0.8520198714,1.371156089\H,4.47489530
 51,-0.8589349455,3.7883808468\H,3.505898886,1.8999134508,-2.4955527321
 \H,-4.2741745662,-4.2899245576,-0.5200610524\H,-2.0151295885,4.3484963
 922,0.618622947\\Version=ES64L-G16RevC.01\State=1-A\HF=-2201.5690647\R
 MSD=4.892e-09\RMSF=1.318e-04\Dipole=0.448572,0.1726247,0.1028033\Quadr
 upole=1.3253466,-13.2104777,11.8851311,-0.530059,8.4538516,-8.8367856\
 PG=C01 [X(C22H10N2O6S2)]\\@
 The archive entry for this job was punched.


 DEMOCRATS BUY MOST OF THE BOOKS THAT HAVE BEEN
 BANNED; REPUBLICANS FORM CENSORSHIP COMMITTEES AND
 READ THEM AS A GROUP.
 Job cpu time:       2 days  9 hours 23 minutes 42.6 seconds.
 Elapsed time:       0 days  7 hours 11 minutes 58.2 seconds.
 File lengths (MBytes):  RWF=    361 Int=      0 D2E=      0 Chk=     44 Scr=      1
 Normal termination of Gaussian 16 at Tue Nov 17 16:09:59 2020.
