 Entering Gaussian System, Link 0=g16
 Input=pBTTT_-45.gjf
 Output=pBTTT_-45.log
 Initial command:
 /apps/gaussian/g16-c01-avx/g16/l1.exe "/tmp/pbs.4762230[130].pbs/Gau-956004.inp" -scrdir="/tmp/pbs.4762230[130].pbs/"
 Entering Link 1 = /apps/gaussian/g16-c01-avx/g16/l1.exe PID=    956005.
  
 Copyright (c) 1988-2019, Gaussian, Inc.  All Rights Reserved.
  
 This is part of the Gaussian(R) 16 program.  It is based on
 the Gaussian(R) 09 system (copyright 2009, Gaussian, Inc.),
 the Gaussian(R) 03 system (copyright 2003, Gaussian, Inc.),
 the Gaussian(R) 98 system (copyright 1998, Gaussian, Inc.),
 the Gaussian(R) 94 system (copyright 1995, Gaussian, Inc.),
 the Gaussian 92(TM) system (copyright 1992, Gaussian, Inc.),
 the Gaussian 90(TM) system (copyright 1990, Gaussian, Inc.),
 the Gaussian 88(TM) system (copyright 1988, Gaussian, Inc.),
 the Gaussian 86(TM) system (copyright 1986, Carnegie Mellon
 University), and the Gaussian 82(TM) system (copyright 1983,
 Carnegie Mellon University). Gaussian is a federally registered
 trademark of Gaussian, Inc.
  
 This software contains proprietary and confidential information,
 including trade secrets, belonging to Gaussian, Inc.
  
 This software is provided under written license and may be
 used, copied, transmitted, or stored only in accord with that
 written license.
  
 The following legend is applicable only to US Government
 contracts under FAR:
  
                    RESTRICTED RIGHTS LEGEND
  
 Use, reproduction and disclosure by the US Government is
 subject to restrictions as set forth in subparagraphs (a)
 and (c) of the Commercial Computer Software - Restricted
 Rights clause in FAR 52.227-19.
  
 Gaussian, Inc.
 340 Quinnipiac St., Bldg. 40, Wallingford CT 06492
  
  
 ---------------------------------------------------------------
 Warning -- This program may not be used in any manner that
 competes with the business of Gaussian, Inc. or will provide
 assistance to any competitor of Gaussian, Inc.  The licensee
 of this program is prohibited from giving any competitor of
 Gaussian, Inc. access to this program.  By using this program,
 the user acknowledges that Gaussian, Inc. is engaged in the
 business of creating and licensing software in the field of
 computational chemistry and represents and warrants to the
 licensee that it is not a competitor of Gaussian, Inc. and that
 it will not use this program in any manner prohibited above.
 ---------------------------------------------------------------
  

 Cite this work as:
 Gaussian 16, Revision C.01,
 M. J. Frisch, G. W. Trucks, H. B. Schlegel, G. E. Scuseria, 
 M. A. Robb, J. R. Cheeseman, G. Scalmani, V. Barone, 
 G. A. Petersson, H. Nakatsuji, X. Li, M. Caricato, A. V. Marenich, 
 J. Bloino, B. G. Janesko, R. Gomperts, B. Mennucci, H. P. Hratchian, 
 J. V. Ortiz, A. F. Izmaylov, J. L. Sonnenberg, D. Williams-Young, 
 F. Ding, F. Lipparini, F. Egidi, J. Goings, B. Peng, A. Petrone, 
 T. Henderson, D. Ranasinghe, V. G. Zakrzewski, J. Gao, N. Rega, 
 G. Zheng, W. Liang, M. Hada, M. Ehara, K. Toyota, R. Fukuda, 
 J. Hasegawa, M. Ishida, T. Nakajima, Y. Honda, O. Kitao, H. Nakai, 
 T. Vreven, K. Throssell, J. A. Montgomery, Jr., J. E. Peralta, 
 F. Ogliaro, M. J. Bearpark, J. J. Heyd, E. N. Brothers, K. N. Kudin, 
 V. N. Staroverov, T. A. Keith, R. Kobayashi, J. Normand, 
 K. Raghavachari, A. P. Rendell, J. C. Burant, S. S. Iyengar, 
 J. Tomasi, M. Cossi, J. M. Millam, M. Klene, C. Adamo, R. Cammi, 
 J. W. Ochterski, R. L. Martin, K. Morokuma, O. Farkas, 
 J. B. Foresman, and D. J. Fox, Gaussian, Inc., Wallingford CT, 2019.
 
 ******************************************
 Gaussian 16:  ES64L-G16RevC.01  3-Jul-2019
                26-Oct-2021 
 ******************************************
 %mem=100GB
 %nprocshared=8
 Will use up to    8 processors via shared memory.
 --------------------------------------
 # opt=modredundant wb97xd/6-311+g(d,p)
 --------------------------------------
 1/18=120,19=15,26=3,38=1/1,3;
 2/9=110,12=2,17=6,18=5,40=1/2;
 3/5=4,6=6,7=111,11=2,25=1,30=1,71=1,74=-58/1,2,3;
 4//1;
 5/5=2,38=5/2;
 6/7=2,8=2,9=2,10=2,28=1/1;
 7//1,2,3,16;
 1/18=20,19=15,26=3/3(2);
 2/9=110/2;
 99//99;
 2/9=110/2;
 3/5=4,6=6,7=111,11=2,25=1,30=1,71=1,74=-58/1,2,3;
 4/5=5,16=3,69=1/1;
 5/5=2,38=5/2;
 7//1,2,3,16;
 1/18=20,19=15,26=3/3(-5);
 2/9=110/2;
 6/7=2,8=2,9=2,10=2,19=2,28=1/1;
 99/9=1/99;
 -------------
 pBTTT_-45.pdb
 -------------
 Symbolic Z-matrix:
 Charge =  0 Multiplicity = 1
 C                    -4.25     -1.36     -0.21 
 C                    -2.93     -0.95     -0.61 
 C                    -1.97     -2.05     -0.62 
 C                    -2.66      0.47     -0.96 
 C                    -4.33     -2.76      0.1 
 H                    -5.1      -0.7      -0.14 
 S                    -2.8      -3.56     -0.11 
 H                    -5.23     -3.27      0.41 
 C                    -0.56     -2.13     -0.97 
 S                     0.096    -1.355    -2.444 
 C                     1.707    -1.892    -2.111 
 C                     1.794    -2.636    -0.88 
 C                     0.528    -2.762    -0.221 
 H                     0.424    -3.141     0.784 
 S                     3.371    -2.565    -0.166 
 C                     3.967    -1.558    -1.488 
 C                     2.938    -1.261    -2.458 
 H                     4.933    -1.075    -1.457 
 H                     3.025    -0.452    -3.178 
 H                    -3.55      1.09     -0.83 
 H                    -2.35      0.56     -2. 
 H                    -1.88      0.89     -0.31 
 
 The following ModRedundant input section has been read:
 D       2       3       9      10 F                                           
 

 GradGradGradGradGradGradGradGradGradGradGradGradGradGradGradGradGradGrad
 Berny optimization.
 Initialization pass.
                           ----------------------------
                           !    Initial Parameters    !
                           ! (Angstroms and Degrees)  !
 --------------------------                            --------------------------
 ! Name  Definition              Value          Derivative Info.                !
 --------------------------------------------------------------------------------
 ! R1    R(1,2)                  1.4389         estimate D2E/DX2                !
 ! R2    R(1,5)                  1.4361         estimate D2E/DX2                !
 ! R3    R(1,6)                  1.0784         estimate D2E/DX2                !
 ! R4    R(2,3)                  1.46           estimate D2E/DX2                !
 ! R5    R(2,4)                  1.4872         estimate D2E/DX2                !
 ! R6    R(3,7)                  1.797          estimate D2E/DX2                !
 ! R7    R(3,9)                  1.455          estimate D2E/DX2                !
 ! R8    R(4,20)                 1.0924         estimate D2E/DX2                !
 ! R9    R(4,21)                 1.0889         estimate D2E/DX2                !
 ! R10   R(4,22)                 1.0988         estimate D2E/DX2                !
 ! R11   R(5,7)                  1.7393         estimate D2E/DX2                !
 ! R12   R(5,8)                  1.0799         estimate D2E/DX2                !
 ! R13   R(9,10)                 1.7899         estimate D2E/DX2                !
 ! R14   R(9,13)                 1.4643         estimate D2E/DX2                !
 ! R15   R(10,11)                1.7305         estimate D2E/DX2                !
 ! R16   R(11,12)                1.441          estimate D2E/DX2                !
 ! R17   R(11,17)                1.4262         estimate D2E/DX2                !
 ! R18   R(12,13)                1.4328         estimate D2E/DX2                !
 ! R19   R(12,15)                1.7326         estimate D2E/DX2                !
 ! R20   R(13,14)                1.0791         estimate D2E/DX2                !
 ! R21   R(15,16)                1.7655         estimate D2E/DX2                !
 ! R22   R(16,17)                1.445          estimate D2E/DX2                !
 ! R23   R(16,18)                1.0805         estimate D2E/DX2                !
 ! R24   R(17,19)                1.0865         estimate D2E/DX2                !
 ! A1    A(2,1,5)              112.8843         estimate D2E/DX2                !
 ! A2    A(2,1,6)              124.5209         estimate D2E/DX2                !
 ! A3    A(5,1,6)              122.5942         estimate D2E/DX2                !
 ! A4    A(1,2,3)              112.9799         estimate D2E/DX2                !
 ! A5    A(1,2,4)              120.2665         estimate D2E/DX2                !
 ! A6    A(3,2,4)              126.7536         estimate D2E/DX2                !
 ! A7    A(2,3,7)              109.1138         estimate D2E/DX2                !
 ! A8    A(2,3,9)              132.8639         estimate D2E/DX2                !
 ! A9    A(7,3,9)              118.0132         estimate D2E/DX2                !
 ! A10   A(2,4,20)             111.468          estimate D2E/DX2                !
 ! A11   A(2,4,21)             110.8154         estimate D2E/DX2                !
 ! A12   A(2,4,22)             110.7706         estimate D2E/DX2                !
 ! A13   A(20,4,21)            107.3779         estimate D2E/DX2                !
 ! A14   A(20,4,22)            106.918          estimate D2E/DX2                !
 ! A15   A(21,4,22)            109.3476         estimate D2E/DX2                !
 ! A16   A(1,5,7)              111.9209         estimate D2E/DX2                !
 ! A17   A(1,5,8)              124.6643         estimate D2E/DX2                !
 ! A18   A(7,5,8)              123.4062         estimate D2E/DX2                !
 ! A19   A(3,7,5)               93.0997         estimate D2E/DX2                !
 ! A20   A(3,9,10)             121.9694         estimate D2E/DX2                !
 ! A21   A(3,9,13)             128.3694         estimate D2E/DX2                !
 ! A22   A(10,9,13)            109.6212         estimate D2E/DX2                !
 ! A23   A(9,10,11)             92.7721         estimate D2E/DX2                !
 ! A24   A(10,11,12)           112.3842         estimate D2E/DX2                !
 ! A25   A(10,11,17)           128.2752         estimate D2E/DX2                !
 ! A26   A(12,11,17)           112.5928         estimate D2E/DX2                !
 ! A27   A(11,12,13)           112.6419         estimate D2E/DX2                !
 ! A28   A(11,12,15)           112.6963         estimate D2E/DX2                !
 ! A29   A(13,12,15)           128.1929         estimate D2E/DX2                !
 ! A30   A(9,13,12)            112.5384         estimate D2E/DX2                !
 ! A31   A(9,13,14)            123.8042         estimate D2E/DX2                !
 ! A32   A(12,13,14)           122.9832         estimate D2E/DX2                !
 ! A33   A(12,15,16)            91.2641         estimate D2E/DX2                !
 ! A34   A(15,16,17)           112.3027         estimate D2E/DX2                !
 ! A35   A(15,16,18)           122.3651         estimate D2E/DX2                !
 ! A36   A(17,16,18)           124.3369         estimate D2E/DX2                !
 ! A37   A(11,17,16)           111.1248         estimate D2E/DX2                !
 ! A38   A(11,17,19)           124.0422         estimate D2E/DX2                !
 ! A39   A(16,17,19)           122.7435         estimate D2E/DX2                !
 ! D1    D(5,1,2,3)              0.3915         estimate D2E/DX2                !
 ! D2    D(5,1,2,4)           -179.5973         estimate D2E/DX2                !
 ! D3    D(6,1,2,3)           -179.8811         estimate D2E/DX2                !
 ! D4    D(6,1,2,4)              0.13           estimate D2E/DX2                !
 ! D5    D(2,1,5,7)             -0.3845         estimate D2E/DX2                !
 ! D6    D(2,1,5,8)           -179.3471         estimate D2E/DX2                !
 ! D7    D(6,1,5,7)            179.8822         estimate D2E/DX2                !
 ! D8    D(6,1,5,8)              0.9196         estimate D2E/DX2                !
 ! D9    D(1,2,3,7)             -0.2224         estimate D2E/DX2                !
 ! D10   D(1,2,3,9)            178.6265         estimate D2E/DX2                !
 ! D11   D(4,2,3,7)            179.7656         estimate D2E/DX2                !
 ! D12   D(4,2,3,9)             -1.3855         estimate D2E/DX2                !
 ! D13   D(1,2,4,20)             2.1641         estimate D2E/DX2                !
 ! D14   D(1,2,4,21)          -117.3645         estimate D2E/DX2                !
 ! D15   D(1,2,4,22)           121.0843         estimate D2E/DX2                !
 ! D16   D(3,2,4,20)          -177.8231         estimate D2E/DX2                !
 ! D17   D(3,2,4,21)            62.6483         estimate D2E/DX2                !
 ! D18   D(3,2,4,22)           -58.9029         estimate D2E/DX2                !
 ! D19   D(2,3,7,5)              0.0033         estimate D2E/DX2                !
 ! D20   D(9,3,7,5)           -179.041          estimate D2E/DX2                !
 ! D21   D(2,3,9,10)           -44.9887         Frozen                          !
 ! D22   D(2,3,9,13)           132.4626         estimate D2E/DX2                !
 ! D23   D(7,3,9,10)           133.7793         estimate D2E/DX2                !
 ! D24   D(7,3,9,13)           -48.7695         estimate D2E/DX2                !
 ! D25   D(1,5,7,3)              0.2153         estimate D2E/DX2                !
 ! D26   D(8,5,7,3)            179.1932         estimate D2E/DX2                !
 ! D27   D(3,9,10,11)          179.7668         estimate D2E/DX2                !
 ! D28   D(13,9,10,11)           1.8881         estimate D2E/DX2                !
 ! D29   D(3,9,13,12)         -179.8171         estimate D2E/DX2                !
 ! D30   D(3,9,13,14)           -8.999          estimate D2E/DX2                !
 ! D31   D(10,9,13,12)          -2.1124         estimate D2E/DX2                !
 ! D32   D(10,9,13,14)         168.7057         estimate D2E/DX2                !
 ! D33   D(9,10,11,12)          -1.2198         estimate D2E/DX2                !
 ! D34   D(9,10,11,17)        -149.8935         estimate D2E/DX2                !
 ! D35   D(10,11,12,13)          0.195          estimate D2E/DX2                !
 ! D36   D(10,11,12,15)       -154.046          estimate D2E/DX2                !
 ! D37   D(17,11,12,13)        153.9583         estimate D2E/DX2                !
 ! D38   D(17,11,12,15)         -0.2827         estimate D2E/DX2                !
 ! D39   D(10,11,17,16)        149.7642         estimate D2E/DX2                !
 ! D40   D(10,11,17,19)        -14.1383         estimate D2E/DX2                !
 ! D41   D(12,11,17,16)          1.1432         estimate D2E/DX2                !
 ! D42   D(12,11,17,19)       -162.7593         estimate D2E/DX2                !
 ! D43   D(11,12,13,9)           1.272          estimate D2E/DX2                !
 ! D44   D(11,12,13,14)       -169.6332         estimate D2E/DX2                !
 ! D45   D(15,12,13,9)         150.5991         estimate D2E/DX2                !
 ! D46   D(15,12,13,14)        -20.3061         estimate D2E/DX2                !
 ! D47   D(11,12,15,16)         -0.5021         estimate D2E/DX2                !
 ! D48   D(13,12,15,16)       -149.8157         estimate D2E/DX2                !
 ! D49   D(12,15,16,17)          1.1584         estimate D2E/DX2                !
 ! D50   D(12,15,16,18)        170.1967         estimate D2E/DX2                !
 ! D51   D(15,16,17,11)         -1.5163         estimate D2E/DX2                !
 ! D52   D(15,16,17,19)        162.6312         estimate D2E/DX2                !
 ! D53   D(18,16,17,11)       -170.3002         estimate D2E/DX2                !
 ! D54   D(18,16,17,19)         -6.1527         estimate D2E/DX2                !
 --------------------------------------------------------------------------------
 Trust Radius=3.00D-01 FncErr=1.00D-07 GrdErr=1.00D-06 EigMax=2.50D+02 EigMin=1.00D-04
 Number of steps in this run=    127 maximum allowed number of steps=    132.
 GradGradGradGradGradGradGradGradGradGradGradGradGradGradGradGradGradGrad

                          Input orientation:                          
 ---------------------------------------------------------------------
 Center     Atomic      Atomic             Coordinates (Angstroms)
 Number     Number       Type             X           Y           Z
 ---------------------------------------------------------------------
      1          6           0       -4.250000   -1.360000   -0.210000
      2          6           0       -2.930000   -0.950000   -0.610000
      3          6           0       -1.970000   -2.050000   -0.620000
      4          6           0       -2.660000    0.470000   -0.960000
      5          6           0       -4.330000   -2.760000    0.100000
      6          1           0       -5.100000   -0.700000   -0.140000
      7         16           0       -2.800000   -3.560000   -0.110000
      8          1           0       -5.230000   -3.270000    0.410000
      9          6           0       -0.560000   -2.130000   -0.970000
     10         16           0        0.096000   -1.355000   -2.444000
     11          6           0        1.707000   -1.892000   -2.111000
     12          6           0        1.794000   -2.636000   -0.880000
     13          6           0        0.528000   -2.762000   -0.221000
     14          1           0        0.424000   -3.141000    0.784000
     15         16           0        3.371000   -2.565000   -0.166000
     16          6           0        3.967000   -1.558000   -1.488000
     17          6           0        2.938000   -1.261000   -2.458000
     18          1           0        4.933000   -1.075000   -1.457000
     19          1           0        3.025000   -0.452000   -3.178000
     20          1           0       -3.550000    1.090000   -0.830000
     21          1           0       -2.350000    0.560000   -2.000000
     22          1           0       -1.880000    0.890000   -0.310000
 ---------------------------------------------------------------------
                    Distance matrix (angstroms):
                    1          2          3          4          5
     1  C    0.000000
     2  C    1.438923   0.000000
     3  C    2.417147   1.460034   0.000000
     4  C    2.537617   1.487212   2.634787   0.000000
     5  C    1.436141   2.395871   2.567509   3.787532   0.000000
     6  H    1.078425   2.234346   3.442354   2.827525   2.212261
     7  S    2.636759   2.660639   1.796970   4.121044   1.739253
     8  H    2.234480   3.422397   3.630000   4.740190   1.079907
     9  C    3.845335   2.671872   1.454991   3.342170   3.969219
    10  S    4.886563   3.561496   2.842245   3.623316   5.294850
    11  C    6.275562   4.964084   3.970941   5.096522   6.487474
    12  C    6.213454   5.023114   3.818205   5.430631   6.203157
    13  C    4.979459   3.923319   2.627955   4.599488   4.868594
    14  H    5.099635   4.241820   2.982069   5.058845   4.818042
    15  S    7.715802   6.519813   5.384944   6.798134   7.708060
    16  C    8.318147   6.979195   6.020254   6.950446   8.532688
    17  C    7.531975   6.159972   5.299927   6.047972   7.849471
    18  H    9.271662   7.909476   7.021581   7.764514   9.542884
    19  H    7.909432   6.504203   5.834980   6.171615   8.376644
    20  H    2.622384   2.143455   3.521378   1.092428   4.036806
    21  H    3.240447   2.132745   2.976726   1.088944   4.399182
    22  H    3.269465   2.139650   2.957668   1.098772   4.415099
                    6          7          8          9         10
     6  H    0.000000
     7  S    3.670218   0.000000
     8  H    2.631406   2.501879   0.000000
     9  C    4.831708   2.793224   5.001290   0.000000
    10  S    5.721526   4.323933   6.338676   1.789871   0.000000
    11  C    7.186164   5.205696   7.508415   2.549081   1.730485
    12  C    7.198815   4.748843   7.169563   2.409451   2.640125
    13  C    5.994396   3.424136   5.814705   1.464298   2.666084
    14  H    6.109569   3.371791   5.667824   2.250976   3.703696
    15  S    8.673912   6.250952   8.649046   4.035889   4.168814
    16  C    9.206723   7.190214   9.545583   4.592302   3.992466
    17  C    8.384348   6.612348   8.886941   3.899399   2.843589
    18  H   10.126016   8.233403  10.563630   5.614556   4.944607
    19  H    8.677936   7.280310   9.431855   4.532458   3.151699
    20  H    2.466313   4.764808   4.834211   4.396374   4.677215
    21  H    3.551014   4.555107   5.363898   3.391327   3.138037
    22  H    3.595191   4.548505   5.389480   3.361309   3.674038
                   11         12         13         14         15
    11  C    0.000000
    12  C    1.440995   0.000000
    13  C    2.391452   1.432799   0.000000
    14  H    3.403985   2.213780   1.079112   0.000000
    15  S    2.646668   1.732561   2.850348   3.149458   0.000000
    16  C    2.367971   2.500735   3.857671   4.496746   1.765488
    17  C    1.426160   2.385256   3.614591   4.512777   2.672297
    18  H    3.391501   3.552882   4.876237   5.442565   2.515278
    19  H    2.224683   3.400885   4.507212   5.449162   3.695488
    20  H    6.178134   6.514899   5.642594   6.024868   7.854945
    21  H    4.741716   5.351780   4.741667   5.398438   6.771929
    22  H    4.883615   5.124046   4.375327   4.770138   6.287349
                   16         17         18         19         20
    16  C    0.000000
    17  C    1.444974   0.000000
    18  H    1.080466   2.239782   0.000000
    19  H    2.228609   1.086485   2.643943   0.000000
    20  H    7.996884   7.090256   8.777337   7.149930   0.000000
    21  H    6.682257   5.611484   7.483994   5.594860   1.757783
    22  H    6.447309   5.696826   7.182883   5.838271   1.760483
                   21         22
    21  H    0.000000
    22  H    1.784909   0.000000
 Stoichiometry    C11H8S3
 Framework group  C1[X(C11H8S3)]
 Deg. of freedom    60
 Full point group                 C1      NOp   1
 Largest Abelian subgroup         C1      NOp   1
 Largest concise Abelian subgroup C1      NOp   1
                         Standard orientation:                         
 ---------------------------------------------------------------------
 Center     Atomic      Atomic             Coordinates (Angstroms)
 Number     Number       Type             X           Y           Z
 ---------------------------------------------------------------------
      1          6           0       -4.035888    0.412039    0.454398
      2          6           0       -2.673207    0.870995    0.508821
      3          6           0       -1.720074   -0.111656    0.001243
      4          6           0       -2.358289    2.222746    1.043045
      5          6           0       -4.157091   -0.915751   -0.079252
      6          1           0       -4.888048    0.987556    0.779365
      7         16           0       -2.611832   -1.583034   -0.517326
      8          1           0       -5.091169   -1.440680   -0.213968
      9          6           0       -0.274755   -0.094314   -0.165351
     10         16           0        0.581276    1.311216   -0.869150
     11          6           0        2.129994    0.556881   -0.704739
     12          6           0        2.043732   -0.746452   -0.096178
     13          6           0        0.697728   -1.116391    0.226827
     14          1           0        0.453752   -1.977140    0.830208
     15         16           0        3.504453   -1.203025    0.715980
     16          6           0        4.279417    0.316116    0.259261
     17          6           0        3.396843    1.177118   -0.494190
     18          1           0        5.230873    0.625558    0.667161
     19          1           0        3.583373    2.239343   -0.625850
     20          1           0       -3.258449    2.735056    1.390391
     21          1           0       -1.905100    2.846744    0.274250
     22          1           0       -1.678032    2.153067    1.903100
 ---------------------------------------------------------------------
 Rotational constants (GHZ):           1.1915633           0.2693973           0.2374965
 Standard basis: 6-311+G(d,p) (5D, 7F)
 There are   394 symmetry adapted cartesian basis functions of A   symmetry.
 There are   380 symmetry adapted basis functions of A   symmetry.
   380 basis functions,   610 primitive gaussians,   394 cartesian basis functions
    61 alpha electrons       61 beta electrons
       nuclear repulsion energy      1105.4395807462 Hartrees.
 NAtoms=   22 NActive=   22 NUniq=   22 SFac= 1.00D+00 NAtFMM=   60 NAOKFM=F Big=F
 Integral buffers will be    131072 words long.
 Raffenetti 2 integral format.
 Two-electron integral symmetry is turned on.
 Nuclear repulsion after empirical dispersion term =     1105.4273663646 Hartrees.
 One-electron integrals computed using PRISM.
 NBasis=   380 RedAO= T EigKep=  1.10D-06  NBF=   380
 NBsUse=   379 1.00D-06 EigRej=  3.60D-07 NBFU=   379
 ExpMin= 4.05D-02 ExpMax= 9.34D+04 ExpMxC= 3.17D+03 IAcc=3 IRadAn=         5 AccDes= 0.00D+00
 Harris functional with IExCor= 4639 and IRadAn=       5 diagonalized for initial guess.
 HarFok:  IExCor= 4639 AccDes= 0.00D+00 IRadAn=         5 IDoV= 1 UseB2=F ITyADJ=14
 ICtDFT=  3500011 ScaDFX=  1.000000  1.000000  1.000000  1.000000
 FoFCou: FMM=F IPFlag=           0 FMFlag=      100000 FMFlg1=           0
         NFxFlg=           0 DoJE=T BraDBF=F KetDBF=T FulRan=T
         wScrn=  0.000000 ICntrl=       500 IOpCl=  0 I1Cent=   200000004 NGrid=           0
         NMat0=    1 NMatS0=      1 NMatT0=    0 NMatD0=    1 NMtDS0=    0 NMtDT0=    0
 Petite list used in FoFCou.
 Requested convergence on RMS density matrix=1.00D-08 within 128 cycles.
 Requested convergence on MAX density matrix=1.00D-06.
 Requested convergence on             energy=1.00D-06.
 No special actions if energy rises.
 SCF Done:  E(RwB97XD) =  -1618.46145963     A.U. after   18 cycles
            NFock= 18  Conv=0.71D-08     -V/T= 2.0028

 **********************************************************************

            Population analysis using the SCF Density.

 **********************************************************************

 Orbital symmetries:
       Occupied  (A) (A) (A) (A) (A) (A) (A) (A) (A) (A) (A) (A)
                 (A) (A) (A) (A) (A) (A) (A) (A) (A) (A) (A) (A)
                 (A) (A) (A) (A) (A) (A) (A) (A) (A) (A) (A) (A)
                 (A) (A) (A) (A) (A) (A) (A) (A) (A) (A) (A) (A)
                 (A) (A) (A) (A) (A) (A) (A) (A) (A) (A) (A) (A)
                 (A)
       Virtual   (A) (A) (A) (A) (A) (A) (A) (A) (A) (A) (A) (A)
                 (A) (A) (A) (A) (A) (A) (A) (A) (A) (A) (A) (A)
                 (A) (A) (A) (A) (A) (A) (A) (A) (A) (A) (A) (A)
                 (A) (A) (A) (A) (A) (A) (A) (A) (A) (A) (A) (A)
                 (A) (A) (A) (A) (A) (A) (A) (A) (A) (A) (A) (A)
                 (A) (A) (A) (A) (A) (A) (A) (A) (A) (A) (A) (A)
                 (A) (A) (A) (A) (A) (A) (A) (A) (A) (A) (A) (A)
                 (A) (A) (A) (A) (A) (A) (A) (A) (A) (A) (A) (A)
                 (A) (A) (A) (A) (A) (A) (A) (A) (A) (A) (A) (A)
                 (A) (A) (A) (A) (A) (A) (A) (A) (A) (A) (A) (A)
                 (A) (A) (A) (A) (A) (A) (A) (A) (A) (A) (A) (A)
                 (A) (A) (A) (A) (A) (A) (A) (A) (A) (A) (A) (A)
                 (A) (A) (A) (A) (A) (A) (A) (A) (A) (A) (A) (A)
                 (A) (A) (A) (A) (A) (A) (A) (A) (A) (A) (A) (A)
                 (A) (A) (A) (A) (A) (A) (A) (A) (A) (A) (A) (A)
                 (A) (A) (A) (A) (A) (A) (A) (A) (A) (A) (A) (A)
                 (A) (A) (A) (A) (A) (A) (A) (A) (A) (A) (A) (A)
                 (A) (A) (A) (A) (A) (A) (A) (A) (A) (A) (A) (A)
                 (A) (A) (A) (A) (A) (A) (A) (A) (A) (A) (A) (A)
                 (A) (A) (A) (A) (A) (A) (A) (A) (A) (A) (A) (A)
                 (A) (A) (A) (A) (A) (A) (A) (A) (A) (A) (A) (A)
                 (A) (A) (A) (A) (A) (A) (A) (A) (A) (A) (A) (A)
                 (A) (A) (A) (A) (A) (A) (A) (A) (A) (A) (A) (A)
                 (A) (A) (A) (A) (A) (A) (A) (A) (A) (A) (A) (A)
                 (A) (A) (A) (A) (A) (A) (A) (A) (A) (A) (A) (A)
                 (A) (A) (A) (A) (A) (A) (A) (A) (A) (A) (A) (A)
                 (A) (A) (A) (A) (A) (A)
 The electronic state is 1-A.
 Alpha  occ. eigenvalues --  -89.05873 -89.05622 -89.05529 -10.35354 -10.34316
 Alpha  occ. eigenvalues --  -10.33623 -10.33489 -10.33374 -10.33000 -10.32105
 Alpha  occ. eigenvalues --  -10.31866 -10.31695 -10.30445 -10.28857  -8.09815
 Alpha  occ. eigenvalues --   -8.09490  -8.09481  -6.04668  -6.04345  -6.04324
 Alpha  occ. eigenvalues --   -6.04304  -6.03969  -6.03947  -6.03881  -6.03623
 Alpha  occ. eigenvalues --   -6.03533  -1.00701  -0.97630  -0.93506  -0.87629
 Alpha  occ. eigenvalues --   -0.87161  -0.84654  -0.80659  -0.79210  -0.76822
 Alpha  occ. eigenvalues --   -0.70369  -0.66805  -0.65794  -0.62228  -0.60784
 Alpha  occ. eigenvalues --   -0.58054  -0.57760  -0.52894  -0.52170  -0.51748
 Alpha  occ. eigenvalues --   -0.50065  -0.49793  -0.47837  -0.47652  -0.46943
 Alpha  occ. eigenvalues --   -0.45943  -0.45148  -0.44673  -0.42887  -0.42273
 Alpha  occ. eigenvalues --   -0.41339  -0.37076  -0.33000  -0.32487  -0.30543
 Alpha  occ. eigenvalues --   -0.26907
 Alpha virt. eigenvalues --   -0.00959   0.03471   0.05396   0.05615   0.05839
 Alpha virt. eigenvalues --    0.06331   0.06724   0.07075   0.07723   0.08416
 Alpha virt. eigenvalues --    0.08445   0.09042   0.09290   0.09518   0.09905
 Alpha virt. eigenvalues --    0.10671   0.10754   0.11635   0.11726   0.11988
 Alpha virt. eigenvalues --    0.12397   0.12859   0.13206   0.13656   0.14190
 Alpha virt. eigenvalues --    0.14583   0.15640   0.15769   0.16548   0.16956
 Alpha virt. eigenvalues --    0.17248   0.17389   0.18054   0.18497   0.19189
 Alpha virt. eigenvalues --    0.19295   0.19579   0.20216   0.20624   0.21015
 Alpha virt. eigenvalues --    0.21462   0.22375   0.22540   0.22595   0.23123
 Alpha virt. eigenvalues --    0.23532   0.23921   0.24475   0.24678   0.24823
 Alpha virt. eigenvalues --    0.25206   0.25300   0.26462   0.26603   0.27007
 Alpha virt. eigenvalues --    0.27058   0.27183   0.27699   0.27786   0.28075
 Alpha virt. eigenvalues --    0.28527   0.29373   0.29625   0.29991   0.30567
 Alpha virt. eigenvalues --    0.30871   0.31305   0.31635   0.31794   0.32349
 Alpha virt. eigenvalues --    0.33167   0.34296   0.34942   0.35719   0.36215
 Alpha virt. eigenvalues --    0.36695   0.37114   0.38353   0.38389   0.40231
 Alpha virt. eigenvalues --    0.41332   0.41538   0.42791   0.43372   0.43749
 Alpha virt. eigenvalues --    0.44641   0.45462   0.46882   0.49096   0.50013
 Alpha virt. eigenvalues --    0.50844   0.51655   0.52326   0.53303   0.55173
 Alpha virt. eigenvalues --    0.57005   0.59620   0.60515   0.62195   0.63015
 Alpha virt. eigenvalues --    0.63303   0.63602   0.64541   0.64818   0.65654
 Alpha virt. eigenvalues --    0.66652   0.66959   0.68550   0.69066   0.69739
 Alpha virt. eigenvalues --    0.70456   0.70869   0.72308   0.72651   0.72996
 Alpha virt. eigenvalues --    0.74376   0.75650   0.76403   0.76568   0.76848
 Alpha virt. eigenvalues --    0.77878   0.79326   0.79331   0.79748   0.81224
 Alpha virt. eigenvalues --    0.82137   0.82807   0.83221   0.83750   0.84450
 Alpha virt. eigenvalues --    0.85109   0.85827   0.86552   0.87551   0.88036
 Alpha virt. eigenvalues --    0.89316   0.90341   0.91100   0.91823   0.93086
 Alpha virt. eigenvalues --    0.94528   0.95025   0.96362   0.98056   0.98320
 Alpha virt. eigenvalues --    1.00351   1.01008   1.01595   1.02092   1.02745
 Alpha virt. eigenvalues --    1.04055   1.04453   1.04999   1.06543   1.07577
 Alpha virt. eigenvalues --    1.07762   1.10189   1.10930   1.11645   1.13997
 Alpha virt. eigenvalues --    1.14753   1.15855   1.17735   1.19655   1.21985
 Alpha virt. eigenvalues --    1.24878   1.28229   1.30357   1.33208   1.36287
 Alpha virt. eigenvalues --    1.38809   1.42444   1.44273   1.44895   1.48428
 Alpha virt. eigenvalues --    1.48815   1.51870   1.54833   1.56229   1.57515
 Alpha virt. eigenvalues --    1.60579   1.62348   1.63045   1.64197   1.65381
 Alpha virt. eigenvalues --    1.66033   1.66352   1.66898   1.70806   1.70978
 Alpha virt. eigenvalues --    1.72014   1.72620   1.73312   1.74555   1.75966
 Alpha virt. eigenvalues --    1.77776   1.78904   1.79123   1.80533   1.83537
 Alpha virt. eigenvalues --    1.84333   1.85437   1.86930   1.89145   1.89474
 Alpha virt. eigenvalues --    1.89977   1.92211   1.93431   1.94812   1.96454
 Alpha virt. eigenvalues --    1.98743   1.99108   2.02256   2.02729   2.03826
 Alpha virt. eigenvalues --    2.06249   2.07578   2.08405   2.09096   2.10673
 Alpha virt. eigenvalues --    2.11743   2.13086   2.14922   2.16554   2.17080
 Alpha virt. eigenvalues --    2.19184   2.20096   2.21192   2.22519   2.23101
 Alpha virt. eigenvalues --    2.26618   2.27002   2.28749   2.34642   2.38141
 Alpha virt. eigenvalues --    2.42499   2.45182   2.46783   2.48979   2.52633
 Alpha virt. eigenvalues --    2.54151   2.56091   2.59475   2.61054   2.63889
 Alpha virt. eigenvalues --    2.65064   2.68855   2.69519   2.74056   2.75239
 Alpha virt. eigenvalues --    2.78199   2.79316   2.81772   2.82069   2.82163
 Alpha virt. eigenvalues --    2.83667   2.85336   2.89020   2.89407   2.92115
 Alpha virt. eigenvalues --    2.94259   2.96871   3.01910   3.02991   3.05222
 Alpha virt. eigenvalues --    3.08269   3.09987   3.11147   3.11987   3.14001
 Alpha virt. eigenvalues --    3.16112   3.20929   3.26691   3.31932   3.35416
 Alpha virt. eigenvalues --    3.36892   3.41798   3.46306   3.49373   3.50661
 Alpha virt. eigenvalues --    3.57407   3.67463   3.75194   3.89973   3.91763
 Alpha virt. eigenvalues --    4.01718   4.05581   4.14718   4.20870   4.40738
 Alpha virt. eigenvalues --    4.43620   4.55312   8.05515   8.08322   8.08912
 Alpha virt. eigenvalues --   17.42357  17.42886  17.44983  17.56422  17.58886
 Alpha virt. eigenvalues --   17.60931  17.63062  17.63897  17.65887  23.61386
 Alpha virt. eigenvalues --   23.74899  23.86737  23.90776  23.94963  23.99180
 Alpha virt. eigenvalues --   24.01314  24.07214  24.09091  24.09158  24.11970
 Alpha virt. eigenvalues --  189.29837 189.33328 189.34204
          Condensed to atoms (all electrons):
               1          2          3          4          5          6
     1  C   13.359625  -8.706654   7.828689  -2.273495  -0.690664   0.308901
     2  C   -8.706654  26.865415 -21.698416   1.998811   2.048559   0.042141
     3  C    7.828689 -21.698416  36.182433  -5.308329  -2.542176  -0.041699
     4  C   -2.273495   1.998811  -5.308329   9.340927   0.187674   0.022880
     5  C   -0.690664   2.048559  -2.542176   0.187674   5.957581   0.007466
     6  H    0.308901   0.042141  -0.041699   0.022880   0.007466   0.491391
     7  S   -1.418959   0.555694  -1.344374   0.741033   0.121422   0.007384
     8  H    0.032011  -0.035887   0.010555   0.001105   0.386887  -0.003206
     9  C   -1.658978   2.385141  -2.761484   0.435026   0.394283   0.003877
    10  S   -0.042647   0.095502   0.779927   0.040903  -0.016664   0.000289
    11  C   -0.082067   0.651214  -1.703068   0.117652   0.052838   0.000030
    12  C   -0.096163  -0.671282   1.788136   0.016363  -0.055413   0.000142
    13  C    0.030900   1.600650  -4.352236   0.207466   0.115128  -0.000303
    14  H    0.002699  -0.040751   0.088380  -0.005505  -0.000345  -0.000000
    15  S   -0.027084   0.074067  -0.143843   0.016801   0.003598   0.000005
    16  C    0.007905   0.012474   0.027787  -0.014131  -0.000631  -0.000001
    17  C   -0.051915   0.129383  -0.516742   0.068854   0.012260   0.000009
    18  H   -0.000005  -0.000186  -0.000018   0.000018  -0.000001   0.000000
    19  H    0.000047  -0.000624   0.001365  -0.000286  -0.000011  -0.000000
    20  H    0.064598  -0.090859  -0.075348   0.451769   0.019234   0.001327
    21  H   -0.043859   0.018664   0.088356   0.282264  -0.004945   0.000209
    22  H   -0.028747  -0.031951   0.040181   0.402137  -0.001052   0.000142
               7          8          9         10         11         12
     1  C   -1.418959   0.032011  -1.658978  -0.042647  -0.082067  -0.096163
     2  C    0.555694  -0.035887   2.385141   0.095502   0.651214  -0.671282
     3  C   -1.344374   0.010555  -2.761484   0.779927  -1.703068   1.788136
     4  C    0.741033   0.001105   0.435026   0.040903   0.117652   0.016363
     5  C    0.121422   0.386887   0.394283  -0.016664   0.052838  -0.055413
     6  H    0.007384  -0.003206   0.003877   0.000289   0.000030   0.000142
     7  S   17.557862  -0.020854   0.216167   0.115694  -0.103759   0.360797
     8  H   -0.020854   0.443892  -0.006645  -0.000274   0.000017  -0.000230
     9  C    0.216167  -0.006645  10.601664   0.186429  -0.596859   1.453887
    10  S    0.115694  -0.000274   0.186429  17.724912  -1.477418   2.072530
    11  C   -0.103759   0.000017  -0.596859  -1.477418  14.630365  -6.851446
    12  C    0.360797  -0.000230   1.453887   2.072530  -6.851446  17.310335
    13  C   -0.441155  -0.000111  -4.145631  -2.960656   3.417907  -8.227514
    14  H   -0.001331  -0.000000   0.111739   0.015250  -0.061408   0.100359
    15  S    0.013092  -0.000003  -0.508689   0.120768   0.327290  -1.078117
    16  C   -0.007399  -0.000000   0.252885  -0.006832   0.811794  -0.424962
    17  C   -0.012840  -0.000002  -1.007285  -0.237757  -3.174239   0.054495
    18  H    0.000035  -0.000000  -0.002311   0.001087  -0.019556   0.015312
    19  H    0.000043  -0.000000   0.009562   0.012146   0.025021  -0.026064
    20  H   -0.003051  -0.000019   0.003846  -0.001147   0.000250  -0.000474
    21  H    0.001333  -0.000000  -0.003215   0.010913  -0.001797   0.006174
    22  H    0.004165   0.000004  -0.003606   0.003323  -0.006834   0.007292
              13         14         15         16         17         18
     1  C    0.030900   0.002699  -0.027084   0.007905  -0.051915  -0.000005
     2  C    1.600650  -0.040751   0.074067   0.012474   0.129383  -0.000186
     3  C   -4.352236   0.088380  -0.143843   0.027787  -0.516742  -0.000018
     4  C    0.207466  -0.005505   0.016801  -0.014131   0.068854   0.000018
     5  C    0.115128  -0.000345   0.003598  -0.000631   0.012260  -0.000001
     6  H   -0.000303  -0.000000   0.000005  -0.000001   0.000009   0.000000
     7  S   -0.441155  -0.001331   0.013092  -0.007399  -0.012840   0.000035
     8  H   -0.000111  -0.000000  -0.000003  -0.000000  -0.000002  -0.000000
     9  C   -4.145631   0.111739  -0.508689   0.252885  -1.007285  -0.002311
    10  S   -2.960656   0.015250   0.120768  -0.006832  -0.237757   0.001087
    11  C    3.417907  -0.061408   0.327290   0.811794  -3.174239  -0.019556
    12  C   -8.227514   0.100359  -1.078117  -0.424962   0.054495   0.015312
    13  C   18.808150   0.149806   0.551749  -0.354831   1.834294   0.009176
    14  H    0.149806   0.471841   0.001681   0.001483  -0.013198  -0.000001
    15  S    0.551749   0.001681  16.715193   0.317644  -0.164483  -0.024678
    16  C   -0.354831   0.001483   0.317644   5.599038  -0.252230   0.370293
    17  C    1.834294  -0.013198  -0.164483  -0.252230   9.033256   0.013639
    18  H    0.009176  -0.000001  -0.024678   0.370293   0.013639   0.439049
    19  H   -0.008351   0.000012  -0.000592   0.011380   0.335224  -0.002641
    20  H    0.001678  -0.000001  -0.000010   0.000008   0.000096  -0.000000
    21  H   -0.004384   0.000015   0.000254  -0.000124   0.000119   0.000000
    22  H   -0.024994   0.000022   0.000173   0.000089  -0.002320   0.000000
              19         20         21         22
     1  C    0.000047   0.064598  -0.043859  -0.028747
     2  C   -0.000624  -0.090859   0.018664  -0.031951
     3  C    0.001365  -0.075348   0.088356   0.040181
     4  C   -0.000286   0.451769   0.282264   0.402137
     5  C   -0.000011   0.019234  -0.004945  -0.001052
     6  H   -0.000000   0.001327   0.000209   0.000142
     7  S    0.000043  -0.003051   0.001333   0.004165
     8  H   -0.000000  -0.000019  -0.000000   0.000004
     9  C    0.009562   0.003846  -0.003215  -0.003606
    10  S    0.012146  -0.001147   0.010913   0.003323
    11  C    0.025021   0.000250  -0.001797  -0.006834
    12  C   -0.026064  -0.000474   0.006174   0.007292
    13  C   -0.008351   0.001678  -0.004384  -0.024994
    14  H    0.000012  -0.000001   0.000015   0.000022
    15  S   -0.000592  -0.000010   0.000254   0.000173
    16  C    0.011380   0.000008  -0.000124   0.000089
    17  C    0.335224   0.000096   0.000119  -0.002320
    18  H   -0.002641  -0.000000   0.000000   0.000000
    19  H    0.476063  -0.000000   0.000004   0.000000
    20  H   -0.000000   0.516540  -0.024464  -0.024464
    21  H    0.000004  -0.024464   0.518078  -0.024090
    22  H    0.000000  -0.024464  -0.024090   0.493769
 Mulliken charges:
               1
     1  C   -0.514135
     2  C    0.798896
     3  C   -0.348076
     4  C   -0.729938
     5  C    0.004972
     6  H    0.159017
     7  S   -0.341000
     8  H    0.192763
     9  C    0.640196
    10  S   -0.436281
    11  C    0.044073
    12  C    0.245843
    13  C   -0.206742
    14  H    0.179252
    15  S   -0.194816
    16  C   -0.351639
    17  C   -0.048619
    18  H    0.200787
    19  H    0.167702
    20  H    0.160490
    21  H    0.180495
    22  H    0.196759
 Sum of Mulliken charges =  -0.00000
 Mulliken charges with hydrogens summed into heavy atoms:
               1
     1  C   -0.355118
     2  C    0.798896
     3  C   -0.348076
     4  C   -0.192194
     5  C    0.197735
     7  S   -0.341000
     9  C    0.640196
    10  S   -0.436281
    11  C    0.044073
    12  C    0.245843
    13  C   -0.027490
    15  S   -0.194816
    16  C   -0.150851
    17  C    0.119084
 Electronic spatial extent (au):  <R**2>=           4435.7571
 Charge=             -0.0000 electrons
 Dipole moment (field-independent basis, Debye):
    X=             -0.6771    Y=              1.3033    Z=              1.4822  Tot=              2.0866
 Quadrupole moment (field-independent basis, Debye-Ang):
   XX=            -88.5679   YY=            -97.5505   ZZ=           -107.7804
   XY=              2.7680   XZ=              1.5350   YZ=              0.0323
 Traceless Quadrupole moment (field-independent basis, Debye-Ang):
   XX=              9.3983   YY=              0.4158   ZZ=             -9.8141
   XY=              2.7680   XZ=              1.5350   YZ=              0.0323
 Octapole moment (field-independent basis, Debye-Ang**2):
  XXX=            -23.1251  YYY=              7.2661  ZZZ=              4.9823  XYY=             -4.7645
  XXY=             17.9892  XXZ=             23.7018  XZZ=              1.0270  YZZ=              1.5694
  YYZ=              2.8132  XYZ=            -12.4977
 Hexadecapole moment (field-independent basis, Debye-Ang**3):
 XXXX=          -4294.8795 YYYY=           -996.0836 ZZZZ=           -372.7759 XXXY=            118.0183
 XXXZ=             89.2333 YYYX=             17.8971 YYYZ=             -9.7558 ZZZX=             14.2336
 ZZZY=              3.2766 XXYY=           -914.8267 XXZZ=           -918.7015 YYZZ=           -228.2831
 XXYZ=             30.4491 YYXZ=             -4.0139 ZZXY=            -11.0871
 N-N= 1.105427366365D+03 E-N=-6.034025487912D+03  KE= 1.613971695474D+03
 Calling FoFJK, ICntrl=      2127 FMM=F ISym2X=0 I1Cent= 0 IOpClX= 0 NMat=1 NMatS=1 NMatT=0.
 ***** Axes restored to original set *****
 -------------------------------------------------------------------
 Center     Atomic                   Forces (Hartrees/Bohr)
 Number     Number              X              Y              Z
 -------------------------------------------------------------------
      1        6           0.024332928   -0.062050386    0.007288292
      2        6           0.013784207   -0.049078651    0.004647236
      3        6          -0.050282991    0.017011850    0.008216916
      4        6           0.008665947    0.006648943    0.001720123
      5        6           0.015355754    0.052219270   -0.014745028
      6        1          -0.000879090    0.002036053   -0.000131264
      7       16          -0.006207811    0.029472125   -0.005346847
      8        1           0.002923144   -0.004162395    0.001232514
      9        6           0.055301296   -0.015305986    0.025065872
     10       16          -0.007824379   -0.016767730    0.010947150
     11        6           0.013753408   -0.003375274    0.037216828
     12        6          -0.027105442    0.027836768   -0.019045719
     13        6          -0.036686465    0.027635667   -0.040804099
     14        1          -0.005642839   -0.003584565   -0.000161003
     15       16           0.007004911    0.005799725   -0.022130405
     16        6          -0.053971223    0.011143514   -0.035145379
     17        6           0.038071124   -0.010178136    0.049558213
     18        1           0.002690025   -0.006771890    0.000523372
     19        1           0.004079859   -0.007982731   -0.002820870
     20        1          -0.000687497   -0.002543529    0.000254938
     21        1           0.003140574    0.002772182   -0.001534427
     22        1           0.000184560   -0.000774825   -0.004806411
 -------------------------------------------------------------------
 Cartesian Forces:  Max     0.062050386 RMS     0.023021027

 GradGradGradGradGradGradGradGradGradGradGradGradGradGradGradGradGradGrad
 Berny optimization.
 FormGI is forming the generalized inverse of G from B-inverse, IUseBI=4.
 Internal  Forces:  Max     0.071230862 RMS     0.014087936
 Search for a local minimum.
 Step number   1 out of a maximum of  127
 All quantities printed in internal units (Hartrees-Bohrs-Radians)
 Mixed Optimization -- RFO/linear search
 Second derivative matrix not updated -- first step.
 ITU=  0
     Eigenvalues ---    0.00935   0.00982   0.01058   0.01215   0.01241
     Eigenvalues ---    0.01276   0.01298   0.01422   0.01457   0.01492
     Eigenvalues ---    0.01498   0.01592   0.01594   0.01768   0.02197
     Eigenvalues ---    0.02650   0.07307   0.07353   0.15082   0.15686
     Eigenvalues ---    0.15735   0.15997   0.16000   0.16000   0.16000
     Eigenvalues ---    0.16000   0.17992   0.22443   0.22545   0.23320
     Eigenvalues ---    0.23978   0.24718   0.24978   0.24995   0.25000
     Eigenvalues ---    0.26147   0.26581   0.28363   0.30920   0.31297
     Eigenvalues ---    0.31534   0.33757   0.33818   0.34533   0.34822
     Eigenvalues ---    0.34935   0.35222   0.35877   0.35938   0.36006
     Eigenvalues ---    0.36102   0.36185   0.36325   0.37598   0.38280
     Eigenvalues ---    0.38438   0.39458   0.39674   0.406131000.00000
     Eigenvalues --- 1000.000001000.000001000.000001000.000001000.00000
     Eigenvalues --- 1000.000001000.000001000.000001000.000001000.00000
     Eigenvalues --- 1000.000001000.000001000.000001000.000001000.00000
     Eigenvalues --- 1000.000001000.000001000.000001000.000001000.00000
     Eigenvalues --- 1000.000001000.000001000.000001000.000001000.00000
     Eigenvalues --- 1000.000001000.000001000.000001000.000001000.00000
     Eigenvalues --- 1000.000001000.000001000.000001000.000001000.00000
     Eigenvalues --- 1000.000001000.000001000.000001000.000001000.00000
     Eigenvalues --- 1000.000001000.000001000.000001000.000001000.00000
     Eigenvalues --- 1000.000001000.000001000.000001000.000001000.00000
     Eigenvalues --- 1000.000001000.000001000.000001000.000001000.00000
     Eigenvalues --- 1000.000001000.00000
 RFO step:  Lambda=-6.07597342D-02 EMin= 9.35106172D-03
 Linear search not attempted -- first point.
 Maximum step size (   0.300) exceeded in Quadratic search.
    -- Step size scaled by   0.814
 Iteration  1 RMS(Cart)=  0.06770752 RMS(Int)=  0.00157967
 Iteration  2 RMS(Cart)=  0.00241864 RMS(Int)=  0.00047442
 Iteration  3 RMS(Cart)=  0.00000294 RMS(Int)=  0.00047442
 Iteration  4 RMS(Cart)=  0.00000000 RMS(Int)=  0.00047442
 Iteration  1 RMS(Cart)=  0.00000649 RMS(Int)=  0.00000280
 Iteration  2 RMS(Cart)=  0.00000355 RMS(Int)=  0.00000313
 Iteration  3 RMS(Cart)=  0.00000194 RMS(Int)=  0.00000353
 Iteration  4 RMS(Cart)=  0.00000106 RMS(Int)=  0.00000380
 Iteration  5 RMS(Cart)=  0.00000058 RMS(Int)=  0.00000396
 Variable       Old X    -DE/DX   Delta X   Delta X   Delta X     New X
                                 (Linear)    (Quad)   (Total)
    R1        2.71917  -0.01826   0.00000  -0.03448  -0.03444   2.68473
    R2        2.71391  -0.05666   0.00000  -0.10091  -0.10098   2.61293
    R3        2.03793   0.00193   0.00000   0.00372   0.00372   2.04164
    R4        2.75906  -0.06517   0.00000  -0.12369  -0.12358   2.63548
    R5        2.81042   0.00891   0.00000   0.01819   0.01819   2.82861
    R6        3.39578  -0.02758   0.00000  -0.06666  -0.06663   3.32915
    R7        2.74954  -0.01124   0.00000  -0.02095  -0.02095   2.72859
    R8        2.06439  -0.00085   0.00000  -0.00171  -0.00171   2.06268
    R9        2.05781   0.00259   0.00000   0.00513   0.00513   2.06294
   R10        2.07638  -0.00301   0.00000  -0.00614  -0.00614   2.07024
   R11        3.28671  -0.02301   0.00000  -0.04828  -0.04838   3.23834
   R12        2.04073  -0.00012   0.00000  -0.00023  -0.00023   2.04050
   R13        3.38237  -0.01759   0.00000  -0.03949  -0.03993   3.34243
   R14        2.76712  -0.07123   0.00000  -0.13612  -0.13638   2.63074
   R15        3.27014  -0.00602   0.00000  -0.01159  -0.01150   3.25865
   R16        2.72309  -0.03952   0.00000  -0.07415  -0.07330   2.64979
   R17        2.69505  -0.00278   0.00000  -0.00718  -0.00676   2.68829
   R18        2.70760  -0.01293   0.00000  -0.02509  -0.02485   2.68275
   R19        3.27406  -0.00465   0.00000  -0.00808  -0.00819   3.26587
   R20        2.03923   0.00165   0.00000   0.00319   0.00319   2.04241
   R21        3.33629  -0.01785   0.00000  -0.03862  -0.03910   3.29719
   R22        2.73061  -0.06580   0.00000  -0.11953  -0.11962   2.61099
   R23        2.04178  -0.00061   0.00000  -0.00118  -0.00118   2.04061
   R24        2.05316  -0.00375   0.00000  -0.00738  -0.00738   2.04578
    A1        1.97020   0.00688   0.00000   0.01426   0.01422   1.98442
    A2        2.17330  -0.00456   0.00000  -0.01126  -0.01124   2.16206
    A3        2.13967  -0.00232   0.00000  -0.00301  -0.00299   2.13668
    A4        1.97187  -0.00281   0.00000  -0.01146  -0.01134   1.96053
    A5        2.09905   0.01285   0.00000   0.03569   0.03562   2.13467
    A6        2.21227  -0.01004   0.00000  -0.02423  -0.02430   2.18797
    A7        1.90440   0.00672   0.00000   0.01900   0.01912   1.92352
    A8        2.31891  -0.01101   0.00000  -0.02954  -0.02960   2.28931
    A9        2.05972   0.00430   0.00000   0.01055   0.01048   2.07020
   A10        1.94548  -0.00398   0.00000  -0.01358  -0.01355   1.93194
   A11        1.93409   0.00383   0.00000   0.01342   0.01343   1.94753
   A12        1.93331   0.00198   0.00000   0.00690   0.00691   1.94022
   A13        1.87410   0.00043   0.00000   0.00231   0.00236   1.87646
   A14        1.86607   0.00174   0.00000   0.00776   0.00779   1.87386
   A15        1.90848  -0.00420   0.00000  -0.01749  -0.01751   1.89097
   A16        1.95339  -0.00257   0.00000  -0.00793  -0.00810   1.94529
   A17        2.17580   0.00652   0.00000   0.02326   0.02334   2.19914
   A18        2.15384  -0.00395   0.00000  -0.01532  -0.01523   2.13861
   A19        1.62490  -0.00822   0.00000  -0.01386  -0.01399   1.61090
   A20        2.12877  -0.00294   0.00000  -0.00744  -0.00753   2.12123
   A21        2.24047  -0.00506   0.00000  -0.01301  -0.01311   2.22736
   A22        1.91325   0.00809   0.00000   0.02127   0.02122   1.93448
   A23        1.61918  -0.00656   0.00000  -0.01327  -0.01289   1.60629
   A24        1.96147  -0.01076   0.00000  -0.02292  -0.02387   1.93761
   A25        2.23882   0.00861   0.00000   0.04030   0.03867   2.27749
   A26        1.96512   0.00594   0.00000   0.01565   0.01572   1.98084
   A27        1.96597   0.00801   0.00000   0.01945   0.01951   1.98548
   A28        1.96692  -0.01319   0.00000  -0.02922  -0.02977   1.93715
   A29        2.23739   0.00858   0.00000   0.03840   0.03687   2.27425
   A30        1.96417   0.00126   0.00000  -0.00417  -0.00373   1.96044
   A31        2.16079  -0.00496   0.00000  -0.01206  -0.01264   2.14815
   A32        2.14646   0.00424   0.00000   0.02206   0.02149   2.16795
   A33        1.59286   0.00074   0.00000   0.00431   0.00456   1.59742
   A34        1.96005   0.00162   0.00000   0.00297   0.00278   1.96283
   A35        2.13567  -0.00450   0.00000  -0.01195  -0.01279   2.12289
   A36        2.17009   0.00396   0.00000   0.01994   0.01923   2.18932
   A37        1.93949   0.00488   0.00000   0.00623   0.00664   1.94613
   A38        2.16494   0.00046   0.00000   0.01402   0.01262   2.17756
   A39        2.14228  -0.00344   0.00000  -0.00116  -0.00263   2.13965
    D1        0.00683  -0.00025   0.00000  -0.00398  -0.00394   0.00290
    D2       -3.13456   0.00028   0.00000   0.00214   0.00228  -3.13228
    D3       -3.13952  -0.00051   0.00000  -0.00639  -0.00641   3.13726
    D4        0.00227   0.00002   0.00000  -0.00028  -0.00020   0.00207
    D5       -0.00671  -0.00041   0.00000  -0.00495  -0.00495  -0.01166
    D6       -3.13020  -0.00051   0.00000  -0.00541  -0.00550  -3.13569
    D7        3.13954  -0.00015   0.00000  -0.00256  -0.00249   3.13705
    D8        0.01605  -0.00024   0.00000  -0.00303  -0.00303   0.01302
    D9       -0.00388   0.00083   0.00000   0.01077   0.01078   0.00690
   D10        3.11762   0.00124   0.00000   0.01118   0.01114   3.12876
   D11        3.13750   0.00026   0.00000   0.00419   0.00434  -3.14134
   D12       -0.02418   0.00067   0.00000   0.00459   0.00470  -0.01948
   D13        0.03777  -0.00017   0.00000  -0.00120  -0.00122   0.03655
   D14       -2.04840  -0.00065   0.00000  -0.00411  -0.00410  -2.05250
   D15        2.11332   0.00073   0.00000   0.00426   0.00423   2.11755
   D16       -3.10360   0.00044   0.00000   0.00582   0.00583  -3.09777
   D17        1.09342  -0.00004   0.00000   0.00291   0.00295   1.09637
   D18       -1.02805   0.00134   0.00000   0.01128   0.01128  -1.01677
   D19        0.00006  -0.00086   0.00000  -0.01146  -0.01150  -0.01145
   D20       -3.12486  -0.00100   0.00000  -0.01124  -0.01126  -3.13612
   D21       -0.78520  -0.00091   0.00000   0.00000   0.00000  -0.78520
   D22        2.31191   0.00203   0.00000   0.02689   0.02689   2.33880
   D23        2.33489  -0.00047   0.00000   0.00045   0.00041   2.33530
   D24       -0.85119   0.00248   0.00000   0.02734   0.02730  -0.82389
   D25        0.00376   0.00075   0.00000   0.00955   0.00938   0.01314
   D26        3.12751   0.00097   0.00000   0.01047   0.01037   3.13788
   D27        3.13752   0.00105   0.00000   0.01118   0.01126  -3.13440
   D28        0.03295  -0.00114   0.00000  -0.01053  -0.01085   0.02211
   D29       -3.13840  -0.00212   0.00000  -0.01896  -0.01877   3.12602
   D30       -0.15706   0.00208   0.00000   0.02260   0.02243  -0.13463
   D31       -0.03687   0.00034   0.00000   0.00476   0.00525  -0.03162
   D32        2.94447   0.00454   0.00000   0.04632   0.04645   2.99092
   D33       -0.02129   0.00211   0.00000   0.01484   0.01463  -0.00666
   D34       -2.61613  -0.00679   0.00000  -0.05730  -0.05773  -2.67386
   D35        0.00340  -0.00187   0.00000  -0.01392  -0.01371  -0.01031
   D36       -2.68861  -0.01063   0.00000  -0.07764  -0.07588  -2.76449
   D37        2.68708   0.00746   0.00000   0.05696   0.05571   2.74279
   D38       -0.00493  -0.00130   0.00000  -0.00676  -0.00646  -0.01140
   D39        2.61388   0.00585   0.00000   0.06883   0.07018   2.68405
   D40       -0.24676  -0.00082   0.00000  -0.00251  -0.00193  -0.24869
   D41        0.01995   0.00115   0.00000   0.00627   0.00609   0.02604
   D42       -2.84069  -0.00553   0.00000  -0.06507  -0.06602  -2.90670
   D43        0.02220   0.00100   0.00000   0.00558   0.00536   0.02757
   D44       -2.96066  -0.00218   0.00000  -0.03199  -0.03273  -2.99339
   D45        2.62845   0.00450   0.00000   0.05873   0.05988   2.68833
   D46       -0.35441   0.00132   0.00000   0.02116   0.02178  -0.33262
   D47       -0.00876   0.00113   0.00000   0.00458   0.00448  -0.00428
   D48       -2.61478  -0.00763   0.00000  -0.06066  -0.06052  -2.67529
   D49        0.02022  -0.00035   0.00000  -0.00075  -0.00084   0.01938
   D50        2.97049   0.00606   0.00000   0.06136   0.06065   3.03114
   D51       -0.02646  -0.00026   0.00000  -0.00273  -0.00246  -0.02893
   D52        2.83845   0.00702   0.00000   0.07037   0.07065   2.90911
   D53       -2.97230  -0.00572   0.00000  -0.06212  -0.06251  -3.03481
   D54       -0.10738   0.00156   0.00000   0.01099   0.01061  -0.09678
         Item               Value     Threshold  Converged?
 Maximum Force            0.071229     0.000450     NO 
 RMS     Force            0.014148     0.000300     NO 
 Maximum Displacement     0.208734     0.001800     NO 
 RMS     Displacement     0.068117     0.001200     NO 
 Predicted change in Energy=-3.355427D-02
 GradGradGradGradGradGradGradGradGradGradGradGradGradGradGradGradGradGrad

                          Input orientation:                          
 ---------------------------------------------------------------------
 Center     Atomic      Atomic             Coordinates (Angstroms)
 Number     Number       Type             X           Y           Z
 ---------------------------------------------------------------------
      1          6           0       -4.199545   -1.411276   -0.216116
      2          6           0       -2.899189   -0.995664   -0.609467
      3          6           0       -1.982335   -2.046541   -0.602677
      4          6           0       -2.588634    0.422562   -0.973761
      5          6           0       -4.283567   -2.756613    0.091905
      6          1           0       -5.050149   -0.748210   -0.152397
      7         16           0       -2.774223   -3.541935   -0.112446
      8          1           0       -5.173159   -3.281227    0.407100
      9          6           0       -0.578643   -2.085431   -0.938841
     10         16           0        0.047439   -1.291648   -2.390176
     11          6           0        1.658508   -1.803676   -2.049812
     12          6           0        1.709518   -2.547290   -0.862115
     13          6           0        0.450217   -2.690804   -0.222605
     14          1           0        0.313543   -3.114384    0.762294
     15         16           0        3.305980   -2.548014   -0.200247
     16          6           0        3.900717   -1.563761   -1.512441
     17          6           0        2.907202   -1.225835   -2.411195
     18          1           0        4.908037   -1.174728   -1.517134
     19          1           0        3.037490   -0.457787   -3.162929
     20          1           0       -3.471366    1.053478   -0.854786
     21          1           0       -2.261155    0.508125   -2.011625
     22          1           0       -1.803689    0.833659   -0.329527
 ---------------------------------------------------------------------
                    Distance matrix (angstroms):
                    1          2          3          4          5
     1  C    0.000000
     2  C    1.420699   0.000000
     3  C    2.338592   1.394636   0.000000
     4  C    2.555783   1.496837   2.569391   0.000000
     5  C    1.382703   2.347204   2.506454   3.757073   0.000000
     6  H    1.080391   2.212866   3.361532   2.846824   2.163565
     7  S    2.565540   2.597334   1.761709   4.061225   1.713653
     8  H    2.198418   3.380555   3.567276   4.722775   1.079788
     9  C    3.753365   2.584765   1.443908   3.214236   3.903765
    10  S    4.772601   3.455596   2.808024   3.448714   5.202351
    11  C    6.150870   4.847688   3.925420   4.914493   6.387745
    12  C    6.051848   4.869451   3.734680   5.225571   6.072152
    13  C    4.822605   3.773816   2.544964   4.414964   4.744677
    14  H    4.921974   4.085627   2.876542   4.893517   4.659489
    15  S    7.591135   6.409476   5.327261   6.645986   7.598032
    16  C    8.204752   6.883082   5.972524   6.807887   8.424922
    17  C    7.440337   6.083862   5.277487   5.915036   7.766334
    18  H    9.203078   7.861851   7.005249   7.684183   9.464510
    19  H    7.871946   6.484878   5.854714   6.100880   8.335252
    20  H    2.648237   2.141623   3.448317   1.091524   4.009076
    21  H    3.265778   2.152792   2.930732   1.091662   4.378755
    22  H    3.285228   2.150560   2.898633   1.095525   4.383771
                    6          7          8          9         10
     6  H    0.000000
     7  S    3.603656   0.000000
     8  H    2.596988   2.468357   0.000000
     9  C    4.732972   2.761323   4.934679   0.000000
    10  S    5.593602   4.267742   6.248025   1.768740   0.000000
    11  C    7.051261   5.140432   7.408863   2.513660   1.724402
    12  C    7.030895   4.653521   7.037102   2.335569   2.583430
    13  C    5.833750   3.336701   5.689243   1.392130   2.611174
    14  H    5.933349   3.237633   5.500718   2.179129   3.651197
    15  S    8.547894   6.161531   8.532425   3.981182   4.122176
    16  C    9.090261   7.101267   9.432367   4.545968   3.961340
    17  C    8.285514   6.551882   8.801117   3.880445   2.860598
    18  H   10.060313   8.160511  10.477143   5.591732   4.939765
    19  H    8.634672   7.252133   9.387847   4.546671   3.198887
    20  H    2.496395   4.706899   4.824741   4.269386   4.498781
    21  H    3.579608   4.502566   5.356229   3.272345   2.951625
    22  H    3.615687   4.487192   5.369194   3.223831   3.491401
                   11         12         13         14         15
    11  C    0.000000
    12  C    1.402208   0.000000
    13  C    2.363398   1.419651   0.000000
    14  H    3.381542   2.215637   1.080799   0.000000
    15  S    2.586328   1.728225   2.859418   3.194048   0.000000
    16  C    2.318152   2.488294   3.852253   4.521799   1.744798
    17  C    1.422580   2.362274   3.601783   4.512729   2.606813
    18  H    3.352426   3.541680   4.883283   5.483378   2.487306
    19  H    2.225318   3.379834   4.508421   5.466697   3.635742
    20  H    5.992247   6.309290   5.458765   5.857607   7.702700
    21  H    4.550785   5.140348   4.559088   5.238919   6.604095
    22  H    4.679928   4.904803   4.184898   4.611051   6.128715
                   16         17         18         19         20
    16  C    0.000000
    17  C    1.381674   0.000000
    18  H    1.079844   2.192098   0.000000
    19  H    2.166206   1.082579   2.592603   0.000000
    20  H    7.850481   6.950094   8.695861   7.069416   0.000000
    21  H    6.520012   5.466095   7.380639   5.507643   1.760766
    22  H    6.299774   5.546833   7.105722   5.756128   1.762204
                   21         22
    21  H    0.000000
    22  H    1.773330   0.000000
 Stoichiometry    C11H8S3
 Framework group  C1[X(C11H8S3)]
 Deg. of freedom    60
 Full point group                 C1      NOp   1
 Largest Abelian subgroup         C1      NOp   1
 Largest concise Abelian subgroup C1      NOp   1
                         Standard orientation:                         
 ---------------------------------------------------------------------
 Center     Atomic      Atomic             Coordinates (Angstroms)
 Number     Number       Type             X           Y           Z
 ---------------------------------------------------------------------
      1          6           0       -3.962364    0.397089    0.424274
      2          6           0       -2.615185    0.844799    0.479485
      3          6           0       -1.718602   -0.113342    0.007137
      4          6           0       -2.242374    2.197229    1.001467
      5          6           0       -4.102241   -0.883654   -0.077723
      6          1           0       -4.807114    0.988154    0.747204
      7         16           0       -2.586542   -1.556930   -0.508959
      8          1           0       -5.032716   -1.415116   -0.210786
      9          6           0       -0.281595   -0.084138   -0.130795
     10         16           0        0.553868    1.316713   -0.814945
     11          6           0        2.094493    0.563520   -0.634018
     12          6           0        1.967415   -0.710298   -0.061806
     13          6           0        0.628014   -1.070062    0.241482
     14          1           0        0.347315   -1.950115    0.802589
     15         16           0        3.452129   -1.212938    0.666028
     16          6           0        4.238343    0.272898    0.198613
     17          6           0        3.387459    1.133205   -0.468388
     18          1           0        5.239446    0.511166    0.525849
     19          1           0        3.631527    2.172680   -0.646993
     20          1           0       -3.127155    2.734080    1.348426
     21          1           0       -1.768381    2.808398    0.231060
     22          1           0       -1.554371    2.117770    1.850298
 ---------------------------------------------------------------------
 Rotational constants (GHZ):           1.2441089           0.2787930           0.2446416
 Standard basis: 6-311+G(d,p) (5D, 7F)
 There are   394 symmetry adapted cartesian basis functions of A   symmetry.
 There are   380 symmetry adapted basis functions of A   symmetry.
   380 basis functions,   610 primitive gaussians,   394 cartesian basis functions
    61 alpha electrons       61 beta electrons
       nuclear repulsion energy      1124.2155086046 Hartrees.
 NAtoms=   22 NActive=   22 NUniq=   22 SFac= 1.00D+00 NAtFMM=   60 NAOKFM=F Big=F
 Integral buffers will be    131072 words long.
 Raffenetti 2 integral format.
 Two-electron integral symmetry is turned on.
 Nuclear repulsion after empirical dispersion term =     1124.2030652219 Hartrees.
 One-electron integrals computed using PRISM.
 NBasis=   380 RedAO= T EigKep=  2.44D-06  NBF=   380
 NBsUse=   378 1.00D-06 EigRej=  7.51D-07 NBFU=   378
 Initial guess from the checkpoint file:  "/tmp/pbs.4762230[130].pbs/Gau-956005.chk"
 B after Tr=     0.000000   -0.000000   -0.000000
         Rot=    0.999990   -0.003047   -0.001099    0.003026 Ang=  -0.51 deg.
 ExpMin= 4.05D-02 ExpMax= 9.34D+04 ExpMxC= 3.17D+03 IAcc=3 IRadAn=         5 AccDes= 0.00D+00
 Harris functional with IExCor= 4639 and IRadAn=       5 diagonalized for initial guess.
 HarFok:  IExCor= 4639 AccDes= 0.00D+00 IRadAn=         5 IDoV= 1 UseB2=F ITyADJ=14
 ICtDFT=  3500011 ScaDFX=  1.000000  1.000000  1.000000  1.000000
 FoFCou: FMM=F IPFlag=           0 FMFlag=      100000 FMFlg1=           0
         NFxFlg=           0 DoJE=T BraDBF=F KetDBF=T FulRan=T
         wScrn=  0.000000 ICntrl=       500 IOpCl=  0 I1Cent=   200000004 NGrid=           0
         NMat0=    1 NMatS0=      1 NMatT0=    0 NMatD0=    1 NMtDS0=    0 NMtDT0=    0
 Petite list used in FoFCou.
 Requested convergence on RMS density matrix=1.00D-08 within 128 cycles.
 Requested convergence on MAX density matrix=1.00D-06.
 Requested convergence on             energy=1.00D-06.
 No special actions if energy rises.
 SCF Done:  E(RwB97XD) =  -1618.49549652     A.U. after   15 cycles
            NFock= 15  Conv=0.99D-08     -V/T= 2.0022
 Calling FoFJK, ICntrl=      2127 FMM=F ISym2X=0 I1Cent= 0 IOpClX= 0 NMat=1 NMatS=1 NMatT=0.
 ***** Axes restored to original set *****
 -------------------------------------------------------------------
 Center     Atomic                   Forces (Hartrees/Bohr)
 Number     Number              X              Y              Z
 -------------------------------------------------------------------
      1        6           0.001227157   -0.021401866    0.004787804
      2        6           0.009087630   -0.012477169   -0.001099130
      3        6          -0.025237202   -0.000402809    0.004073832
      4        6           0.002505369    0.003620002    0.000907732
      5        6           0.001743490    0.019913033   -0.005204144
      6        1          -0.000434768    0.001767699   -0.000212350
      7       16           0.002256203    0.008276189   -0.002114062
      8        1           0.002007739   -0.002617377    0.000755699
      9        6           0.027218617   -0.002999194    0.006861862
     10       16          -0.007438313   -0.008061374   -0.000066213
     11        6           0.003272402    0.001761986    0.018120352
     12        6          -0.004368064    0.016583459   -0.007054703
     13        6          -0.015963970    0.007299214   -0.012081783
     14        1          -0.002282224   -0.003095415   -0.000987148
     15       16           0.007904481   -0.002678546   -0.005943871
     16        6          -0.020255554    0.005947428   -0.011239016
     17        6           0.014779321   -0.000462241    0.015967739
     18        1           0.001839307   -0.005066768    0.000725881
     19        1           0.001319215   -0.005445784   -0.004094817
     20        1          -0.000541666   -0.000798118    0.000101873
     21        1           0.000812758    0.001125287    0.000056246
     22        1           0.000548073   -0.000787635   -0.002261783
 -------------------------------------------------------------------
 Cartesian Forces:  Max     0.027218617 RMS     0.008898159

 GradGradGradGradGradGradGradGradGradGradGradGradGradGradGradGradGradGrad
 Berny optimization.
 Using GEDIIS/GDIIS optimizer.
 FormGI is forming the generalized inverse of G from B-inverse, IUseBI=4.
 Internal  Forces:  Max     0.022501110 RMS     0.004626293
 Search for a local minimum.
 Step number   2 out of a maximum of  127
 All quantities printed in internal units (Hartrees-Bohrs-Radians)
 Mixed Optimization -- RFO/linear search
 Update second derivatives using D2CorX and points    1    2
 DE= -3.40D-02 DEPred=-3.36D-02 R= 1.01D+00
 TightC=F SS=  1.41D+00  RLast= 3.72D-01 DXNew= 5.0454D-01 1.1170D+00
 Trust test= 1.01D+00 RLast= 3.72D-01 DXMaxT set to 5.05D-01
 ITU=  1  0
 Use linear search instead of GDIIS.
     Eigenvalues ---    0.00935   0.00982   0.01050   0.01209   0.01240
     Eigenvalues ---    0.01271   0.01291   0.01379   0.01462   0.01479
     Eigenvalues ---    0.01499   0.01585   0.01592   0.01703   0.02025
     Eigenvalues ---    0.02314   0.07232   0.07375   0.15505   0.15740
     Eigenvalues ---    0.15854   0.15960   0.15999   0.16000   0.16000
     Eigenvalues ---    0.16016   0.18860   0.22460   0.22546   0.23456
     Eigenvalues ---    0.24275   0.24702   0.24974   0.24997   0.25110
     Eigenvalues ---    0.25797   0.26484   0.28283   0.30954   0.30991
     Eigenvalues ---    0.31414   0.33662   0.33815   0.34530   0.34641
     Eigenvalues ---    0.34940   0.35223   0.35662   0.35938   0.36006
     Eigenvalues ---    0.36083   0.36104   0.36202   0.36964   0.38221
     Eigenvalues ---    0.38986   0.39491   0.40440   0.429981000.00000
     Eigenvalues --- 1000.000001000.000001000.000001000.000001000.00000
     Eigenvalues --- 1000.000001000.000001000.000001000.000001000.00000
     Eigenvalues --- 1000.000001000.000001000.000001000.000001000.00000
     Eigenvalues --- 1000.000001000.000001000.000001000.000001000.00000
     Eigenvalues --- 1000.000001000.000001000.000001000.000001000.00000
     Eigenvalues --- 1000.000001000.000001000.000001000.000001000.00000
     Eigenvalues --- 1000.000001000.000001000.000001000.000001000.00000
     Eigenvalues --- 1000.000001000.000001000.000001000.000001000.00000
     Eigenvalues --- 1000.000001000.000001000.000001000.000001000.00000
     Eigenvalues --- 1000.000001000.000001000.000001000.000001000.00000
     Eigenvalues --- 1000.000001000.000001000.000001000.000001000.00000
     Eigenvalues --- 1000.000001000.00000
 RFO step:  Lambda=-6.86962319D-03 EMin= 9.34897470D-03
 Quartic linear search produced a step of  0.43272.
 Iteration  1 RMS(Cart)=  0.09505889 RMS(Int)=  0.00683456
 Iteration  2 RMS(Cart)=  0.00918027 RMS(Int)=  0.00219595
 Iteration  3 RMS(Cart)=  0.00004375 RMS(Int)=  0.00219559
 Iteration  4 RMS(Cart)=  0.00000004 RMS(Int)=  0.00219559
 Iteration  1 RMS(Cart)=  0.00000437 RMS(Int)=  0.00000190
 Iteration  2 RMS(Cart)=  0.00000239 RMS(Int)=  0.00000212
 Iteration  3 RMS(Cart)=  0.00000131 RMS(Int)=  0.00000239
 Iteration  4 RMS(Cart)=  0.00000072 RMS(Int)=  0.00000258
 Variable       Old X    -DE/DX   Delta X   Delta X   Delta X     New X
                                 (Linear)    (Quad)   (Total)
    R1        2.68473   0.00024  -0.01490   0.02122   0.00633   2.69106
    R2        2.61293  -0.01759  -0.04370  -0.00006  -0.04382   2.56911
    R3        2.04164   0.00142   0.00161   0.00312   0.00473   2.04637
    R4        2.63548  -0.01749  -0.05348   0.01063  -0.04277   2.59271
    R5        2.82861   0.00398   0.00787   0.00487   0.01274   2.84135
    R6        3.32915  -0.01059  -0.02883  -0.00987  -0.03866   3.29049
    R7        2.72859   0.00571  -0.00906   0.03397   0.02491   2.75350
    R8        2.06268  -0.00001  -0.00074   0.00102   0.00028   2.06296
    R9        2.06294   0.00028   0.00222  -0.00210   0.00012   2.06306
   R10        2.07024  -0.00123  -0.00265  -0.00119  -0.00384   2.06640
   R11        3.23834  -0.00338  -0.02093   0.01644  -0.00455   3.23378
   R12        2.04050  -0.00016  -0.00010  -0.00048  -0.00058   2.03992
   R13        3.34243  -0.00639  -0.01728   0.00288  -0.01679   3.32564
   R14        2.63074  -0.02250  -0.05901   0.00262  -0.05798   2.57277
   R15        3.25865   0.00245  -0.00497   0.01620   0.01193   3.27058
   R16        2.64979  -0.01259  -0.03172  -0.01126  -0.03871   2.61108
   R17        2.68829   0.00176  -0.00293   0.00658   0.00525   2.69354
   R18        2.68275   0.00068  -0.01075   0.01407   0.00452   2.68727
   R19        3.26587   0.00216  -0.00354   0.01391   0.01009   3.27597
   R20        2.04241   0.00060   0.00138   0.00034   0.00172   2.04413
   R21        3.29719  -0.00601  -0.01692   0.00460  -0.01432   3.28287
   R22        2.61099  -0.02007  -0.05176   0.00420  -0.04813   2.56286
   R23        2.04061  -0.00011  -0.00051   0.00029  -0.00021   2.04039
   R24        2.04578  -0.00086  -0.00319   0.00121  -0.00198   2.04379
    A1        1.98442   0.00058   0.00615  -0.00843  -0.00233   1.98209
    A2        2.16206  -0.00148  -0.00486  -0.00263  -0.00747   2.15459
    A3        2.13668   0.00090  -0.00129   0.01108   0.00981   2.14649
    A4        1.96053  -0.00146  -0.00491  -0.00146  -0.00639   1.95415
    A5        2.13467   0.00349   0.01541  -0.00449   0.01078   2.14544
    A6        2.18797  -0.00203  -0.01052   0.00582  -0.00484   2.18313
    A7        1.92352   0.00320   0.00827   0.00544   0.01380   1.93732
    A8        2.28931  -0.00414  -0.01281  -0.00304  -0.01592   2.27339
    A9        2.07020   0.00095   0.00454  -0.00223   0.00224   2.07244
   A10        1.93194  -0.00139  -0.00586   0.00051  -0.00533   1.92661
   A11        1.94753   0.00157   0.00581   0.00122   0.00705   1.95457
   A12        1.94022   0.00042   0.00299  -0.00207   0.00093   1.94115
   A13        1.87646   0.00003   0.00102  -0.00129  -0.00024   1.87621
   A14        1.87386   0.00106   0.00337   0.00577   0.00915   1.88301
   A15        1.89097  -0.00173  -0.00758  -0.00403  -0.01160   1.87937
   A16        1.94529   0.00009  -0.00350   0.00584   0.00218   1.94748
   A17        2.19914   0.00334   0.01010   0.01075   0.02087   2.22002
   A18        2.13861  -0.00342  -0.00659  -0.01635  -0.02292   2.11569
   A19        1.61090  -0.00241  -0.00606  -0.00133  -0.00742   1.60348
   A20        2.12123  -0.00089  -0.00326  -0.00062  -0.00428   2.11695
   A21        2.22736  -0.00233  -0.00567  -0.00480  -0.01087   2.21650
   A22        1.93448   0.00326   0.00918   0.00605   0.01457   1.94905
   A23        1.60629  -0.00233  -0.00558  -0.00855  -0.01187   1.59443
   A24        1.93761  -0.00283  -0.01033   0.00970  -0.00337   1.93424
   A25        2.27749   0.00453   0.01673   0.04538   0.05186   2.32935
   A26        1.98084   0.00083   0.00680  -0.00216   0.00378   1.98462
   A27        1.98548   0.00069   0.00844  -0.00539   0.00217   1.98765
   A28        1.93715  -0.00274  -0.01288   0.01459  -0.00071   1.93644
   A29        2.27425   0.00442   0.01595   0.04368   0.04965   2.32390
   A30        1.96044   0.00124  -0.00161  -0.00124  -0.00114   1.95929
   A31        2.14815  -0.00195  -0.00547   0.00517  -0.00332   2.14482
   A32        2.16795   0.00103   0.00930   0.00452   0.01079   2.17874
   A33        1.59742  -0.00160   0.00197  -0.01778  -0.01311   1.58430
   A34        1.96283   0.00263   0.00120   0.01638   0.01626   1.97909
   A35        2.12289  -0.00456  -0.00553  -0.01870  -0.02904   2.09385
   A36        2.18932   0.00251   0.00832   0.01736   0.02082   2.21013
   A37        1.94613   0.00089   0.00287  -0.01043  -0.00590   1.94023
   A38        2.17756  -0.00026   0.00546   0.00882   0.00747   2.18503
   A39        2.13965   0.00038  -0.00114   0.02483   0.01696   2.15661
    D1        0.00290  -0.00023  -0.00170  -0.01454  -0.01618  -0.01328
    D2       -3.13228   0.00031   0.00099   0.00746   0.00863  -3.12365
    D3        3.13726  -0.00034  -0.00277  -0.01116  -0.01401   3.12325
    D4        0.00207   0.00020  -0.00008   0.01083   0.01080   0.01288
    D5       -0.01166   0.00003  -0.00214   0.01195   0.00982  -0.00184
    D6       -3.13569  -0.00033  -0.00238  -0.00349  -0.00611   3.14139
    D7        3.13705   0.00015  -0.00108   0.00869   0.00774  -3.13839
    D8        0.01302  -0.00021  -0.00131  -0.00674  -0.00818   0.00483
    D9        0.00690   0.00036   0.00466   0.01034   0.01499   0.02189
   D10        3.12876   0.00109   0.00482   0.02121   0.02593  -3.12850
   D11       -3.14134  -0.00018   0.00188  -0.01250  -0.01039   3.13146
   D12       -0.01948   0.00055   0.00204  -0.00163   0.00055  -0.01893
   D13        0.03655  -0.00008  -0.00053   0.00947   0.00890   0.04545
   D14       -2.05250  -0.00023  -0.00177   0.00995   0.00815  -2.04435
   D15        2.11755   0.00061   0.00183   0.01569   0.01748   2.13503
   D16       -3.09777   0.00053   0.00252   0.03445   0.03701  -3.06076
   D17        1.09637   0.00038   0.00128   0.03493   0.03626   1.13262
   D18       -1.01677   0.00122   0.00488   0.04067   0.04559  -0.97118
   D19       -0.01145  -0.00028  -0.00498  -0.00316  -0.00820  -0.01965
   D20       -3.13612  -0.00084  -0.00487  -0.01245  -0.01746   3.12960
   D21       -0.78520  -0.00147   0.00000   0.00000   0.00000  -0.78520
   D22        2.33880   0.00117   0.01164   0.04926   0.06100   2.39980
   D23        2.33530  -0.00066   0.00018   0.01168   0.01173   2.34703
   D24       -0.82389   0.00198   0.01181   0.06094   0.07273  -0.75116
   D25        0.01314   0.00014   0.00406  -0.00490  -0.00102   0.01212
   D26        3.13788   0.00056   0.00449   0.01022   0.01431  -3.13099
   D27       -3.13440   0.00110   0.00487   0.02597   0.03098  -3.10342
   D28        0.02211  -0.00109  -0.00469  -0.01569  -0.02123   0.00087
   D29        3.12602  -0.00149  -0.00812  -0.02607  -0.03376   3.09226
   D30       -0.13463   0.00157   0.00971   0.04958   0.05908  -0.07555
   D31       -0.03162   0.00089   0.00227   0.01881   0.02219  -0.00943
   D32        2.99092   0.00395   0.02010   0.09445   0.11503   3.10595
   D33       -0.00666   0.00110   0.00633   0.00836   0.01474   0.00808
   D34       -2.67386  -0.00517  -0.02498  -0.12453  -0.15245  -2.82631
   D35       -0.01031  -0.00069  -0.00593   0.00096  -0.00479  -0.01510
   D36       -2.76449  -0.00680  -0.03283  -0.12167  -0.14842  -2.91291
   D37        2.74279   0.00575   0.02411   0.12312   0.14163   2.88442
   D38       -0.01140  -0.00037  -0.00280   0.00049  -0.00200  -0.01339
[...]
     15         16           0        3.509212   -1.237404    0.540277
     16          6           0        4.288445    0.182755   -0.086755
     17          6           0        3.415808    1.133289   -0.514328
     18          1           0        5.367109    0.227932   -0.103777
     19          1           0        3.718834    2.081384   -0.935565
     20          1           0       -3.186555    2.509451    1.587000
     21          1           0       -2.339217    2.914231    0.093854
     22          1           0       -1.446895    2.222867    1.450305
 ---------------------------------------------------------------------
 Rotational constants (GHZ):           1.2744266           0.2787172           0.2412681

 **********************************************************************

            Population analysis using the SCF Density.

 **********************************************************************

 Orbital symmetries:
       Occupied  (A) (A) (A) (A) (A) (A) (A) (A) (A) (A) (A) (A)
                 (A) (A) (A) (A) (A) (A) (A) (A) (A) (A) (A) (A)
                 (A) (A) (A) (A) (A) (A) (A) (A) (A) (A) (A) (A)
                 (A) (A) (A) (A) (A) (A) (A) (A) (A) (A) (A) (A)
                 (A) (A) (A) (A) (A) (A) (A) (A) (A) (A) (A) (A)
                 (A)
       Virtual   (A) (A) (A) (A) (A) (A) (A) (A) (A) (A) (A) (A)
                 (A) (A) (A) (A) (A) (A) (A) (A) (A) (A) (A) (A)
                 (A) (A) (A) (A) (A) (A) (A) (A) (A) (A) (A) (A)
                 (A) (A) (A) (A) (A) (A) (A) (A) (A) (A) (A) (A)
                 (A) (A) (A) (A) (A) (A) (A) (A) (A) (A) (A) (A)
                 (A) (A) (A) (A) (A) (A) (A) (A) (A) (A) (A) (A)
                 (A) (A) (A) (A) (A) (A) (A) (A) (A) (A) (A) (A)
                 (A) (A) (A) (A) (A) (A) (A) (A) (A) (A) (A) (A)
                 (A) (A) (A) (A) (A) (A) (A) (A) (A) (A) (A) (A)
                 (A) (A) (A) (A) (A) (A) (A) (A) (A) (A) (A) (A)
                 (A) (A) (A) (A) (A) (A) (A) (A) (A) (A) (A) (A)
                 (A) (A) (A) (A) (A) (A) (A) (A) (A) (A) (A) (A)
                 (A) (A) (A) (A) (A) (A) (A) (A) (A) (A) (A) (A)
                 (A) (A) (A) (A) (A) (A) (A) (A) (A) (A) (A) (A)
                 (A) (A) (A) (A) (A) (A) (A) (A) (A) (A) (A) (A)
                 (A) (A) (A) (A) (A) (A) (A) (A) (A) (A) (A) (A)
                 (A) (A) (A) (A) (A) (A) (A) (A) (A) (A) (A) (A)
                 (A) (A) (A) (A) (A) (A) (A) (A) (A) (A) (A) (A)
                 (A) (A) (A) (A) (A) (A) (A) (A) (A) (A) (A) (A)
                 (A) (A) (A) (A) (A) (A) (A) (A) (A) (A) (A) (A)
                 (A) (A) (A) (A) (A) (A) (A) (A) (A) (A) (A) (A)
                 (A) (A) (A) (A) (A) (A) (A) (A) (A) (A) (A) (A)
                 (A) (A) (A) (A) (A) (A) (A) (A) (A) (A) (A) (A)
                 (A) (A) (A) (A) (A) (A) (A) (A) (A) (A) (A) (A)
                 (A) (A) (A) (A) (A) (A) (A) (A) (A) (A) (A) (A)
                 (A) (A) (A) (A) (A) (A) (A) (A) (A) (A) (A) (A)
                 (A) (A) (A) (A) (A)
 The electronic state is 1-A.
 Alpha  occ. eigenvalues --  -89.05089 -89.05069 -89.04720 -10.33767 -10.32709
 Alpha  occ. eigenvalues --  -10.32436 -10.32374 -10.32351 -10.31706 -10.30554
 Alpha  occ. eigenvalues --  -10.30458 -10.30449 -10.29231 -10.28563  -8.09134
 Alpha  occ. eigenvalues --   -8.09116  -8.08805  -6.03983  -6.03972  -6.03634
 Alpha  occ. eigenvalues --   -6.03610  -6.03598  -6.03249  -6.03197  -6.03161
 Alpha  occ. eigenvalues --   -6.02911  -1.02250  -0.99694  -0.95311  -0.87615
 Alpha  occ. eigenvalues --   -0.87167  -0.85571  -0.81085  -0.80201  -0.77625
 Alpha  occ. eigenvalues --   -0.70603  -0.66878  -0.66020  -0.62728  -0.61098
 Alpha  occ. eigenvalues --   -0.58848  -0.58497  -0.52849  -0.52348  -0.52239
 Alpha  occ. eigenvalues --   -0.50607  -0.50085  -0.48011  -0.47505  -0.47094
 Alpha  occ. eigenvalues --   -0.46318  -0.45413  -0.44807  -0.42986  -0.42395
 Alpha  occ. eigenvalues --   -0.41898  -0.37024  -0.33550  -0.32669  -0.30835
 Alpha  occ. eigenvalues --   -0.28096
 Alpha virt. eigenvalues --    0.01062   0.05182   0.05546   0.05947   0.06515
 Alpha virt. eigenvalues --    0.06711   0.07204   0.07336   0.08197   0.08724
 Alpha virt. eigenvalues --    0.09141   0.09411   0.09685   0.09838   0.10728
 Alpha virt. eigenvalues --    0.10891   0.11079   0.11614   0.12223   0.12637
 Alpha virt. eigenvalues --    0.12928   0.13123   0.13801   0.14081   0.14346
 Alpha virt. eigenvalues --    0.14995   0.15625   0.15805   0.16571   0.17361
 Alpha virt. eigenvalues --    0.17515   0.17780   0.18797   0.18907   0.19450
 Alpha virt. eigenvalues --    0.19803   0.20102   0.20515   0.20976   0.21657
 Alpha virt. eigenvalues --    0.21855   0.22419   0.22643   0.23202   0.23375
 Alpha virt. eigenvalues --    0.23871   0.24288   0.24537   0.24750   0.24965
 Alpha virt. eigenvalues --    0.24982   0.25934   0.26393   0.26896   0.26981
 Alpha virt. eigenvalues --    0.27531   0.27732   0.28278   0.28407   0.29042
 Alpha virt. eigenvalues --    0.29511   0.29801   0.30128   0.31086   0.31246
 Alpha virt. eigenvalues --    0.31500   0.32317   0.32866   0.33342   0.33912
 Alpha virt. eigenvalues --    0.35527   0.36031   0.36632   0.37047   0.37708
 Alpha virt. eigenvalues --    0.38192   0.40272   0.40776   0.41163   0.41731
 Alpha virt. eigenvalues --    0.42387   0.43132   0.43728   0.45387   0.46181
 Alpha virt. eigenvalues --    0.47420   0.49812   0.50470   0.51124   0.52460
 Alpha virt. eigenvalues --    0.52861   0.54329   0.54957   0.57366   0.58139
 Alpha virt. eigenvalues --    0.58700   0.60198   0.61781   0.63280   0.63673
 Alpha virt. eigenvalues --    0.64453   0.64618   0.66149   0.66546   0.67273
 Alpha virt. eigenvalues --    0.67503   0.69132   0.70316   0.70566   0.71238
 Alpha virt. eigenvalues --    0.72102   0.73308   0.74244   0.74525   0.75547
 Alpha virt. eigenvalues --    0.77358   0.77531   0.78632   0.79343   0.80124
 Alpha virt. eigenvalues --    0.81021   0.81450   0.82358   0.83206   0.83926
 Alpha virt. eigenvalues --    0.84813   0.85417   0.85838   0.86686   0.87218
 Alpha virt. eigenvalues --    0.88064   0.89525   0.90662   0.90804   0.91416
 Alpha virt. eigenvalues --    0.91764   0.92351   0.93183   0.94047   0.95591
 Alpha virt. eigenvalues --    0.96414   0.97760   0.98182   0.98736   1.00749
 Alpha virt. eigenvalues --    1.02636   1.02912   1.04136   1.05288   1.06083
 Alpha virt. eigenvalues --    1.06414   1.06749   1.10360   1.11497   1.12237
 Alpha virt. eigenvalues --    1.12514   1.14000   1.14963   1.15715   1.16990
 Alpha virt. eigenvalues --    1.17182   1.19971   1.20709   1.22692   1.24737
 Alpha virt. eigenvalues --    1.27087   1.29641   1.30854   1.35787   1.42031
 Alpha virt. eigenvalues --    1.43085   1.44262   1.44936   1.46615   1.47345
 Alpha virt. eigenvalues --    1.51779   1.56239   1.56379   1.60071   1.62731
 Alpha virt. eigenvalues --    1.63721   1.64753   1.65616   1.67323   1.67592
 Alpha virt. eigenvalues --    1.68588   1.69012   1.69569   1.71023   1.73948
 Alpha virt. eigenvalues --    1.74785   1.76767   1.77907   1.80303   1.80864
 Alpha virt. eigenvalues --    1.82034   1.83646   1.83923   1.84914   1.86017
 Alpha virt. eigenvalues --    1.86560   1.89656   1.90612   1.92392   1.93552
 Alpha virt. eigenvalues --    1.94974   1.96547   1.98284   1.99618   2.00671
 Alpha virt. eigenvalues --    2.02055   2.05119   2.05821   2.07687   2.09332
 Alpha virt. eigenvalues --    2.11117   2.11540   2.13289   2.15164   2.16291
 Alpha virt. eigenvalues --    2.17572   2.18344   2.19744   2.20980   2.21565
 Alpha virt. eigenvalues --    2.22359   2.24343   2.25026   2.27775   2.27990
 Alpha virt. eigenvalues --    2.30305   2.34346   2.40149   2.42446   2.46901
 Alpha virt. eigenvalues --    2.50519   2.52024   2.53370   2.54776   2.58092
 Alpha virt. eigenvalues --    2.62223   2.63334   2.65515   2.69400   2.70795
 Alpha virt. eigenvalues --    2.72280   2.73754   2.76356   2.79735   2.80906
 Alpha virt. eigenvalues --    2.81580   2.82396   2.83707   2.83969   2.84740
 Alpha virt. eigenvalues --    2.86992   2.89359   2.94154   2.94509   2.99526
 Alpha virt. eigenvalues --    3.00368   3.02115   3.05502   3.06103   3.13128
 Alpha virt. eigenvalues --    3.14163   3.16636   3.17410   3.23316   3.25536
 Alpha virt. eigenvalues --    3.28963   3.32622   3.40424   3.40971   3.44282
 Alpha virt. eigenvalues --    3.46086   3.53511   3.55016   3.58223   3.63853
 Alpha virt. eigenvalues --    3.67839   3.80521   3.90588   3.92771   4.04831
 Alpha virt. eigenvalues --    4.07942   4.16534   4.23480   4.43930   4.46689
 Alpha virt. eigenvalues --    4.63696   8.10686   8.12095   8.12894  17.42191
 Alpha virt. eigenvalues --   17.43574  17.45019  17.59860  17.61662  17.65826
 Alpha virt. eigenvalues --   17.66426  17.69116  17.71459  23.60686  23.77168
 Alpha virt. eigenvalues --   23.90867  23.94518  23.98194  24.09102  24.17542
 Alpha virt. eigenvalues --   24.23098  24.27777  24.29969  24.30309 189.35835
 Alpha virt. eigenvalues --  189.37425 189.38656
          Condensed to atoms (all electrons):
               1          2          3          4          5          6
     1  C   11.396247  -4.276156   1.077362  -1.425659  -0.491379   0.355818
     2  C   -4.276156  17.253355  -4.391817  -0.410086   1.549252  -0.030646
     3  C    1.077362  -4.391817  10.997989  -0.332230  -0.903597   0.021403
     4  C   -1.425659  -0.410086  -0.332230   7.848246  -0.159700   0.007078
     5  C   -0.491379   1.549252  -0.903597  -0.159700   6.005942  -0.005610
     6  H    0.355818  -0.030646   0.021403   0.007078  -0.005610   0.498475
     7  S   -1.133459   0.008912  -0.914738   0.759686   0.125035   0.008536
     8  H    0.047110  -0.046059   0.021770  -0.000631   0.377815  -0.004118
     9  C    0.244778  -1.679847   1.144049  -0.387469  -0.191555  -0.002375
    10  S   -0.219257   1.607014   0.033002   0.065416   0.126780   0.000637
    11  C    0.177663  -0.770928  -0.349041  -0.078063  -0.072847  -0.000301
    12  C   -0.641920   1.686481   0.601603   0.424319   0.180173   0.000109
    13  C    0.880239  -3.769628  -1.465594  -0.452113  -0.394914  -0.000644
    14  H   -0.008958   0.028235   0.038461   0.003516   0.005494   0.000002
    15  S   -0.006717  -0.038983   0.001047   0.004801   0.000389  -0.000001
    16  C   -0.007375   0.062359   0.027648   0.007148   0.002727   0.000001
    17  C    0.065640  -0.484163  -0.076296  -0.111927  -0.022030  -0.000026
    18  H    0.000001  -0.000041  -0.000281  -0.000004  -0.000001   0.000000
    19  H    0.000001   0.000274  -0.000509   0.000033   0.000004   0.000000
    20  H    0.066404  -0.049291  -0.037957   0.384142   0.019996   0.000656
    21  H    0.004693   0.025843  -0.044596   0.374888   0.003387   0.000195
    22  H   -0.043537  -0.072217   0.058737   0.414076  -0.003777   0.000091
               7          8          9         10         11         12
     1  C   -1.133459   0.047110   0.244778  -0.219257   0.177663  -0.641920
     2  C    0.008912  -0.046059  -1.679847   1.607014  -0.770928   1.686481
     3  C   -0.914738   0.021770   1.144049   0.033002  -0.349041   0.601603
     4  C    0.759686  -0.000631  -0.387469   0.065416  -0.078063   0.424319
     5  C    0.125035   0.377815  -0.191555   0.126780  -0.072847   0.180173
     6  H    0.008536  -0.004118  -0.002375   0.000637  -0.000301   0.000109
     7  S   17.577800  -0.025690  -0.204187  -0.089367   0.018973   0.242845
     8  H   -0.025690   0.448757  -0.004014  -0.000191  -0.000013  -0.000581
     9  C   -0.204187  -0.004014  10.597207   0.263525  -0.827466  -1.662566
    10  S   -0.089367  -0.000191   0.263525  18.222392  -0.116324   1.541893
    11  C    0.018973  -0.000013  -0.827466  -0.116324  18.594372  -4.456089
    12  C    0.242845  -0.000581  -1.662566   1.541893  -4.456089  18.726113
    13  C   -0.022454  -0.000447  -0.915296  -3.625364  -0.583662  -9.008857
    14  H   -0.003955  -0.000004  -0.004166   0.012346  -0.057442   0.140557
    15  S    0.003502   0.000001  -0.732558   0.133002   0.405617  -0.279849
    16  C   -0.002492  -0.000001  -0.018865   0.244704   1.621831  -0.296204
    17  C    0.016276   0.000001  -0.218321  -1.629003  -7.882547  -0.476116
    18  H    0.000011   0.000000   0.002770  -0.001210  -0.015327   0.029330
    19  H   -0.000014   0.000000  -0.005066   0.014625   0.031616  -0.050890
    20  H   -0.003384  -0.000015  -0.014057   0.005175   0.000699  -0.000443
    21  H   -0.001044  -0.000004   0.002076  -0.008610  -0.005975   0.006827
    22  H    0.004235   0.000009   0.027001   0.016078  -0.008713  -0.010188
              13         14         15         16         17         18
     1  C    0.880239  -0.008958  -0.006717  -0.007375   0.065640   0.000001
     2  C   -3.769628   0.028235  -0.038983   0.062359  -0.484163  -0.000041
     3  C   -1.465594   0.038461   0.001047   0.027648  -0.076296  -0.000281
     4  C   -0.452113   0.003516   0.004801   0.007148  -0.111927  -0.000004
     5  C   -0.394914   0.005494   0.000389   0.002727  -0.022030  -0.000001
     6  H   -0.000644   0.000002  -0.000001   0.000001  -0.000026   0.000000
     7  S   -0.022454  -0.003955   0.003502  -0.002492   0.016276   0.000011
     8  H   -0.000447  -0.000004   0.000001  -0.000001   0.000001   0.000000
     9  C   -0.915296  -0.004166  -0.732558  -0.018865  -0.218321   0.002770
    10  S   -3.625364   0.012346   0.133002   0.244704  -1.629003  -0.001210
    11  C   -0.583662  -0.057442   0.405617   1.621831  -7.882547  -0.015327
    12  C   -9.008857   0.140557  -0.279849  -0.296204  -0.476116   0.029330
    13  C   22.187647   0.190919  -0.693738  -0.929438   3.865665   0.010222
    14  H    0.190919   0.473126   0.008510   0.002127  -0.001841  -0.000004
    15  S   -0.693738   0.008510  17.537508   0.492425  -0.361713  -0.043409
    16  C   -0.929438   0.002127   0.492425   5.860149  -1.252010   0.371508
    17  C    3.865665  -0.001841  -0.361713  -1.252010  14.164863   0.014026
    18  H    0.010222  -0.000004  -0.043409   0.371508   0.014026   0.442715
    19  H   -0.003932   0.000003   0.007952   0.030791   0.335370  -0.003665
    20  H   -0.007073  -0.000004  -0.000037   0.000032  -0.000029   0.000000
    21  H    0.005963   0.000009   0.000109   0.000028  -0.001071  -0.000000
    22  H   -0.019430  -0.000022  -0.000252  -0.000409   0.002377  -0.000000
              19         20         21         22
     1  C    0.000001   0.066404   0.004693  -0.043537
     2  C    0.000274  -0.049291   0.025843  -0.072217
     3  C   -0.000509  -0.037957  -0.044596   0.058737
     4  C    0.000033   0.384142   0.374888   0.414076
     5  C    0.000004   0.019996   0.003387  -0.003777
     6  H    0.000000   0.000656   0.000195   0.000091
     7  S   -0.000014  -0.003384  -0.001044   0.004235
     8  H    0.000000  -0.000015  -0.000004   0.000009
     9  C   -0.005066  -0.014057   0.002076   0.027001
    10  S    0.014625   0.005175  -0.008610   0.016078
    11  C    0.031616   0.000699  -0.005975  -0.008713
    12  C   -0.050890  -0.000443   0.006827  -0.010188
    13  C   -0.003932  -0.007073   0.005963  -0.019430
    14  H    0.000003  -0.000004   0.000009  -0.000022
    15  S    0.007952  -0.000037   0.000109  -0.000252
    16  C    0.030791   0.000032   0.000028  -0.000409
    17  C    0.335370  -0.000029  -0.001071   0.002377
    18  H   -0.003665   0.000000  -0.000000  -0.000000
    19  H    0.481297   0.000000   0.000000  -0.000002
    20  H    0.000000   0.520930  -0.024042  -0.021558
    21  H    0.000000  -0.024042   0.491816  -0.027252
    22  H   -0.000002  -0.021558  -0.027252   0.502128
 Mulliken charges:
               1
     1  C   -0.061540
     2  C   -0.201863
     3  C    0.493585
     4  C   -0.935467
     5  C   -0.151582
     6  H    0.150720
     7  S   -0.365027
     8  H    0.186305
     9  C    0.586400
    10  S   -0.597265
    11  C    0.373967
    12  C   -0.696548
    13  C    0.751928
    14  H    0.173090
    15  S   -0.437605
    16  C   -0.216684
    17  C    0.052876
    18  H    0.193358
    19  H    0.162110
    20  H    0.159855
    21  H    0.196759
    22  H    0.182626
 Sum of Mulliken charges =  -0.00000
 Mulliken charges with hydrogens summed into heavy atoms:
               1
     1  C    0.089181
     2  C   -0.201863
     3  C    0.493585
     4  C   -0.396227
     5  C    0.034723
     7  S   -0.365027
     9  C    0.586400
    10  S   -0.597265
    11  C    0.373967
    12  C   -0.696548
    13  C    0.925018
    15  S   -0.437605
    16  C   -0.023325
    17  C    0.214986
 Electronic spatial extent (au):  <R**2>=           4321.2788
 Charge=             -0.0000 electrons
 Dipole moment (field-independent basis, Debye):
    X=             -0.3488    Y=              0.8762    Z=              0.3548  Tot=              1.0076
 Quadrupole moment (field-independent basis, Debye-Ang):
   XX=            -86.4162   YY=            -97.9052   ZZ=           -107.2020
   XY=              2.0618   XZ=             -2.2337   YZ=             -0.9003
 Traceless Quadrupole moment (field-independent basis, Debye-Ang):
   XX=             10.7582   YY=             -0.7307   ZZ=            -10.0275
   XY=              2.0618   XZ=             -2.2337   YZ=             -0.9003
 Octapole moment (field-independent basis, Debye-Ang**2):
  XXX=              3.1059  YYY=              2.7492  ZZZ=              1.0846  XYY=             -6.7251
  XXY=              9.7963  XXZ=             -4.1859  XZZ=             -0.6866  YZZ=              2.0393
  YYZ=             -0.7736  XYZ=            -13.8502
 Hexadecapole moment (field-independent basis, Debye-Ang**3):
 XXXX=          -4104.5028 YYYY=           -999.2770 ZZZZ=           -296.0553 XXXY=             81.3987
 XXXZ=            -22.9358 YYYX=             17.8741 YYYZ=            -12.6097 ZZZX=              0.6961
 ZZZY=              1.5159 XXYY=           -903.6634 XXZZ=           -896.3932 YYZZ=           -213.4223
 XXYZ=              9.9497 YYXZ=             -6.8523 ZZXY=             -4.0286
 N-N= 1.126488590916D+03 E-N=-6.077444793548D+03  KE= 1.615205678246D+03
 Unable to Open any file for archive entry.
 1\1\GINC-CX3-6-14\FOpt\RwB97XD\6-311+G(d,p)\C11H8S3\NS5018\26-Oct-2021
 \0\\# opt=modredundant wb97xd/6-311+g(d,p)\\pBTTT_-45.pdb\\0,1\C,-4.24
 16942453,-1.510768858,-0.3085904448\C,-2.9467444435,-1.0047949761,-0.6
 333641189\C,-1.9865828584,-1.9840807289,-0.5652060826\C,-2.7022991395,
 0.438076404,-0.9726954895\C,-4.2491320633,-2.8364958588,-0.0065657255\
 H,-5.1303141863,-0.8922084876,-0.290875895\S,-2.6780261186,-3.51782383
 12,-0.1243261405\H,-5.0893959789,-3.4503037332,0.280919267\C,-0.551511
 0021,-1.9068431599,-0.8211441403\S,0.0658966228,-1.0593708705,-2.22887
 53202\C,1.6933786552,-1.4706072927,-1.8107359059\C,1.7273896759,-2.231
 0647715,-0.6584268078\C,0.4495575796,-2.4803779123,-0.0889484084\H,0.2
 689683455,-3.037257176,0.820287644\S,3.3568366875,-2.6350095674,-0.234
 67237\C,3.9580930396,-1.7713140769,-1.6166085203\C,2.9775065531,-1.200
 6893811,-2.3653852741\H,5.0223164403,-1.7398316899,-1.7962842233\H,3.1
 633032337,-0.6260022687,-3.2616917606\H,-3.4374573973,1.0728803839,-0.
 4733698519\H,-2.7900352822,0.6151621654,-2.0490141071\H,-1.7070541183,
 0.7617256874,-0.6634263242\\Version=ES64L-G16RevC.01\State=1-A\HF=-161
 8.5089858\RMSD=6.515e-09\RMSF=3.023e-04\Dipole=-0.145708,0.3654631,-0.
 0485065\Quadrupole=7.1996144,-3.1378861,-4.0617283,-0.0238078,-3.81058
 58,-3.445402\PG=C01 [X(C11H8S3)]\\@
 The archive entry for this job was punched.


 You can't act like a skunk without someone's getting wind of it.
 -- Lorene Workman
 Job cpu time:       0 days  5 hours 19 minutes  9.6 seconds.
 Elapsed time:       0 days  0 hours 40 minutes 12.6 seconds.
 File lengths (MBytes):  RWF=     91 Int=      0 D2E=      0 Chk=     11 Scr=      1
 Normal termination of Gaussian 16 at Tue Oct 26 01:48:11 2021.
