 Entering Gaussian System, Link 0=g16
 Input=pBTTT_-160.gjf
 Output=pBTTT_-160.log
 Initial command:
 /apps/gaussian/g16-c01-avx/g16/l1.exe "/tmp/pbs.4762230[15].pbs/Gau-2353295.inp" -scrdir="/tmp/pbs.4762230[15].pbs/"
 Entering Link 1 = /apps/gaussian/g16-c01-avx/g16/l1.exe PID=   2353310.
  
 Copyright (c) 1988-2019, Gaussian, Inc.  All Rights Reserved.
  
 This is part of the Gaussian(R) 16 program.  It is based on
 the Gaussian(R) 09 system (copyright 2009, Gaussian, Inc.),
 the Gaussian(R) 03 system (copyright 2003, Gaussian, Inc.),
 the Gaussian(R) 98 system (copyright 1998, Gaussian, Inc.),
 the Gaussian(R) 94 system (copyright 1995, Gaussian, Inc.),
 the Gaussian 92(TM) system (copyright 1992, Gaussian, Inc.),
 the Gaussian 90(TM) system (copyright 1990, Gaussian, Inc.),
 the Gaussian 88(TM) system (copyright 1988, Gaussian, Inc.),
 the Gaussian 86(TM) system (copyright 1986, Carnegie Mellon
 University), and the Gaussian 82(TM) system (copyright 1983,
 Carnegie Mellon University). Gaussian is a federally registered
 trademark of Gaussian, Inc.
  
 This software contains proprietary and confidential information,
 including trade secrets, belonging to Gaussian, Inc.
  
 This software is provided under written license and may be
 used, copied, transmitted, or stored only in accord with that
 written license.
  
 The following legend is applicable only to US Government
 contracts under FAR:
  
                    RESTRICTED RIGHTS LEGEND
  
 Use, reproduction and disclosure by the US Government is
 subject to restrictions as set forth in subparagraphs (a)
 and (c) of the Commercial Computer Software - Restricted
 Rights clause in FAR 52.227-19.
  
 Gaussian, Inc.
 340 Quinnipiac St., Bldg. 40, Wallingford CT 06492
  
  
 ---------------------------------------------------------------
 Warning -- This program may not be used in any manner that
 competes with the business of Gaussian, Inc. or will provide
 assistance to any competitor of Gaussian, Inc.  The licensee
 of this program is prohibited from giving any competitor of
 Gaussian, Inc. access to this program.  By using this program,
 the user acknowledges that Gaussian, Inc. is engaged in the
 business of creating and licensing software in the field of
 computational chemistry and represents and warrants to the
 licensee that it is not a competitor of Gaussian, Inc. and that
 it will not use this program in any manner prohibited above.
 ---------------------------------------------------------------
  

 Cite this work as:
 Gaussian 16, Revision C.01,
 M. J. Frisch, G. W. Trucks, H. B. Schlegel, G. E. Scuseria, 
 M. A. Robb, J. R. Cheeseman, G. Scalmani, V. Barone, 
 G. A. Petersson, H. Nakatsuji, X. Li, M. Caricato, A. V. Marenich, 
 J. Bloino, B. G. Janesko, R. Gomperts, B. Mennucci, H. P. Hratchian, 
 J. V. Ortiz, A. F. Izmaylov, J. L. Sonnenberg, D. Williams-Young, 
 F. Ding, F. Lipparini, F. Egidi, J. Goings, B. Peng, A. Petrone, 
 T. Henderson, D. Ranasinghe, V. G. Zakrzewski, J. Gao, N. Rega, 
 G. Zheng, W. Liang, M. Hada, M. Ehara, K. Toyota, R. Fukuda, 
 J. Hasegawa, M. Ishida, T. Nakajima, Y. Honda, O. Kitao, H. Nakai, 
 T. Vreven, K. Throssell, J. A. Montgomery, Jr., J. E. Peralta, 
 F. Ogliaro, M. J. Bearpark, J. J. Heyd, E. N. Brothers, K. N. Kudin, 
 V. N. Staroverov, T. A. Keith, R. Kobayashi, J. Normand, 
 K. Raghavachari, A. P. Rendell, J. C. Burant, S. S. Iyengar, 
 J. Tomasi, M. Cossi, J. M. Millam, M. Klene, C. Adamo, R. Cammi, 
 J. W. Ochterski, R. L. Martin, K. Morokuma, O. Farkas, 
 J. B. Foresman, and D. J. Fox, Gaussian, Inc., Wallingford CT, 2019.
 
 ******************************************
 Gaussian 16:  ES64L-G16RevC.01  3-Jul-2019
                26-Oct-2021 
 ******************************************
 %mem=100GB
 %nprocshared=8
 Will use up to    8 processors via shared memory.
 --------------------------------------
 # opt=modredundant wb97xd/6-311+g(d,p)
 --------------------------------------
 1/18=120,19=15,26=3,38=1/1,3;
 2/9=110,12=2,17=6,18=5,40=1/2;
 3/5=4,6=6,7=111,11=2,25=1,30=1,71=1,74=-58/1,2,3;
 4//1;
 5/5=2,38=5/2;
 6/7=2,8=2,9=2,10=2,28=1/1;
 7//1,2,3,16;
 1/18=20,19=15,26=3/3(2);
 2/9=110/2;
 99//99;
 2/9=110/2;
 3/5=4,6=6,7=111,11=2,25=1,30=1,71=1,74=-58/1,2,3;
 4/5=5,16=3,69=1/1;
 5/5=2,38=5/2;
 7//1,2,3,16;
 1/18=20,19=15,26=3/3(-5);
 2/9=110/2;
 6/7=2,8=2,9=2,10=2,19=2,28=1/1;
 99/9=1/99;
 --------------
 pBTTT_-160.pdb
 --------------
 Symbolic Z-matrix:
 Charge =  0 Multiplicity = 1
 C                    -4.25     -1.36     -0.21 
 C                    -2.93     -0.95     -0.61 
 C                    -1.97     -2.05     -0.62 
 C                    -2.66      0.47     -0.96 
 C                    -4.33     -2.76      0.1 
 H                    -5.1      -0.7      -0.14 
 S                    -2.8      -3.56     -0.11 
 H                    -5.23     -3.27      0.41 
 C                    -0.56     -2.13     -0.97 
 S                     0.227    -3.683    -1.385 
 C                     1.762    -2.931    -1.651 
 C                     1.713    -1.503    -1.463 
 C                     0.408    -1.039    -1.097 
 H                     0.141     0.006    -1.074 
 S                     2.931    -0.668    -2.369 
 C                     3.552    -2.19     -3.012 
 C                     2.799    -3.331    -2.544 
 H                     4.285    -2.227    -3.806 
 H                     2.844    -4.303    -3.028 
 H                    -3.55      1.09     -0.83 
 H                    -2.35      0.56     -2. 
 H                    -1.88      0.89     -0.31 
 
 The following ModRedundant input section has been read:
 D       2       3       9      10 F                                           
 

 GradGradGradGradGradGradGradGradGradGradGradGradGradGradGradGradGradGrad
 Berny optimization.
 Initialization pass.
                           ----------------------------
                           !    Initial Parameters    !
                           ! (Angstroms and Degrees)  !
 --------------------------                            --------------------------
 ! Name  Definition              Value          Derivative Info.                !
 --------------------------------------------------------------------------------
 ! R1    R(1,2)                  1.4389         estimate D2E/DX2                !
 ! R2    R(1,5)                  1.4361         estimate D2E/DX2                !
 ! R3    R(1,6)                  1.0784         estimate D2E/DX2                !
 ! R4    R(2,3)                  1.46           estimate D2E/DX2                !
 ! R5    R(2,4)                  1.4872         estimate D2E/DX2                !
 ! R6    R(3,7)                  1.797          estimate D2E/DX2                !
 ! R7    R(3,9)                  1.455          estimate D2E/DX2                !
 ! R8    R(4,20)                 1.0924         estimate D2E/DX2                !
 ! R9    R(4,21)                 1.0889         estimate D2E/DX2                !
 ! R10   R(4,22)                 1.0988         estimate D2E/DX2                !
 ! R11   R(5,7)                  1.7393         estimate D2E/DX2                !
 ! R12   R(5,8)                  1.0799         estimate D2E/DX2                !
 ! R13   R(9,10)                 1.7898         estimate D2E/DX2                !
 ! R14   R(9,13)                 1.464          estimate D2E/DX2                !
 ! R15   R(10,11)                1.7299         estimate D2E/DX2                !
 ! R16   R(11,12)                1.4412         estimate D2E/DX2                !
 ! R17   R(11,17)                1.4258         estimate D2E/DX2                !
 ! R18   R(12,13)                1.4326         estimate D2E/DX2                !
 ! R19   R(12,15)                1.7325         estimate D2E/DX2                !
 ! R20   R(13,14)                1.0788         estimate D2E/DX2                !
 ! R21   R(15,16)                1.7651         estimate D2E/DX2                !
 ! R22   R(16,17)                1.445          estimate D2E/DX2                !
 ! R23   R(16,18)                1.0812         estimate D2E/DX2                !
 ! R24   R(17,19)                1.0868         estimate D2E/DX2                !
 ! A1    A(2,1,5)              112.8843         estimate D2E/DX2                !
 ! A2    A(2,1,6)              124.5209         estimate D2E/DX2                !
 ! A3    A(5,1,6)              122.5942         estimate D2E/DX2                !
 ! A4    A(1,2,3)              112.9799         estimate D2E/DX2                !
 ! A5    A(1,2,4)              120.2665         estimate D2E/DX2                !
 ! A6    A(3,2,4)              126.7536         estimate D2E/DX2                !
 ! A7    A(2,3,7)              109.1138         estimate D2E/DX2                !
 ! A8    A(2,3,9)              132.8639         estimate D2E/DX2                !
 ! A9    A(7,3,9)              118.0132         estimate D2E/DX2                !
 ! A10   A(2,4,20)             111.468          estimate D2E/DX2                !
 ! A11   A(2,4,21)             110.8154         estimate D2E/DX2                !
 ! A12   A(2,4,22)             110.7706         estimate D2E/DX2                !
 ! A13   A(20,4,21)            107.3779         estimate D2E/DX2                !
 ! A14   A(20,4,22)            106.918          estimate D2E/DX2                !
 ! A15   A(21,4,22)            109.3476         estimate D2E/DX2                !
 ! A16   A(1,5,7)              111.9209         estimate D2E/DX2                !
 ! A17   A(1,5,8)              124.6643         estimate D2E/DX2                !
 ! A18   A(7,5,8)              123.4062         estimate D2E/DX2                !
 ! A19   A(3,7,5)               93.0997         estimate D2E/DX2                !
 ! A20   A(3,9,10)             121.9785         estimate D2E/DX2                !
 ! A21   A(3,9,13)             128.3621         estimate D2E/DX2                !
 ! A22   A(10,9,13)            109.6185         estimate D2E/DX2                !
 ! A23   A(9,10,11)             92.7876         estimate D2E/DX2                !
 ! A24   A(10,11,12)           112.3656         estimate D2E/DX2                !
 ! A25   A(10,11,17)           128.2972         estimate D2E/DX2                !
 ! A26   A(12,11,17)           112.608          estimate D2E/DX2                !
 ! A27   A(11,12,13)           112.6584         estimate D2E/DX2                !
 ! A28   A(11,12,15)           112.671          estimate D2E/DX2                !
 ! A29   A(13,12,15)           128.1644         estimate D2E/DX2                !
 ! A30   A(9,13,12)            112.5258         estimate D2E/DX2                !
 ! A31   A(9,13,14)            123.8037         estimate D2E/DX2                !
 ! A32   A(12,13,14)           123.0            estimate D2E/DX2                !
 ! A33   A(12,15,16)            91.2754         estimate D2E/DX2                !
 ! A34   A(15,16,17)           112.3064         estimate D2E/DX2                !
 ! A35   A(15,16,18)           122.3794         estimate D2E/DX2                !
 ! A36   A(17,16,18)           124.3397         estimate D2E/DX2                !
 ! A37   A(11,17,16)           111.1216         estimate D2E/DX2                !
 ! A38   A(11,17,19)           124.0544         estimate D2E/DX2                !
 ! A39   A(16,17,19)           122.7128         estimate D2E/DX2                !
 ! D1    D(5,1,2,3)              0.3915         estimate D2E/DX2                !
 ! D2    D(5,1,2,4)           -179.5973         estimate D2E/DX2                !
 ! D3    D(6,1,2,3)           -179.8811         estimate D2E/DX2                !
 ! D4    D(6,1,2,4)              0.13           estimate D2E/DX2                !
 ! D5    D(2,1,5,7)             -0.3845         estimate D2E/DX2                !
 ! D6    D(2,1,5,8)           -179.3471         estimate D2E/DX2                !
 ! D7    D(6,1,5,7)            179.8822         estimate D2E/DX2                !
 ! D8    D(6,1,5,8)              0.9196         estimate D2E/DX2                !
 ! D9    D(1,2,3,7)             -0.2224         estimate D2E/DX2                !
 ! D10   D(1,2,3,9)            178.6265         estimate D2E/DX2                !
 ! D11   D(4,2,3,7)            179.7656         estimate D2E/DX2                !
 ! D12   D(4,2,3,9)             -1.3855         estimate D2E/DX2                !
 ! D13   D(1,2,4,20)             2.1641         estimate D2E/DX2                !
 ! D14   D(1,2,4,21)          -117.3645         estimate D2E/DX2                !
 ! D15   D(1,2,4,22)           121.0843         estimate D2E/DX2                !
 ! D16   D(3,2,4,20)          -177.8231         estimate D2E/DX2                !
 ! D17   D(3,2,4,21)            62.6483         estimate D2E/DX2                !
 ! D18   D(3,2,4,22)           -58.9029         estimate D2E/DX2                !
 ! D19   D(2,3,7,5)              0.0033         estimate D2E/DX2                !
 ! D20   D(9,3,7,5)           -179.041          estimate D2E/DX2                !
 ! D21   D(2,3,9,10)          -159.9789         Frozen                          !
 ! D22   D(2,3,9,13)            17.4453         estimate D2E/DX2                !
 ! D23   D(7,3,9,10)            18.7891         estimate D2E/DX2                !
 ! D24   D(7,3,9,13)          -163.7868         estimate D2E/DX2                !
 ! D25   D(1,5,7,3)              0.2153         estimate D2E/DX2                !
 ! D26   D(8,5,7,3)            179.1932         estimate D2E/DX2                !
 ! D27   D(3,9,10,11)          179.7714         estimate D2E/DX2                !
 ! D28   D(13,9,10,11)           1.9154         estimate D2E/DX2                !
 ! D29   D(3,9,13,12)         -179.8528         estimate D2E/DX2                !
 ! D30   D(3,9,13,14)           -9.0074         estimate D2E/DX2                !
 ! D31   D(10,9,13,12)          -2.1723         estimate D2E/DX2                !
 ! D32   D(10,9,13,14)         168.6731         estimate D2E/DX2                !
 ! D33   D(9,10,11,12)          -1.2073         estimate D2E/DX2                !
 ! D34   D(9,10,11,17)        -149.923          estimate D2E/DX2                !
 ! D35   D(10,11,12,13)          0.1448         estimate D2E/DX2                !
 ! D36   D(10,11,12,15)       -154.0196         estimate D2E/DX2                !
 ! D37   D(17,11,12,13)        153.9476         estimate D2E/DX2                !
 ! D38   D(17,11,12,15)         -0.2168         estimate D2E/DX2                !
 ! D39   D(10,11,17,16)        149.7131         estimate D2E/DX2                !
 ! D40   D(10,11,17,19)        -14.1022         estimate D2E/DX2                !
 ! D41   D(12,11,17,16)          1.0584         estimate D2E/DX2                !
 ! D42   D(12,11,17,19)       -162.7569         estimate D2E/DX2                !
 ! D43   D(11,12,13,9)           1.3433         estimate D2E/DX2                !
 ! D44   D(11,12,13,14)       -169.5871         estimate D2E/DX2                !
 ! D45   D(15,12,13,9)         150.5832         estimate D2E/DX2                !
 ! D46   D(15,12,13,14)        -20.3472         estimate D2E/DX2                !
 ! D47   D(11,12,15,16)         -0.524          estimate D2E/DX2                !
 ! D48   D(13,12,15,16)       -149.7608         estimate D2E/DX2                !
 ! D49   D(12,15,16,17)          1.1318         estimate D2E/DX2                !
 ! D50   D(12,15,16,18)        170.2836         estimate D2E/DX2                !
 ! D51   D(15,16,17,11)         -1.448          estimate D2E/DX2                !
 ! D52   D(15,16,17,19)        162.6218         estimate D2E/DX2                !
 ! D53   D(18,16,17,11)       -170.3495         estimate D2E/DX2                !
 ! D54   D(18,16,17,19)         -6.2797         estimate D2E/DX2                !
 --------------------------------------------------------------------------------
 Trust Radius=3.00D-01 FncErr=1.00D-07 GrdErr=1.00D-06 EigMax=2.50D+02 EigMin=1.00D-04
 Number of steps in this run=    127 maximum allowed number of steps=    132.
 GradGradGradGradGradGradGradGradGradGradGradGradGradGradGradGradGradGrad

                          Input orientation:                          
 ---------------------------------------------------------------------
 Center     Atomic      Atomic             Coordinates (Angstroms)
 Number     Number       Type             X           Y           Z
 ---------------------------------------------------------------------
      1          6           0       -4.250000   -1.360000   -0.210000
      2          6           0       -2.930000   -0.950000   -0.610000
      3          6           0       -1.970000   -2.050000   -0.620000
      4          6           0       -2.660000    0.470000   -0.960000
      5          6           0       -4.330000   -2.760000    0.100000
      6          1           0       -5.100000   -0.700000   -0.140000
      7         16           0       -2.800000   -3.560000   -0.110000
      8          1           0       -5.230000   -3.270000    0.410000
      9          6           0       -0.560000   -2.130000   -0.970000
     10         16           0        0.227000   -3.683000   -1.385000
     11          6           0        1.762000   -2.931000   -1.651000
     12          6           0        1.713000   -1.503000   -1.463000
     13          6           0        0.408000   -1.039000   -1.097000
     14          1           0        0.141000    0.006000   -1.074000
     15         16           0        2.931000   -0.668000   -2.369000
     16          6           0        3.552000   -2.190000   -3.012000
     17          6           0        2.799000   -3.331000   -2.544000
     18          1           0        4.285000   -2.227000   -3.806000
     19          1           0        2.844000   -4.303000   -3.028000
     20          1           0       -3.550000    1.090000   -0.830000
     21          1           0       -2.350000    0.560000   -2.000000
     22          1           0       -1.880000    0.890000   -0.310000
 ---------------------------------------------------------------------
                    Distance matrix (angstroms):
                    1          2          3          4          5
     1  C    0.000000
     2  C    1.438923   0.000000
     3  C    2.417147   1.460034   0.000000
     4  C    2.537617   1.487212   2.634787   0.000000
     5  C    1.436141   2.395871   2.567509   3.787532   0.000000
     6  H    1.078425   2.234346   3.442354   2.827525   2.212261
     7  S    2.636759   2.660639   1.796970   4.121044   1.739253
     8  H    2.234480   3.422397   3.630000   4.740190   1.079907
     9  C    3.845335   2.671872   1.454991   3.342170   3.969219
    10  S    5.178850   4.246947   2.842309   5.075707   4.880922
    11  C    6.378767   5.198356   3.970761   5.621242   6.340955
    12  C    6.094902   4.752985   3.817636   4.823781   6.367171
    13  C    4.752554   3.374512   2.627648   3.421765   5.181051
    14  H    4.679031   3.249657   2.981539   2.841460   5.386917
    15  S    7.530399   6.125759   5.384118   5.877041   7.949500
    16  C    8.331345   7.023071   6.019447   7.062241   8.493254
    17  C    7.682499   6.498535   5.299632   6.837934   7.624921
    18  H    9.302104   7.993833   7.021891   7.975371   9.474131
    19  H    8.180905   7.101296   5.835158   7.573121   7.976936
    20  H    2.622384   2.143455   3.521378   1.092428   4.036806
    21  H    3.240447   2.132745   2.976726   1.088944   4.399182
    22  H    3.269465   2.139650   2.957668   1.098772   4.415099
                    6          7          8          9         10
     6  H    0.000000
     7  S    3.670218   0.000000
     8  H    2.631406   2.501879   0.000000
     9  C    4.831708   2.793224   5.001290   0.000000
    10  S    6.230991   3.286865   5.759466   1.789805   0.000000
    11  C    7.372077   4.856147   7.297308   2.548930   1.729880
    12  C    6.986566   5.140917   7.405111   2.408881   2.639447
    13  C    5.600789   4.197722   6.247836   1.464047   2.665791
    14  H    5.370184   4.721772   6.463905   2.250492   3.703085
    15  S    8.334652   6.805226   9.005285   4.035062   4.167745
    16  C    9.237185   7.116629   9.486833   4.591504   3.991466
    17  C    8.665770   6.109468   8.555389   3.899071   2.842951
    18  H   10.190658   8.101514  10.459337   5.614831   4.944547
    19  H    9.188541   6.396992   8.836086   4.532605   3.151593
    20  H    2.466313   4.764808   4.834211   4.396374   6.111897
    21  H    3.551014   4.555107   5.363898   3.391327   5.002220
    22  H    3.595191   4.548505   5.389480   3.361309   5.148534
                   11         12         13         14         15
    11  C    0.000000
    12  C    1.441155   0.000000
    13  C    2.391630   1.432577   0.000000
    14  H    3.403901   2.213501   1.078816   0.000000
    15  S    2.646366   1.732508   2.849764   3.148873   0.000000
    16  C    2.367594   2.500658   3.857041   4.495907   1.765099
    17  C    1.425769   2.385276   3.614409   4.512364   2.672006
    18  H    3.391927   3.553732   4.876592   5.442688   2.515704
    19  H    2.224688   3.401233   4.507389   5.449019   3.695277
    20  H    6.712662   5.901145   4.502188   3.854617   6.889299
    21  H    5.405315   4.588279   3.313423   2.714677   5.434437
    22  H    5.446328   4.468278   3.094407   2.334436   5.460088
                   16         17         18         19         20
    16  C    0.000000
    17  C    1.444962   0.000000
    18  H    1.081247   2.240459   0.000000
    19  H    2.228517   1.086768   2.644152   0.000000
    20  H    8.121449   7.924193   9.013672   8.648635   0.000000
    21  H    6.589404   6.476729   7.419719   7.189102   1.757783
    22  H    6.803957   6.685854   7.742411   7.528011   1.760483
                   21         22
    21  H    0.000000
    22  H    1.784909   0.000000
 Stoichiometry    C11H8S3
 Framework group  C1[X(C11H8S3)]
 Deg. of freedom    60
 Full point group                 C1      NOp   1
 Largest Abelian subgroup         C1      NOp   1
 Largest concise Abelian subgroup C1      NOp   1
                         Standard orientation:                         
 ---------------------------------------------------------------------
 Center     Atomic      Atomic             Coordinates (Angstroms)
 Number     Number       Type             X           Y           Z
 ---------------------------------------------------------------------
      1          6           0        3.994429    0.831761    0.224270
      2          6           0        2.606585    1.203447    0.145285
      3          6           0        1.721812    0.061494   -0.066422
      4          6           0        2.203752    2.629056    0.276300
      5          6           0        4.204126   -0.580411    0.068392
      6          1           0        4.805167    1.525873    0.378902
      7         16           0        2.708271   -1.437497   -0.161431
      8          1           0        5.167991   -1.066003    0.105339
      9          6           0        0.276811   -0.062850   -0.182658
     10         16           0       -0.564647   -1.620646    0.079304
     11          6           0       -2.120643   -0.927540   -0.222300
     12          6           0       -2.047698    0.485278   -0.497168
     13          6           0       -0.706044    0.986151   -0.460194
     14          1           0       -0.471167    2.038920   -0.478976
     15         16           0       -3.513179    1.319466   -0.099571
     16          6           0       -4.272233   -0.184078    0.428412
     17          6           0       -3.381066   -1.316234    0.319057
     18          1           0       -5.221789   -0.202983    0.945209
     19          1           0       -3.557057   -2.254518    0.838398
     20          1           0        3.072717    3.281204    0.390329
     21          1           0        1.571530    2.773707    1.151041
     22          1           0        1.666498    2.966193   -0.620916
 ---------------------------------------------------------------------
 Rotational constants (GHZ):           1.2008788           0.2794461           0.2302039
 Standard basis: 6-311+G(d,p) (5D, 7F)
 There are   394 symmetry adapted cartesian basis functions of A   symmetry.
 There are   380 symmetry adapted basis functions of A   symmetry.
   380 basis functions,   610 primitive gaussians,   394 cartesian basis functions
    61 alpha electrons       61 beta electrons
       nuclear repulsion energy      1108.1321821779 Hartrees.
 NAtoms=   22 NActive=   22 NUniq=   22 SFac= 1.00D+00 NAtFMM=   60 NAOKFM=F Big=F
 Integral buffers will be    131072 words long.
 Raffenetti 2 integral format.
 Two-electron integral symmetry is turned on.
 Nuclear repulsion after empirical dispersion term =     1108.1196980054 Hartrees.
 One-electron integrals computed using PRISM.
 NBasis=   380 RedAO= T EigKep=  2.06D-06  NBF=   380
 NBsUse=   378 1.00D-06 EigRej=  9.76D-07 NBFU=   378
 ExpMin= 4.05D-02 ExpMax= 9.34D+04 ExpMxC= 3.17D+03 IAcc=3 IRadAn=         5 AccDes= 0.00D+00
 Harris functional with IExCor= 4639 and IRadAn=       5 diagonalized for initial guess.
 HarFok:  IExCor= 4639 AccDes= 0.00D+00 IRadAn=         5 IDoV= 1 UseB2=F ITyADJ=14
 ICtDFT=  3500011 ScaDFX=  1.000000  1.000000  1.000000  1.000000
 FoFCou: FMM=F IPFlag=           0 FMFlag=      100000 FMFlg1=           0
         NFxFlg=           0 DoJE=T BraDBF=F KetDBF=T FulRan=T
         wScrn=  0.000000 ICntrl=       500 IOpCl=  0 I1Cent=   200000004 NGrid=           0
         NMat0=    1 NMatS0=      1 NMatT0=    0 NMatD0=    1 NMtDS0=    0 NMtDT0=    0
 Petite list used in FoFCou.
 Requested convergence on RMS density matrix=1.00D-08 within 128 cycles.
 Requested convergence on MAX density matrix=1.00D-06.
 Requested convergence on             energy=1.00D-06.
 No special actions if energy rises.
 SCF Done:  E(RwB97XD) =  -1618.46054048     A.U. after   19 cycles
            NFock= 19  Conv=0.17D-08     -V/T= 2.0028

 **********************************************************************

            Population analysis using the SCF Density.

 **********************************************************************

 Orbital symmetries:
       Occupied  (A) (A) (A) (A) (A) (A) (A) (A) (A) (A) (A) (A)
                 (A) (A) (A) (A) (A) (A) (A) (A) (A) (A) (A) (A)
                 (A) (A) (A) (A) (A) (A) (A) (A) (A) (A) (A) (A)
                 (A) (A) (A) (A) (A) (A) (A) (A) (A) (A) (A) (A)
                 (A) (A) (A) (A) (A) (A) (A) (A) (A) (A) (A) (A)
                 (A)
       Virtual   (A) (A) (A) (A) (A) (A) (A) (A) (A) (A) (A) (A)
                 (A) (A) (A) (A) (A) (A) (A) (A) (A) (A) (A) (A)
                 (A) (A) (A) (A) (A) (A) (A) (A) (A) (A) (A) (A)
                 (A) (A) (A) (A) (A) (A) (A) (A) (A) (A) (A) (A)
                 (A) (A) (A) (A) (A) (A) (A) (A) (A) (A) (A) (A)
                 (A) (A) (A) (A) (A) (A) (A) (A) (A) (A) (A) (A)
                 (A) (A) (A) (A) (A) (A) (A) (A) (A) (A) (A) (A)
                 (A) (A) (A) (A) (A) (A) (A) (A) (A) (A) (A) (A)
                 (A) (A) (A) (A) (A) (A) (A) (A) (A) (A) (A) (A)
                 (A) (A) (A) (A) (A) (A) (A) (A) (A) (A) (A) (A)
                 (A) (A) (A) (A) (A) (A) (A) (A) (A) (A) (A) (A)
                 (A) (A) (A) (A) (A) (A) (A) (A) (A) (A) (A) (A)
                 (A) (A) (A) (A) (A) (A) (A) (A) (A) (A) (A) (A)
                 (A) (A) (A) (A) (A) (A) (A) (A) (A) (A) (A) (A)
                 (A) (A) (A) (A) (A) (A) (A) (A) (A) (A) (A) (A)
                 (A) (A) (A) (A) (A) (A) (A) (A) (A) (A) (A) (A)
                 (A) (A) (A) (A) (A) (A) (A) (A) (A) (A) (A) (A)
                 (A) (A) (A) (A) (A) (A) (A) (A) (A) (A) (A) (A)
                 (A) (A) (A) (A) (A) (A) (A) (A) (A) (A) (A) (A)
                 (A) (A) (A) (A) (A) (A) (A) (A) (A) (A) (A) (A)
                 (A) (A) (A) (A) (A) (A) (A) (A) (A) (A) (A) (A)
                 (A) (A) (A) (A) (A) (A) (A) (A) (A) (A) (A) (A)
                 (A) (A) (A) (A) (A) (A) (A) (A) (A) (A) (A) (A)
                 (A) (A) (A) (A) (A) (A) (A) (A) (A) (A) (A) (A)
                 (A) (A) (A) (A) (A) (A) (A) (A) (A) (A) (A) (A)
                 (A) (A) (A) (A) (A) (A) (A) (A) (A) (A) (A) (A)
                 (A) (A) (A) (A) (A)
 The electronic state is 1-A.
 Alpha  occ. eigenvalues --  -89.05904 -89.05721 -89.05673 -10.35641 -10.34672
 Alpha  occ. eigenvalues --  -10.33631 -10.33556 -10.33466 -10.32997 -10.32125
 Alpha  occ. eigenvalues --  -10.31788 -10.31756 -10.30544 -10.29209  -8.09848
 Alpha  occ. eigenvalues --   -8.09680  -8.09569  -6.04700  -6.04550  -6.04410
 Alpha  occ. eigenvalues --   -6.04337  -6.04175  -6.04031  -6.03916  -6.03715
 Alpha  occ. eigenvalues --   -6.03686  -1.00830  -0.97801  -0.93631  -0.87915
 Alpha  occ. eigenvalues --   -0.87141  -0.84855  -0.80639  -0.79440  -0.77006
 Alpha  occ. eigenvalues --   -0.70435  -0.66777  -0.66191  -0.62404  -0.60830
 Alpha  occ. eigenvalues --   -0.58083  -0.57868  -0.52944  -0.52462  -0.51847
 Alpha  occ. eigenvalues --   -0.50235  -0.49898  -0.48041  -0.47727  -0.46719
 Alpha  occ. eigenvalues --   -0.45966  -0.45675  -0.44735  -0.43256  -0.42020
 Alpha  occ. eigenvalues --   -0.41544  -0.37428  -0.33554  -0.32967  -0.30712
 Alpha  occ. eigenvalues --   -0.26021
 Alpha virt. eigenvalues --   -0.01444   0.03771   0.04866   0.05563   0.06157
 Alpha virt. eigenvalues --    0.06420   0.06815   0.07212   0.07790   0.08488
 Alpha virt. eigenvalues --    0.08828   0.09167   0.09372   0.09465   0.10175
 Alpha virt. eigenvalues --    0.10767   0.10914   0.11506   0.11856   0.12538
 Alpha virt. eigenvalues --    0.12857   0.13146   0.13365   0.13824   0.14651
 Alpha virt. eigenvalues --    0.14878   0.15671   0.15924   0.16380   0.16852
 Alpha virt. eigenvalues --    0.17174   0.17555   0.18264   0.18597   0.19030
 Alpha virt. eigenvalues --    0.19489   0.20464   0.20779   0.20863   0.21345
 Alpha virt. eigenvalues --    0.21653   0.22101   0.22559   0.22628   0.22878
 Alpha virt. eigenvalues --    0.23371   0.24242   0.24643   0.24805   0.25017
 Alpha virt. eigenvalues --    0.25078   0.25910   0.26196   0.26349   0.26929
 Alpha virt. eigenvalues --    0.27002   0.27415   0.27436   0.28231   0.28410
 Alpha virt. eigenvalues --    0.29206   0.29671   0.30013   0.30876   0.31107
 Alpha virt. eigenvalues --    0.31401   0.31825   0.32238   0.32988   0.33209
 Alpha virt. eigenvalues --    0.33780   0.34410   0.34908   0.36473   0.37068
 Alpha virt. eigenvalues --    0.37592   0.38188   0.38658   0.39564   0.39919
 Alpha virt. eigenvalues --    0.40720   0.41418   0.43178   0.43766   0.44441
 Alpha virt. eigenvalues --    0.45903   0.47376   0.49280   0.49381   0.49980
 Alpha virt. eigenvalues --    0.50686   0.50872   0.53375   0.54493   0.56843
 Alpha virt. eigenvalues --    0.58612   0.59451   0.61515   0.62711   0.63267
 Alpha virt. eigenvalues --    0.63689   0.64074   0.65191   0.65340   0.65853
 Alpha virt. eigenvalues --    0.67234   0.68091   0.69022   0.69560   0.69990
 Alpha virt. eigenvalues --    0.70660   0.71538   0.72579   0.73716   0.74440
 Alpha virt. eigenvalues --    0.75025   0.76751   0.77350   0.77485   0.77913
 Alpha virt. eigenvalues --    0.78864   0.79515   0.80310   0.81407   0.82107
 Alpha virt. eigenvalues --    0.82311   0.82958   0.83745   0.85096   0.85570
 Alpha virt. eigenvalues --    0.86919   0.87404   0.87811   0.88613   0.90099
 Alpha virt. eigenvalues --    0.90422   0.91646   0.91765   0.93009   0.94591
 Alpha virt. eigenvalues --    0.95070   0.95564   0.96843   0.98793   0.99266
 Alpha virt. eigenvalues --    0.99579   1.00752   1.01369   1.02628   1.03751
 Alpha virt. eigenvalues --    1.03940   1.05910   1.06580   1.08167   1.08605
 Alpha virt. eigenvalues --    1.10054   1.11998   1.12679   1.13435   1.14314
 Alpha virt. eigenvalues --    1.14636   1.17156   1.19104   1.23749   1.25951
 Alpha virt. eigenvalues --    1.29370   1.30084   1.33807   1.36125   1.40864
 Alpha virt. eigenvalues --    1.42374   1.43351   1.45049   1.46667   1.48487
 Alpha virt. eigenvalues --    1.49901   1.54371   1.55439   1.57477   1.59326
 Alpha virt. eigenvalues --    1.61220   1.63253   1.63925   1.64816   1.66114
 Alpha virt. eigenvalues --    1.67298   1.68180   1.69536   1.70408   1.71225
 Alpha virt. eigenvalues --    1.73685   1.74052   1.75344   1.77521   1.77759
 Alpha virt. eigenvalues --    1.78808   1.79864   1.81665   1.81745   1.82964
 Alpha virt. eigenvalues --    1.83778   1.86587   1.88480   1.89702   1.90549
 Alpha virt. eigenvalues --    1.91977   1.92525   1.93827   1.95657   1.98809
 Alpha virt. eigenvalues --    2.00468   2.02681   2.03585   2.03865   2.04951
 Alpha virt. eigenvalues --    2.07209   2.07861   2.09262   2.10293   2.11362
 Alpha virt. eigenvalues --    2.15330   2.15429   2.16663   2.17146   2.18048
 Alpha virt. eigenvalues --    2.19555   2.22173   2.22443   2.23226   2.24733
 Alpha virt. eigenvalues --    2.27078   2.31315   2.35389   2.38915   2.42725
 Alpha virt. eigenvalues --    2.45244   2.45546   2.47962   2.53024   2.54215
 Alpha virt. eigenvalues --    2.56327   2.59447   2.60953   2.64095   2.66627
 Alpha virt. eigenvalues --    2.69619   2.71268   2.73753   2.77272   2.77480
 Alpha virt. eigenvalues --    2.79465   2.81079   2.81764   2.82340   2.83949
 Alpha virt. eigenvalues --    2.85780   2.86834   2.88668   2.93602   2.94311
 Alpha virt. eigenvalues --    2.96362   3.02250   3.03009   3.07321   3.08109
 Alpha virt. eigenvalues --    3.09844   3.10982   3.11461   3.14117   3.15718
 Alpha virt. eigenvalues --    3.22476   3.25559   3.31017   3.35499   3.37857
 Alpha virt. eigenvalues --    3.41403   3.46115   3.49749   3.49937   3.58184
 Alpha virt. eigenvalues --    3.66946   3.75536   3.90266   3.91641   4.00419
 Alpha virt. eigenvalues --    4.04049   4.15044   4.20015   4.40791   4.43623
 Alpha virt. eigenvalues --    4.63587   8.04724   8.06876   8.11990  17.41943
 Alpha virt. eigenvalues --   17.42550  17.43859  17.56222  17.58724  17.60353
 Alpha virt. eigenvalues --   17.61904  17.66285  17.66412  23.60629  23.74202
 Alpha virt. eigenvalues --   23.85714  23.89855  23.94864  23.98844  24.01530
 Alpha virt. eigenvalues --   24.07475  24.08943  24.09209  24.11758 189.29084
 Alpha virt. eigenvalues --  189.31590 189.37641
          Condensed to atoms (all electrons):
               1          2          3          4          5          6
     1  C    7.553016   0.023408  -0.510038  -0.136233   0.341337   0.367071
     2  C    0.023408   8.427951   0.158536  -1.960375  -0.058691  -0.033796
     3  C   -0.510038   0.158536   8.411053  -0.124077  -0.046394   0.020042
     4  C   -0.136233  -1.960375  -0.124077   7.908565  -0.249885   0.005728
     5  C    0.341337  -0.058691  -0.046394  -0.249885   5.560050  -0.009426
     6  H    0.367071  -0.033796   0.020042   0.005728  -0.009426   0.491199
     7  S   -0.831854  -0.564916  -1.685908   0.743175   0.014253   0.006512
     8  H    0.018375  -0.015796   0.002006   0.002935   0.392332  -0.003291
     9  C   -0.249287   1.210167  -0.973596  -0.464945   0.147146  -0.003453
    10  S    0.094018   0.277355   0.827030  -0.084338  -0.027087  -0.000600
    11  C   -0.039220  -0.266992  -0.387252  -0.035681   0.002565  -0.000099
    12  C   -0.191010   0.156976   0.318908  -0.059664   0.024176   0.000429
    13  C   -0.396994  -1.738410  -0.599885   0.468301   0.057378   0.002703
    14  H    0.004297   0.048544  -0.004337  -0.000219  -0.000479  -0.000006
    15  S   -0.008827  -0.023219  -0.009489  -0.015643  -0.000169   0.000003
    16  C    0.000267   0.011999  -0.018348  -0.000517  -0.000232   0.000000
    17  C    0.003927  -0.038522   0.076275  -0.003711  -0.001325  -0.000005
    18  H   -0.000002  -0.000088  -0.000072   0.000004   0.000001   0.000000
    19  H    0.000003   0.000076  -0.000542   0.000021   0.000003  -0.000000
    20  H    0.059004  -0.091399  -0.026526   0.425416   0.013143   0.002059
    21  H    0.015046  -0.029252  -0.012235   0.394520   0.001150  -0.000007
    22  H   -0.073349   0.054502   0.033853   0.293863  -0.000104   0.000146
               7          8          9         10         11         12
     1  C   -0.831854   0.018375  -0.249287   0.094018  -0.039220  -0.191010
     2  C   -0.564916  -0.015796   1.210167   0.277355  -0.266992   0.156976
     3  C   -1.685908   0.002006  -0.973596   0.827030  -0.387252   0.318908
     4  C    0.743175   0.002935  -0.464945  -0.084338  -0.035681  -0.059664
     5  C    0.014253   0.392332   0.147146  -0.027087   0.002565   0.024176
     6  H    0.006512  -0.003291  -0.003453  -0.000600  -0.000099   0.000429
     7  S   18.488919  -0.023170   0.155662  -0.494460  -0.060187   0.154439
     8  H   -0.023170   0.442926  -0.006875  -0.000009   0.000032  -0.000177
     9  C    0.155662  -0.006875  10.216389   0.547944  -1.374881   0.914103
    10  S   -0.494460  -0.000009   0.547944  18.118978  -1.094592   1.242889
    11  C   -0.060187   0.000032  -1.374881  -1.094592  13.264578  -5.008369
    12  C    0.154439  -0.000177   0.914103   1.242889  -5.008369  14.466366
    13  C    0.715092  -0.000541  -4.058973  -3.095611   2.072856  -5.386576
    14  H   -0.004077   0.000000   0.155159   0.013726  -0.064513   0.108910
    15  S    0.012960  -0.000000  -0.338428   0.110672   1.013258  -0.655231
    16  C   -0.011790   0.000000   0.067618   0.018280   0.699037  -0.370440
    17  C   -0.014907  -0.000007   0.221199   0.139753  -2.970129   0.546308
    18  H    0.000048   0.000000  -0.004460   0.000441  -0.034805   0.008725
    19  H    0.000166   0.000000   0.001606   0.011943   0.000756  -0.033242
    20  H   -0.000938  -0.000020  -0.005651   0.000220  -0.000616   0.002835
    21  H    0.001523   0.000004  -0.007398  -0.000566  -0.002199  -0.013105
    22  H   -0.000680   0.000004   0.019864   0.001301   0.000081   0.029123
              13         14         15         16         17         18
     1  C   -0.396994   0.004297  -0.008827   0.000267   0.003927  -0.000002
     2  C   -1.738410   0.048544  -0.023219   0.011999  -0.038522  -0.000088
     3  C   -0.599885  -0.004337  -0.009489  -0.018348   0.076275  -0.000072
     4  C    0.468301  -0.000219  -0.015643  -0.000517  -0.003711   0.000004
     5  C    0.057378  -0.000479  -0.000169  -0.000232  -0.001325   0.000001
     6  H    0.002703  -0.000006   0.000003   0.000000  -0.000005   0.000000
     7  S    0.715092  -0.004077   0.012960  -0.011790  -0.014907   0.000048
     8  H   -0.000541   0.000000  -0.000000   0.000000  -0.000007   0.000000
     9  C   -4.058973   0.155159  -0.338428   0.067618   0.221199  -0.004460
    10  S   -3.095611   0.013726   0.110672   0.018280   0.139753   0.000441
    11  C    2.072856  -0.064513   1.013258   0.699037  -2.970129  -0.034805
    12  C   -5.386576   0.108910  -0.655231  -0.370440   0.546308   0.008725
    13  C   17.208439   0.095548  -0.159827  -0.395304   0.284868   0.022100
    14  H    0.095548   0.494134   0.001903   0.001411  -0.009192  -0.000002
    15  S   -0.159827   0.001903  16.622842   0.476228  -0.812654  -0.024544
    16  C   -0.395304   0.001411   0.476228   5.626896  -0.155180   0.366489
    17  C    0.284868  -0.009192  -0.812654  -0.155180   8.479929   0.028837
    18  H    0.022100  -0.000002  -0.024544   0.366489   0.028837   0.438746
    19  H    0.008706   0.000008  -0.001129   0.007440   0.363457  -0.002650
    20  H   -0.003066   0.000285   0.000006   0.000011  -0.000061   0.000000
    21  H    0.012737  -0.000242   0.000291   0.000089  -0.000727  -0.000000
    22  H   -0.014585   0.001305   0.000885  -0.000180   0.000606   0.000000
              19         20         21         22
     1  C    0.000003   0.059004   0.015046  -0.073349
     2  C    0.000076  -0.091399  -0.029252   0.054502
     3  C   -0.000542  -0.026526  -0.012235   0.033853
     4  C    0.000021   0.425416   0.394520   0.293863
     5  C    0.000003   0.013143   0.001150  -0.000104
     6  H   -0.000000   0.002059  -0.000007   0.000146
     7  S    0.000166  -0.000938   0.001523  -0.000680
     8  H    0.000000  -0.000020   0.000004   0.000004
     9  C    0.001606  -0.005651  -0.007398   0.019864
    10  S    0.011943   0.000220  -0.000566   0.001301
    11  C    0.000756  -0.000616  -0.002199   0.000081
    12  C   -0.033242   0.002835  -0.013105   0.029123
    13  C    0.008706  -0.003066   0.012737  -0.014585
    14  H    0.000008   0.000285  -0.000242   0.001305
    15  S   -0.001129   0.000006   0.000291   0.000885
    16  C    0.007440   0.000011   0.000089  -0.000180
    17  C    0.363457  -0.000061  -0.000727   0.000606
    18  H   -0.002650   0.000000  -0.000000   0.000000
    19  H    0.475289   0.000000  -0.000000  -0.000000
    20  H    0.000000   0.506779  -0.019902  -0.024425
    21  H   -0.000000  -0.019902   0.493837  -0.029019
    22  H   -0.000000  -0.024425  -0.029019   0.533903
 Mulliken charges:
               1
     1  C   -0.042955
     2  C    0.451940
     3  C    0.550994
     4  C   -1.107240
     5  C   -0.159742
     6  H    0.154789
     7  S   -0.599859
     8  H    0.191271
     9  C   -0.168912
    10  S   -0.607287
    11  C    0.286371
    12  C   -0.256372
    13  C    0.901044
    14  H    0.157834
    15  S   -0.189888
    16  C   -0.323774
    17  C   -0.138738
    18  H    0.201231
    19  H    0.168089
    20  H    0.162844
    21  H    0.195455
    22  H    0.172905
 Sum of Mulliken charges =  -0.00000
 Mulliken charges with hydrogens summed into heavy atoms:
               1
     1  C    0.111834
     2  C    0.451940
     3  C    0.550994
     4  C   -0.576035
     5  C    0.031529
     7  S   -0.599859
     9  C   -0.168912
    10  S   -0.607287
    11  C    0.286371
    12  C   -0.256372
    13  C    1.058879
    15  S   -0.189888
    16  C   -0.122543
    17  C    0.029350
 Electronic spatial extent (au):  <R**2>=           4434.1249
 Charge=             -0.0000 electrons
 Dipole moment (field-independent basis, Debye):
    X=              0.6169    Y=              1.1936    Z=              1.3072  Tot=              1.8746
 Quadrupole moment (field-independent basis, Debye-Ang):
   XX=            -88.7387   YY=            -96.0546   ZZ=           -109.1333
   XY=              3.9992   XZ=             -3.9133   YZ=             -1.2944
 Traceless Quadrupole moment (field-independent basis, Debye-Ang):
   XX=              9.2369   YY=              1.9209   ZZ=            -11.1578
   XY=              3.9992   XZ=             -3.9133   YZ=             -1.2944
 Octapole moment (field-independent basis, Debye-Ang**2):
  XXX=             24.2697  YYY=              7.4263  ZZZ=              3.0553  XYY=              8.7036
  XXY=             -5.0532  XXZ=             32.7383  XZZ=             -6.0785  YZZ=              0.3270
  YYZ=              5.0234  XYZ=              8.0914
 Hexadecapole moment (field-independent basis, Debye-Ang**3):
 XXXX=          -4286.1273 YYYY=          -1160.9659 ZZZZ=           -192.9198 XXXY=            -13.2434
 XXXZ=           -110.4380 YYYX=             28.4788 YYYZ=            -11.2358 ZZZX=             -8.9881
 ZZZY=              0.7845 XXYY=           -937.8979 XXZZ=           -896.2565 YYZZ=           -234.8804
 XXYZ=             -6.1863 YYXZ=             -9.1590 ZZXY=              0.6249
 N-N= 1.108119698005D+03 E-N=-6.039270994089D+03  KE= 1.613980844945D+03
 Calling FoFJK, ICntrl=      2127 FMM=F ISym2X=0 I1Cent= 0 IOpClX= 0 NMat=1 NMatS=1 NMatT=0.
 ***** Axes restored to original set *****
 -------------------------------------------------------------------
 Center     Atomic                   Forces (Hartrees/Bohr)
 Number     Number              X              Y              Z
 -------------------------------------------------------------------
      1        6           0.024566551   -0.063268966    0.008231101
      2        6           0.014724952   -0.045945276    0.006911505
      3        6          -0.045852260    0.014765392    0.007571476
      4        6           0.007907392    0.005100800    0.002459508
      5        6           0.013188238    0.053980545   -0.016218571
      6        1          -0.000833762    0.002037461   -0.000154082
      7       16          -0.006882180    0.029341347   -0.003362690
      8        1           0.003112274   -0.004484314    0.000485805
      9        6           0.045987286    0.044344151   -0.009016716
     10       16          -0.006425109    0.015791710    0.012602817
     11        6           0.004775013    0.038755386   -0.013474073
     12        6          -0.027570768   -0.032674241   -0.009304564
     13        6          -0.030253262   -0.050903490    0.002326941
     14        1          -0.002553177    0.000248488    0.005733802
     15       16           0.010818110   -0.021400565   -0.000339280
     16        6          -0.041739497   -0.043601280    0.022423959
     17        6           0.022955041    0.053265227   -0.022001195
     18        1           0.003924403    0.003657622    0.005080693
     19        1           0.006848119    0.001551834    0.006351857
     20        1          -0.000466313   -0.002421588    0.000273490
     21        1           0.004314475    0.001803060   -0.002663716
     22        1          -0.000545526    0.000056698   -0.003918067
 -------------------------------------------------------------------
 Cartesian Forces:  Max     0.063268966 RMS     0.022822074

 GradGradGradGradGradGradGradGradGradGradGradGradGradGradGradGradGradGrad
 Berny optimization.
 FormGI is forming the generalized inverse of G from B-inverse, IUseBI=4.
 Internal  Forces:  Max     0.067886630 RMS     0.013989494
 Search for a local minimum.
 Step number   1 out of a maximum of  127
 All quantities printed in internal units (Hartrees-Bohrs-Radians)
 Mixed Optimization -- RFO/linear search
 Second derivative matrix not updated -- first step.
 ITU=  0
     Eigenvalues ---    0.00935   0.00982   0.01061   0.01215   0.01242
     Eigenvalues ---    0.01277   0.01299   0.01421   0.01457   0.01495
     Eigenvalues ---    0.01498   0.01592   0.01596   0.01772   0.02201
     Eigenvalues ---    0.02654   0.07307   0.07353   0.15075   0.15689
     Eigenvalues ---    0.15739   0.15997   0.16000   0.16000   0.16000
     Eigenvalues ---    0.16000   0.17987   0.22443   0.22545   0.23318
     Eigenvalues ---    0.23979   0.24718   0.24977   0.24995   0.25000
     Eigenvalues ---    0.26147   0.26586   0.28392   0.30920   0.31302
     Eigenvalues ---    0.31588   0.33757   0.33818   0.34533   0.34836
     Eigenvalues ---    0.34935   0.35189   0.35844   0.35877   0.36006
     Eigenvalues ---    0.36138   0.36185   0.36334   0.37598   0.38280
     Eigenvalues ---    0.38438   0.39458   0.39703   0.406621000.00000
     Eigenvalues --- 1000.000001000.000001000.000001000.000001000.00000
     Eigenvalues --- 1000.000001000.000001000.000001000.000001000.00000
     Eigenvalues --- 1000.000001000.000001000.000001000.000001000.00000
     Eigenvalues --- 1000.000001000.000001000.000001000.000001000.00000
     Eigenvalues --- 1000.000001000.000001000.000001000.000001000.00000
     Eigenvalues --- 1000.000001000.000001000.000001000.000001000.00000
     Eigenvalues --- 1000.000001000.000001000.000001000.000001000.00000
     Eigenvalues --- 1000.000001000.000001000.000001000.000001000.00000
     Eigenvalues --- 1000.000001000.000001000.000001000.000001000.00000
     Eigenvalues --- 1000.000001000.000001000.000001000.000001000.00000
     Eigenvalues --- 1000.000001000.000001000.000001000.000001000.00000
     Eigenvalues --- 1000.000001000.00000
 RFO step:  Lambda=-6.00671689D-02 EMin= 9.35106172D-03
 Linear search not attempted -- first point.
 Maximum step size (   0.300) exceeded in Quadratic search.
    -- Step size scaled by   0.817
 Iteration  1 RMS(Cart)=  0.08518827 RMS(Int)=  0.00183190
 Iteration  2 RMS(Cart)=  0.00308293 RMS(Int)=  0.00048401
 Iteration  3 RMS(Cart)=  0.00000441 RMS(Int)=  0.00048400
 Iteration  4 RMS(Cart)=  0.00000000 RMS(Int)=  0.00048400
 Iteration  1 RMS(Cart)=  0.00001071 RMS(Int)=  0.00000401
 Iteration  2 RMS(Cart)=  0.00000584 RMS(Int)=  0.00000448
 Iteration  3 RMS(Cart)=  0.00000319 RMS(Int)=  0.00000506
 Iteration  4 RMS(Cart)=  0.00000174 RMS(Int)=  0.00000544
 Iteration  5 RMS(Cart)=  0.00000095 RMS(Int)=  0.00000566
 Variable       Old X    -DE/DX   Delta X   Delta X   Delta X     New X
                                 (Linear)    (Quad)   (Total)
    R1        2.71917  -0.01810   0.00000  -0.03445  -0.03439   2.68478
    R2        2.71391  -0.05798   0.00000  -0.10396  -0.10402   2.60990
    R3        2.03793   0.00189   0.00000   0.00367   0.00367   2.04159
    R4        2.75906  -0.06446   0.00000  -0.12306  -0.12296   2.63610
    R5        2.81042   0.00727   0.00000   0.01494   0.01494   2.82537
    R6        3.39578  -0.02647   0.00000  -0.06422  -0.06421   3.33158
    R7        2.74954  -0.01341   0.00000  -0.02514  -0.02514   2.72440
    R8        2.06439  -0.00096   0.00000  -0.00194  -0.00194   2.06245
    R9        2.05781   0.00392   0.00000   0.00783   0.00783   2.06564
   R10        2.07638  -0.00269   0.00000  -0.00551  -0.00551   2.07087
   R11        3.28671  -0.02169   0.00000  -0.04576  -0.04586   3.24086
   R12        2.04073  -0.00034   0.00000  -0.00065  -0.00065   2.04008
   R13        3.38224  -0.01828   0.00000  -0.04126  -0.04175   3.34050
   R14        2.76665  -0.06789   0.00000  -0.13027  -0.13052   2.63613
   R15        3.26900  -0.00489   0.00000  -0.00938  -0.00931   3.25969
   R16        2.72339  -0.04041   0.00000  -0.07661  -0.07569   2.64770
   R17        2.69431  -0.00339   0.00000  -0.00830  -0.00790   2.68641
   R18        2.70718  -0.01263   0.00000  -0.02475  -0.02446   2.68272
   R19        3.27397  -0.00452   0.00000  -0.00794  -0.00802   3.26595
   R20        2.03867   0.00100   0.00000   0.00193   0.00193   2.04060
   R21        3.33555  -0.01784   0.00000  -0.03864  -0.03914   3.29641
   R22        2.73058  -0.06543   0.00000  -0.11950  -0.11963   2.61095
   R23        2.04326  -0.00120   0.00000  -0.00234  -0.00234   2.04092
   R24        2.05369  -0.00394   0.00000  -0.00781  -0.00781   2.04589
    A1        1.97020   0.00714   0.00000   0.01496   0.01497   1.98517
    A2        2.17330  -0.00472   0.00000  -0.01175  -0.01175   2.16155
    A3        2.13967  -0.00242   0.00000  -0.00320  -0.00321   2.13647
    A4        1.97187  -0.00211   0.00000  -0.00969  -0.00953   1.96234
    A5        2.09905   0.01310   0.00000   0.03659   0.03652   2.13556
    A6        2.21227  -0.01099   0.00000  -0.02690  -0.02698   2.18529
    A7        1.90440   0.00564   0.00000   0.01642   0.01653   1.92093
    A8        2.31891  -0.01541   0.00000  -0.04146  -0.04152   2.27740
    A9        2.05972   0.00978   0.00000   0.02496   0.02489   2.08461
   A10        1.94548  -0.00357   0.00000  -0.01219  -0.01216   1.93333
   A11        1.93409   0.00244   0.00000   0.00859   0.00859   1.94269
   A12        1.93331   0.00257   0.00000   0.00894   0.00895   1.94226
   A13        1.87410   0.00117   0.00000   0.00547   0.00550   1.87960
   A14        1.86607   0.00097   0.00000   0.00453   0.00455   1.87063
   A15        1.90848  -0.00374   0.00000  -0.01589  -0.01590   1.89257
   A16        1.95339  -0.00272   0.00000  -0.00857  -0.00871   1.94467
   A17        2.17580   0.00694   0.00000   0.02505   0.02512   2.20092
   A18        2.15384  -0.00421   0.00000  -0.01638  -0.01631   2.13753
   A19        1.62490  -0.00795   0.00000  -0.01309  -0.01324   1.61165
   A20        2.12893  -0.00262   0.00000  -0.00689  -0.00692   2.12200
   A21        2.24034  -0.00475   0.00000  -0.01253  -0.01257   2.22777
   A22        1.91320   0.00742   0.00000   0.01983   0.01985   1.93305
   A23        1.61945  -0.00628   0.00000  -0.01276  -0.01244   1.60700
   A24        1.96115  -0.01028   0.00000  -0.02225  -0.02301   1.93814
   A25        2.23921   0.00758   0.00000   0.03720   0.03542   2.27462
   A26        1.96538   0.00632   0.00000   0.01656   0.01682   1.98220
   A27        1.96626   0.00789   0.00000   0.01938   0.01931   1.98557
   A28        1.96648  -0.01326   0.00000  -0.02951  -0.03025   1.93623
   A29        2.23689   0.00902   0.00000   0.04154   0.03997   2.27686
   A30        1.96395   0.00125   0.00000  -0.00417  -0.00368   1.96026
   A31        2.16078  -0.00369   0.00000  -0.00721  -0.00786   2.15292
   A32        2.14676   0.00301   0.00000   0.01769   0.01702   2.16378
   A33        1.59306   0.00076   0.00000   0.00438   0.00471   1.59776
   A34        1.96012   0.00131   0.00000   0.00226   0.00204   1.96216
   A35        2.13592  -0.00432   0.00000  -0.01166  -0.01248   2.12344
   A36        2.17014   0.00408   0.00000   0.02019   0.01950   2.18964
   A37        1.93944   0.00487   0.00000   0.00623   0.00659   1.94603
   A38        2.16516   0.00048   0.00000   0.01431   0.01292   2.17808
   A39        2.14174  -0.00342   0.00000  -0.00121  -0.00270   2.13904
    D1        0.00683  -0.00004   0.00000  -0.00215  -0.00218   0.00465
    D2       -3.13456  -0.00017   0.00000  -0.00379  -0.00383  -3.13840
    D3       -3.13952   0.00009   0.00000   0.00028   0.00025  -3.13927
    D4        0.00227  -0.00004   0.00000  -0.00136  -0.00141   0.00086
    D5       -0.00671   0.00050   0.00000   0.00545   0.00542  -0.00129
    D6       -3.13020  -0.00011   0.00000  -0.00087  -0.00090  -3.13110
    D7        3.13954   0.00038   0.00000   0.00310   0.00306  -3.14059
    D8        0.01605  -0.00024   0.00000  -0.00322  -0.00326   0.01279
    D9       -0.00388  -0.00035   0.00000  -0.00184  -0.00185  -0.00573
   D10        3.11762  -0.00009   0.00000  -0.00646  -0.00642   3.11121
   D11        3.13750  -0.00021   0.00000  -0.00007  -0.00013   3.13737
   D12       -0.02418   0.00005   0.00000  -0.00468  -0.00470  -0.02888
   D13        0.03777  -0.00030   0.00000  -0.00372  -0.00373   0.03404
   D14       -2.04840  -0.00104   0.00000  -0.00831  -0.00831  -2.05670
   D15        2.11332   0.00030   0.00000  -0.00008  -0.00010   2.11322
   D16       -3.10360  -0.00045   0.00000  -0.00561  -0.00561  -3.10920
   D17        1.09342  -0.00119   0.00000  -0.01020  -0.01018   1.08324
   D18       -1.02805   0.00015   0.00000  -0.00196  -0.00197  -1.03002
   D19        0.00006   0.00058   0.00000   0.00426   0.00423   0.00429
   D20       -3.12486   0.00069   0.00000   0.00896   0.00909  -3.11577
   D21       -2.79216  -0.00149   0.00000   0.00000  -0.00000  -2.79216
   D22        0.30448   0.00046   0.00000   0.01347   0.01352   0.31800
   D23        0.32793  -0.00129   0.00000  -0.00511  -0.00510   0.32283
   D24       -2.85862   0.00067   0.00000   0.00836   0.00843  -2.85019
   D25        0.00376  -0.00061   0.00000  -0.00557  -0.00548  -0.00172
   D26        3.12751   0.00013   0.00000   0.00116   0.00108   3.12859
   D27        3.13760   0.00102   0.00000   0.00945   0.00947  -3.13611
   D28        0.03343  -0.00037   0.00000  -0.00112  -0.00133   0.03210
   D29       -3.13902  -0.00156   0.00000  -0.01228  -0.01212   3.13204
   D30       -0.15721   0.00264   0.00000   0.03218   0.03216  -0.12505
   D31       -0.03791   0.00002   0.00000  -0.00062  -0.00027  -0.03818
   D32        2.94390   0.00423   0.00000   0.04385   0.04401   2.98791
   D33       -0.02107   0.00103   0.00000   0.00358   0.00359  -0.01748
   D34       -2.61665  -0.00772   0.00000  -0.06590  -0.06609  -2.68274
   D35        0.00253  -0.00081   0.00000  -0.00385  -0.00370  -0.00117
   D36       -2.68815  -0.01013   0.00000  -0.07342  -0.07163  -2.75978
   D37        2.68689   0.00792   0.00000   0.06347   0.06224   2.74913
   D38       -0.00378  -0.00140   0.00000  -0.00610  -0.00569  -0.00948
   D39        2.61299   0.00584   0.00000   0.06649   0.06767   2.68066
   D40       -0.24613  -0.00089   0.00000  -0.00535  -0.00486  -0.25100
   D41        0.01847   0.00125   0.00000   0.00662   0.00636   0.02483
   D42       -2.84064  -0.00548   0.00000  -0.06522  -0.06618  -2.90682
   D43        0.02344   0.00055   0.00000   0.00283   0.00257   0.02602
   D44       -2.95985  -0.00291   0.00000  -0.03861  -0.03938  -2.99923
   D45        2.62817   0.00450   0.00000   0.06159   0.06293   2.69111
   D46       -0.35513   0.00104   0.00000   0.02014   0.02098  -0.33415
   D47       -0.00915   0.00116   0.00000   0.00342   0.00324  -0.00591
   D48       -2.61382  -0.00805   0.00000  -0.06749  -0.06752  -2.68134
   D49        0.01975  -0.00032   0.00000   0.00060   0.00058   0.02033
   D50        2.97201   0.00605   0.00000   0.06241   0.06173   3.03374
   D51       -0.02527  -0.00035   0.00000  -0.00396  -0.00368  -0.02895
   D52        2.83829   0.00699   0.00000   0.06968   0.06989   2.90817
   D53       -2.97316  -0.00579   0.00000  -0.06307  -0.06341  -3.03657
   D54       -0.10960   0.00156   0.00000   0.01056   0.01016  -0.09945
         Item               Value     Threshold  Converged?
 Maximum Force            0.067884     0.000450     NO 
 RMS     Force            0.014048     0.000300     NO 
 Maximum Displacement     0.278443     0.001800     NO 
 RMS     Displacement     0.085581     0.001200     NO 
 Predicted change in Energy=-3.323029D-02
 GradGradGradGradGradGradGradGradGradGradGradGradGradGradGradGradGradGrad

                          Input orientation:                          
 ---------------------------------------------------------------------
 Center     Atomic      Atomic             Coordinates (Angstroms)
 Number     Number       Type             X           Y           Z
 ---------------------------------------------------------------------
      1          6           0       -4.191110   -1.377324   -0.191569
      2          6           0       -2.887168   -0.996168   -0.607392
      3          6           0       -1.996875   -2.070031   -0.618752
      4          6           0       -2.546656    0.409880   -0.984838
      5          6           0       -4.306145   -2.718266    0.118390
      6          1           0       -5.023451   -0.692505   -0.117943
      7         16           0       -2.816555   -3.540698   -0.095866
      8          1           0       -5.203923   -3.220868    0.445252
      9          6           0       -0.608208   -2.130602   -1.001374
     10         16           0        0.169162   -3.660336   -1.426137
     11          6           0        1.682100   -2.883594   -1.714487
     12          6           0        1.583872   -1.500385   -1.514043
     13          6           0        0.287308   -1.068703   -1.129416
     14          1           0       -0.006346   -0.032206   -1.055314
     15         16           0        2.840843   -0.663697   -2.354806
     16          6           0        3.497241   -2.161858   -2.961055
     17          6           0        2.764248   -3.260676   -2.555726
     18          1           0        4.308209   -2.178107   -3.674140
     19          1           0        2.890234   -4.240607   -2.998402
     20          1           0       -3.410915    1.064451   -0.859335
     21          1           0       -2.229308    0.475146   -2.028807
     22          1           0       -1.744558    0.808155   -0.353240
 ---------------------------------------------------------------------
                    Distance matrix (angstroms):
                    1          2          3          4          5
     1  C    0.000000
     2  C    1.420723   0.000000
     3  C    2.340298   1.394966   0.000000
     4  C    2.554917   1.495120   2.566365   0.000000
     5  C    1.381098   2.346460   2.509246   3.754758   0.000000
     6  H    1.080365   2.212572   3.362818   2.846273   2.161964
     7  S    2.564907   2.596397   1.762994   4.058347   1.714987
     8  H    2.197723   3.380044   3.569550   4.721076   1.079561
     9  C    3.749720   2.576009   1.441689   3.195606   3.908192
    10  S    5.074276   4.136337   2.805826   4.912949   4.827156
    11  C    6.251618   5.066187   3.923950   5.409412   6.264652
    12  C    5.925749   4.589820   3.734674   4.581531   6.232204
    13  C    4.585960   3.217929   2.545767   3.199759   5.037647
    14  H    4.479693   3.070667   2.881931   2.579454   5.203919
    15  S    7.391700   5.997842   5.328712   5.661672   7.836925
    16  C    8.209524   6.903567   5.973284   6.859151   8.407461
    17  C    7.583749   6.392378   5.276153   6.644273   7.578625
    18  H    9.219977   7.910460   7.007222   7.805075   9.427733
    19  H    8.137699   7.044266   5.853031   7.432445   7.988729
    20  H    2.648940   2.141014   3.447081   1.091403   4.008283
    21  H    3.264315   2.148945   2.918938   1.093087   4.372823
    22  H    3.284520   2.150752   2.901398   1.095856   4.384040
                    6          7          8          9         10
     6  H    0.000000
     7  S    3.603205   0.000000
     8  H    2.596609   2.468730   0.000000
     9  C    4.726833   2.772204   4.939839   0.000000
    10  S    6.122306   3.270847   5.706599   1.767714   0.000000
    11  C    7.232859   4.825932   7.224648   2.514168   1.724951
    12  C    6.801359   5.053499   7.271386   2.337780   2.583509
    13  C    5.419295   4.100360   6.104507   1.394981   2.611238
    14  H    5.146456   4.596448   6.279656   2.183669   3.651252
    15  S    8.176277   6.736920   8.893689   3.984914   4.120698
    16  C    9.101894   7.069266   9.403971   4.549289   3.959484
    17  C    8.554913   6.105299   8.514646   3.881563   2.858351
    18  H   10.096208   8.088445  10.418128   5.596167   4.937836
    19  H    9.138517   6.440654   8.855168   4.547454   3.195773
    20  H    2.497364   4.705693   4.825017   4.252494   5.954984
    21  H    3.580788   4.495344   5.350684   3.236279   4.818514
    22  H    3.613652   4.486417   5.370086   3.216778   4.978036
                   11         12         13         14         15
    11  C    0.000000
    12  C    1.401104   0.000000
    13  C    2.362538   1.419636   0.000000
    14  H    3.378723   2.212413   1.079837   0.000000
    15  S    2.584692   1.728267   2.861145   3.192796   0.000000
    16  C    2.317233   2.488448   3.854032   4.521326   1.744386
    17  C    1.421589   2.361570   3.601991   4.511146   2.605865
    18  H    3.351775   3.542222   4.886107   5.484389   2.487417
    19  H    2.224750   3.379160   4.508804   5.465932   3.634686
    20  H    6.500550   5.652869   4.277867   3.582200   6.656382
    21  H    5.165176   4.325279   3.086377   2.479244   5.206695
    22  H    5.217661   4.213699   2.872894   2.054385   5.215220
                   16         17         18         19         20
    16  C    0.000000
    17  C    1.381655   0.000000
    18  H    1.080011   2.192401   0.000000
    19  H    2.165883   1.082636   2.592524   0.000000
    20  H    7.908788   7.727684   8.833017   8.510214   0.000000
    21  H    6.373086   6.258562   7.244722   7.027670   1.763843
    22  H    6.564916   6.460314   7.522109   7.346304   1.760275
                   21         22
    21  H    0.000000
    22  H    1.775781   0.000000
 Stoichiometry    C11H8S3
 Framework group  C1[X(C11H8S3)]
 Deg. of freedom    60
 Full point group                 C1      NOp   1
 Largest Abelian subgroup         C1      NOp   1
 Largest concise Abelian subgroup C1      NOp   1
                         Standard orientation:                         
 ---------------------------------------------------------------------
 Center     Atomic      Atomic             Coordinates (Angstroms)
 Number     Number       Type             X           Y           Z
 ---------------------------------------------------------------------
      1          6           0        3.909052    0.839796    0.203479
      2          6           0        2.529034    1.171288    0.139304
      3          6           0        1.721402    0.051740   -0.061379
      4          6           0        2.036195    2.576015    0.277996
      5          6           0        4.164747   -0.508673    0.049589
      6          1           0        4.695587    1.564640    0.355640
      7         16           0        2.716415   -1.399170   -0.175198
      8          1           0        5.136323   -0.978695    0.073544
      9          6           0        0.287177   -0.063747   -0.151535
     10         16           0       -0.535516   -1.606635    0.108248
     11          6           0       -2.083655   -0.900220   -0.174070
     12          6           0       -1.970791    0.471896   -0.434167
     13          6           0       -0.635132    0.951958   -0.403851
     14          1           0       -0.368201    1.997034   -0.454974
     15         16           0       -3.462250    1.285375   -0.116821
     16          6           0       -4.231937   -0.208429    0.351168
     17          6           0       -3.369954   -1.286591    0.291835
     18          1           0       -5.232112   -0.227603    0.758236
     19          1           0       -3.602558   -2.243894    0.740799
     20          1           0        2.871000    3.269410    0.394020
     21          1           0        1.389394    2.685527    1.152350
     22          1           0        1.475377    2.890253   -0.609494
 ---------------------------------------------------------------------
 Rotational constants (GHZ):           1.2582006           0.2880762           0.2375355
 Standard basis: 6-311+G(d,p) (5D, 7F)
 There are   394 symmetry adapted cartesian basis functions of A   symmetry.
 There are   380 symmetry adapted basis functions of A   symmetry.
   380 basis functions,   610 primitive gaussians,   394 cartesian basis functions
    61 alpha electrons       61 beta electrons
       nuclear repulsion energy      1126.5057726765 Hartrees.
 NAtoms=   22 NActive=   22 NUniq=   22 SFac= 1.00D+00 NAtFMM=   60 NAOKFM=F Big=F
 Integral buffers will be    131072 words long.
 Raffenetti 2 integral format.
 Two-electron integral symmetry is turned on.
 Nuclear repulsion after empirical dispersion term =     1126.4929929702 Hartrees.
 One-electron integrals computed using PRISM.
 NBasis=   380 RedAO= T EigKep=  1.37D-06  NBF=   380
 NBsUse=   378 1.00D-06 EigRej=  6.83D-07 NBFU=   378
 Initial guess from the checkpoint file:  "/tmp/pbs.4762230[15].pbs/Gau-2353310.chk"
 B after Tr=     0.000000    0.000000   -0.000000
         Rot=    0.999991   -0.000167    0.001251   -0.003989 Ang=  -0.48 deg.
 ExpMin= 4.05D-02 ExpMax= 9.34D+04 ExpMxC= 3.17D+03 IAcc=3 IRadAn=         5 AccDes= 0.00D+00
 Harris functional with IExCor= 4639 and IRadAn=       5 diagonalized for initial guess.
 HarFok:  IExCor= 4639 AccDes= 0.00D+00 IRadAn=         5 IDoV= 1 UseB2=F ITyADJ=14
 ICtDFT=  3500011 ScaDFX=  1.000000  1.000000  1.000000  1.000000
 FoFCou: FMM=F IPFlag=           0 FMFlag=      100000 FMFlg1=           0
         NFxFlg=           0 DoJE=T BraDBF=F KetDBF=T FulRan=T
         wScrn=  0.000000 ICntrl=       500 IOpCl=  0 I1Cent=   200000004 NGrid=           0
         NMat0=    1 NMatS0=      1 NMatT0=    0 NMatD0=    1 NMtDS0=    0 NMtDT0=    0
 Petite list used in FoFCou.
 Requested convergence on RMS density matrix=1.00D-08 within 128 cycles.
 Requested convergence on MAX density matrix=1.00D-06.
 Requested convergence on             energy=1.00D-06.
 No special actions if energy rises.
 SCF Done:  E(RwB97XD) =  -1618.49386118     A.U. after   16 cycles
            NFock= 16  Conv=0.47D-08     -V/T= 2.0022
 Calling FoFJK, ICntrl=      2127 FMM=F ISym2X=0 I1Cent= 0 IOpClX= 0 NMat=1 NMatS=1 NMatT=0.
 ***** Axes restored to original set *****
 -------------------------------------------------------------------
 Center     Atomic                   Forces (Hartrees/Bohr)
 Number     Number              X              Y              Z
 -------------------------------------------------------------------
      1        6           0.000735937   -0.021247390    0.005136656
      2        6           0.009542996   -0.010274963    0.000788409
      3        6          -0.022689362   -0.002960167    0.005287025
      4        6           0.000952260    0.003124719    0.000907775
      5        6           0.001653291    0.020298196   -0.006002495
      6        1          -0.000372170    0.001832281   -0.000279392
      7       16           0.001636925    0.007995987   -0.001562810
      8        1           0.002054173   -0.002883837    0.000497467
      9        6           0.023701404    0.016883875   -0.004794481
     10       16          -0.005244120    0.002018540    0.008998036
     11        6          -0.002421811    0.016038227   -0.008177660
     12        6          -0.007359100   -0.014079877   -0.011156474
     13        6          -0.012560068   -0.015088371    0.001892125
     14        1           0.001715823   -0.001415972    0.004186168
     15       16           0.009687104   -0.002647562    0.001450182
     16        6          -0.016409275   -0.015553882    0.006388392
     17        6           0.008785357    0.016034033   -0.010736141
     18        1           0.002733197    0.003126135    0.003459360
     19        1           0.003953540   -0.001043800    0.005629716
     20        1          -0.000552701   -0.000767201   -0.000227337
     21        1           0.002108888    0.000277189   -0.000443881
     22        1          -0.001652288    0.000333840   -0.001240642
 -------------------------------------------------------------------
 Cartesian Forces:  Max     0.023701404 RMS     0.008762578

 GradGradGradGradGradGradGradGradGradGradGradGradGradGradGradGradGradGrad
 Berny optimization.
 Using GEDIIS/GDIIS optimizer.
 FormGI is forming the generalized inverse of G from B-inverse, IUseBI=4.
 Internal  Forces:  Max     0.020134508 RMS     0.004446407
 Search for a local minimum.
 Step number   2 out of a maximum of  127
 All quantities printed in internal units (Hartrees-Bohrs-Radians)
 Mixed Optimization -- RFO/linear search
 Update second derivatives using D2CorX and points    1    2
 DE= -3.33D-02 DEPred=-3.32D-02 R= 1.00D+00
 TightC=F SS=  1.41D+00  RLast= 3.73D-01 DXNew= 5.0454D-01 1.1188D+00
 Trust test= 1.00D+00 RLast= 3.73D-01 DXMaxT set to 5.05D-01
 ITU=  1  0
 Use linear search instead of GDIIS.
     Eigenvalues ---    0.00934   0.00981   0.01053   0.01210   0.01242
     Eigenvalues ---    0.01273   0.01291   0.01379   0.01462   0.01478
     Eigenvalues ---    0.01499   0.01586   0.01592   0.01705   0.02023
     Eigenvalues ---    0.02306   0.07251   0.07371   0.15501   0.15743
     Eigenvalues ---    0.15864   0.15961   0.16000   0.16000   0.16000
     Eigenvalues ---    0.16014   0.18890   0.22462   0.22546   0.23460
     Eigenvalues ---    0.24147   0.24451   0.24766   0.24996   0.25252
     Eigenvalues ---    0.26268   0.26677   0.28371   0.30923   0.31100
     Eigenvalues ---    0.31491   0.33666   0.33804   0.34532   0.34649
     Eigenvalues ---    0.34934   0.35189   0.35552   0.35844   0.36006
     Eigenvalues ---    0.36114   0.36180   0.36327   0.36824   0.38255
     Eigenvalues ---    0.39083   0.39545   0.40488   0.440801000.00000
     Eigenvalues --- 1000.000001000.000001000.000001000.000001000.00000
     Eigenvalues --- 1000.000001000.000001000.000001000.000001000.00000
     Eigenvalues --- 1000.000001000.000001000.000001000.000001000.00000
     Eigenvalues --- 1000.000001000.000001000.000001000.000001000.00000
     Eigenvalues --- 1000.000001000.000001000.000001000.000001000.00000
     Eigenvalues --- 1000.000001000.000001000.000001000.000001000.00000
     Eigenvalues --- 1000.000001000.000001000.000001000.000001000.00000
     Eigenvalues --- 1000.000001000.000001000.000001000.000001000.00000
     Eigenvalues --- 1000.000001000.000001000.000001000.000001000.00000
     Eigenvalues --- 1000.000001000.000001000.000001000.000001000.00000
     Eigenvalues --- 1000.000001000.000001000.000001000.000001000.00000
     Eigenvalues --- 1000.000001000.00000
 RFO step:  Lambda=-8.28967820D-03 EMin= 9.33967992D-03
 Quartic linear search produced a step of  0.37910.
 Iteration  1 RMS(Cart)=  0.09347145 RMS(Int)=  0.00622823
 Iteration  2 RMS(Cart)=  0.00866398 RMS(Int)=  0.00211872
 Iteration  3 RMS(Cart)=  0.00004235 RMS(Int)=  0.00211840
 Iteration  4 RMS(Cart)=  0.00000004 RMS(Int)=  0.00211840
 Iteration  1 RMS(Cart)=  0.00002788 RMS(Int)=  0.00001049
 Iteration  2 RMS(Cart)=  0.00001526 RMS(Int)=  0.00001172
 Iteration  3 RMS(Cart)=  0.00000836 RMS(Int)=  0.00001324
 Iteration  4 RMS(Cart)=  0.00000458 RMS(Int)=  0.00001425
 Iteration  5 RMS(Cart)=  0.00000251 RMS(Int)=  0.00001484
 Iteration  6 RMS(Cart)=  0.00000137 RMS(Int)=  0.00001518
 Iteration  7 RMS(Cart)=  0.00000075 RMS(Int)=  0.00001537
 Variable       Old X    -DE/DX   Delta X   Delta X   Delta X     New X
                                 (Linear)    (Quad)   (Total)
    R1        2.68478   0.00032  -0.01304   0.01753   0.00451   2.68928
    R2        2.60990  -0.01826  -0.03943  -0.01003  -0.04951   2.56039
    R3        2.04159   0.00143   0.00139   0.00339   0.00478   2.04638
    R4        2.63610  -0.01367  -0.04661   0.01310  -0.03346   2.60264
    R5        2.82537   0.00325   0.00567   0.00507   0.01074   2.83611
    R6        3.33158  -0.00968  -0.02434  -0.01182  -0.03614   3.29544
    R7        2.72440   0.00692  -0.00953   0.03699   0.02746   2.75185
    R8        2.06245  -0.00005  -0.00073   0.00080   0.00007   2.06252
    R9        2.06564   0.00105   0.00297   0.00002   0.00299   2.06862
   R10        2.07087  -0.00180  -0.00209  -0.00423  -0.00632   2.06455
   R11        3.24086  -0.00362  -0.01738   0.00865  -0.00878   3.23207
   R12        2.04008  -0.00022  -0.00025  -0.00046  -0.00071   2.03936
   R13        3.34050  -0.00603  -0.01583   0.00220  -0.01601   3.32448
   R14        2.63613  -0.02013  -0.04948  -0.00367  -0.05458   2.58155
   R15        3.25969   0.00202  -0.00353   0.01148   0.00849   3.26817
   R16        2.64770  -0.01301  -0.02869  -0.01786  -0.04234   2.60537
   R17        2.68641   0.00181  -0.00299   0.00644   0.00490   2.69132
   R18        2.68272   0.00062  -0.00927   0.01075   0.00279   2.68551
   R19        3.26595   0.00226  -0.00304   0.01267   0.00951   3.27546
   R20        2.04060  -0.00154   0.00073  -0.00662  -0.00589   2.03471
   R21        3.29641  -0.00582  -0.01484   0.00190  -0.01489   3.28152
   R22        2.61095  -0.01980  -0.04535  -0.00538  -0.05141   2.55953
   R23        2.04092  -0.00028  -0.00089   0.00015  -0.00074   2.04019
   R24        2.04589  -0.00089  -0.00296   0.00060  -0.00236   2.04352
    A1        1.98517   0.00121   0.00567  -0.00404   0.00163   1.98680
    A2        2.16155  -0.00187  -0.00446  -0.00542  -0.00987   2.15168
    A3        2.13647   0.00066  -0.00122   0.00945   0.00824   2.14470
    A4        1.96234  -0.00151  -0.00361  -0.00302  -0.00658   1.95576
    A5        2.13556  -0.00015   0.01384  -0.02093  -0.00716   2.12840
    A6        2.18529   0.00166  -0.01023   0.02393   0.01362   2.19891
    A7        1.92093   0.00160   0.00627   0.00083   0.00711   1.92804
    A8        2.27740  -0.00130  -0.01574   0.01525  -0.00061   2.27678
    A9        2.08461  -0.00031   0.00944  -0.01653  -0.00722   2.07739
   A10        1.93333  -0.00140  -0.00461  -0.00373  -0.00831   1.92502
   A11        1.94269   0.00070   0.00326   0.00070   0.00396   1.94664
   A12        1.94226   0.00133   0.00339   0.00451   0.00790   1.95016
   A13        1.87960   0.00061   0.00208   0.00202   0.00412   1.88372
   A14        1.87063  -0.00005   0.00173  -0.00466  -0.00291   1.86772
   A15        1.89257  -0.00123  -0.00603   0.00098  -0.00507   1.88751
   A16        1.94467   0.00016  -0.00330   0.00432   0.00091   1.94559
   A17        2.20092   0.00354   0.00952   0.01357   0.02310   2.22402
   A18        2.13753  -0.00369  -0.00618  -0.01778  -0.02395   2.11358
   A19        1.61165  -0.00146  -0.00502   0.00184  -0.00321   1.60844
   A20        2.12200  -0.00675  -0.00262  -0.03248  -0.03547   2.08653
   A21        2.22777   0.00487  -0.00477   0.03173   0.02657   2.25434
   A22        1.93305   0.00192   0.00752   0.00193   0.00903   1.94208
   A23        1.60700  -0.00139  -0.00472  -0.00443  -0.00723   1.59977
   A24        1.93814  -0.00305  -0.00872   0.00420  -0.00672   1.93142
   A25        2.27462   0.00431   0.01343   0.04717   0.05090   2.32553
   A26        1.98220   0.00120   0.00637   0.00017   0.00610   1.98829
   A27        1.98557   0.00116   0.00732  -0.00023   0.00600   1.99157
   A28        1.93623  -0.00287  -0.01147   0.01137  -0.00291   1.93331
   A29        2.27686   0.00420   0.01515   0.04324   0.04839   2.32524
   A30        1.96026   0.00138  -0.00140  -0.00064  -0.00046   1.95981
   A31        2.15292  -0.00002  -0.00298   0.01674   0.01027   2.16319
   A32        2.16378  -0.00100   0.00645  -0.00658  -0.00364   2.16013
   A33        1.59776  -0.00154   0.00178  -0.01666  -0.01210   1.58566
   A34        1.96216   0.00254   0.00077   0.01608   0.01551   1.97766
   A35        2.12344  -0.00450  -0.00473  -0.01923  -0.02836   2.09508
   A36        2.18964   0.00254   0.00739   0.01779   0.02074   2.21037
   A37        1.94603   0.00068   0.00250  -0.01034  -0.00633   1.93970
   A38        2.17808  -0.00017   0.00490   0.00949   0.00812   2.18620
   A39        2.13904   0.00050  -0.00102   0.02377   0.01656   2.15560
    D1        0.00465   0.00010  -0.00083   0.00829   0.00737   0.01203
    D2       -3.13840  -0.00016  -0.00145  -0.00577  -0.00716   3.13763
    D3       -3.13927   0.00010   0.00009   0.00466   0.00465  -3.13462
    D4        0.00086  -0.00016  -0.00053  -0.00940  -0.00989  -0.00902
    D5       -0.00129   0.00019   0.00206  -0.00143   0.00061  -0.00068
    D6       -3.13110  -0.00026  -0.00034  -0.01214  -0.01263   3.13946
    D7       -3.14059   0.00019   0.00116   0.00216   0.00335  -3.13724
    D8        0.01279  -0.00025  -0.00124  -0.00855  -0.00989   0.00290
    D9       -0.00573  -0.00033  -0.00070  -0.01106  -0.01169  -0.01742
   D10        3.11121  -0.00054  -0.00243  -0.03325  -0.03576   3.07545
   D11        3.13737  -0.00006  -0.00005   0.00352   0.00358   3.14095
   D12       -0.02888  -0.00026  -0.00178  -0.01867  -0.02049  -0.04937
   D13        0.03404  -0.00060  -0.00141  -0.04393  -0.04533  -0.01129
   D14       -2.05670  -0.00089  -0.00315  -0.04445  -0.04757  -2.10427
   D15        2.11322  -0.00072  -0.00004  -0.04929  -0.04934   2.06388
   D16       -3.10920  -0.00090  -0.00212  -0.05986  -0.06200   3.11198
   D17        1.08324  -0.00119  -0.00386  -0.06039  -0.06424   1.01900
   D18       -1.03002  -0.00103  -0.00075  -0.06523  -0.06601  -1.09603
   D19        0.00429   0.00038   0.00160   0.00878   0.01035   0.01463
   D20       -3.11577   0.00058   0.00344   0.02769   0.03121  -3.08456
   D21       -2.79216  -0.00085  -0.00000   0.00000   0.00000  -2.79216
   D22        0.31800   0.00103   0.00513   0.05182   0.05711   0.37511
   D23        0.32283  -0.00105  -0.00193  -0.02369  -0.02561   0.29722
   D24       -2.85019   0.00083   0.00319   0.02814   0.03150  -2.81870
   D25       -0.00172  -0.00031  -0.00208  -0.00421  -0.00620  -0.00792
   D26        3.12859   0.00017   0.00041   0.00628   0.00643   3.13502
   D27       -3.13611   0.00099   0.00359   0.02631   0.02873  -3.10738
   D28        0.03210  -0.00068  -0.00050  -0.01820  -0.01925   0.01285
   D29        3.13204  -0.00094  -0.00459  -0.02495  -0.03024   3.10181
   D30       -0.12505   0.00234   0.01219   0.06248   0.07468  -0.05037
   D31       -0.03818   0.00063  -0.00010   0.02166   0.02237  -0.01582
   D32        2.98791   0.00391   0.01668   0.10910   0.12729   3.11519
   D33       -0.01748   0.00065   0.00136   0.00988   0.01116  -0.00632
   D34       -2.68274  -0.00550  -0.02506  -0.11870  -0.14619  -2.82894
   D35       -0.00117  -0.00030  -0.00140   0.00076  -0.00028  -0.00145
[...]
     15         16           0       -3.498618    1.261795   -0.320598
     16          6           0       -4.286059   -0.255508   -0.010830
     17          6           0       -3.418480   -1.273736    0.231719
     18          1           0       -5.364600   -0.302700   -0.027213
     19          1           0       -3.726161   -2.287806    0.444090
     20          1           0        2.935202    3.097016    0.920869
     21          1           0        1.282304    2.524288    1.185510
     22          1           0        1.792340    3.059079   -0.420308
 ---------------------------------------------------------------------
 Rotational constants (GHZ):           1.2851615           0.2838866           0.2367599

 **********************************************************************

            Population analysis using the SCF Density.

 **********************************************************************

 Orbital symmetries:
       Occupied  (A) (A) (A) (A) (A) (A) (A) (A) (A) (A) (A) (A)
                 (A) (A) (A) (A) (A) (A) (A) (A) (A) (A) (A) (A)
                 (A) (A) (A) (A) (A) (A) (A) (A) (A) (A) (A) (A)
                 (A) (A) (A) (A) (A) (A) (A) (A) (A) (A) (A) (A)
                 (A) (A) (A) (A) (A) (A) (A) (A) (A) (A) (A) (A)
                 (A)
       Virtual   (A) (A) (A) (A) (A) (A) (A) (A) (A) (A) (A) (A)
                 (A) (A) (A) (A) (A) (A) (A) (A) (A) (A) (A) (A)
                 (A) (A) (A) (A) (A) (A) (A) (A) (A) (A) (A) (A)
                 (A) (A) (A) (A) (A) (A) (A) (A) (A) (A) (A) (A)
                 (A) (A) (A) (A) (A) (A) (A) (A) (A) (A) (A) (A)
                 (A) (A) (A) (A) (A) (A) (A) (A) (A) (A) (A) (A)
                 (A) (A) (A) (A) (A) (A) (A) (A) (A) (A) (A) (A)
                 (A) (A) (A) (A) (A) (A) (A) (A) (A) (A) (A) (A)
                 (A) (A) (A) (A) (A) (A) (A) (A) (A) (A) (A) (A)
                 (A) (A) (A) (A) (A) (A) (A) (A) (A) (A) (A) (A)
                 (A) (A) (A) (A) (A) (A) (A) (A) (A) (A) (A) (A)
                 (A) (A) (A) (A) (A) (A) (A) (A) (A) (A) (A) (A)
                 (A) (A) (A) (A) (A) (A) (A) (A) (A) (A) (A) (A)
                 (A) (A) (A) (A) (A) (A) (A) (A) (A) (A) (A) (A)
                 (A) (A) (A) (A) (A) (A) (A) (A) (A) (A) (A) (A)
                 (A) (A) (A) (A) (A) (A) (A) (A) (A) (A) (A) (A)
                 (A) (A) (A) (A) (A) (A) (A) (A) (A) (A) (A) (A)
                 (A) (A) (A) (A) (A) (A) (A) (A) (A) (A) (A) (A)
                 (A) (A) (A) (A) (A) (A) (A) (A) (A) (A) (A) (A)
                 (A) (A) (A) (A) (A) (A) (A) (A) (A) (A) (A) (A)
                 (A) (A) (A) (A) (A) (A) (A) (A) (A) (A) (A) (A)
                 (A) (A) (A) (A) (A) (A) (A) (A) (A) (A) (A) (A)
                 (A) (A) (A) (A) (A) (A) (A) (A) (A) (A) (A) (A)
                 (A) (A) (A) (A) (A) (A) (A) (A) (A) (A) (A) (A)
                 (A) (A) (A) (A) (A) (A) (A) (A) (A) (A) (A) (A)
                 (A) (A) (A) (A) (A) (A) (A) (A) (A) (A) (A) (A)
                 (A) (A) (A) (A)
 The electronic state is 1-A.
 Alpha  occ. eigenvalues --  -89.05113 -89.05001 -89.04813 -10.33988 -10.32970
 Alpha  occ. eigenvalues --  -10.32439 -10.32371 -10.32343 -10.31798 -10.30573
 Alpha  occ. eigenvalues --  -10.30553 -10.30487 -10.29343 -10.28987  -8.09159
 Alpha  occ. eigenvalues --   -8.09059  -8.08909  -6.04008  -6.03918  -6.03742
 Alpha  occ. eigenvalues --   -6.03635  -6.03545  -6.03355  -6.03221  -6.03095
 Alpha  occ. eigenvalues --   -6.03010  -1.02291  -0.99818  -0.95327  -0.88124
 Alpha  occ. eigenvalues --   -0.86811  -0.85857  -0.81087  -0.80284  -0.77879
 Alpha  occ. eigenvalues --   -0.70704  -0.66663  -0.66477  -0.63027  -0.61102
 Alpha  occ. eigenvalues --   -0.58897  -0.58556  -0.52955  -0.52568  -0.52230
 Alpha  occ. eigenvalues --   -0.50783  -0.50040  -0.48285  -0.47737  -0.47119
 Alpha  occ. eigenvalues --   -0.46461  -0.45940  -0.44260  -0.43107  -0.42904
 Alpha  occ. eigenvalues --   -0.41623  -0.37164  -0.34212  -0.32858  -0.30823
 Alpha  occ. eigenvalues --   -0.27510
 Alpha virt. eigenvalues --    0.00489   0.05130   0.05689   0.06008   0.06432
 Alpha virt. eigenvalues --    0.06739   0.07124   0.07686   0.08125   0.08975
 Alpha virt. eigenvalues --    0.09212   0.09385   0.09608   0.10086   0.10706
 Alpha virt. eigenvalues --    0.11194   0.11256   0.11538   0.12037   0.12805
 Alpha virt. eigenvalues --    0.13448   0.13519   0.13757   0.13962   0.14632
 Alpha virt. eigenvalues --    0.15225   0.15584   0.16291   0.16802   0.17119
 Alpha virt. eigenvalues --    0.17748   0.18161   0.18916   0.19223   0.19361
 Alpha virt. eigenvalues --    0.20144   0.20413   0.20594   0.20810   0.21698
 Alpha virt. eigenvalues --    0.21937   0.22112   0.22469   0.23183   0.23318
 Alpha virt. eigenvalues --    0.24008   0.24357   0.24987   0.25108   0.25255
 Alpha virt. eigenvalues --    0.25547   0.26005   0.26550   0.26979   0.27066
 Alpha virt. eigenvalues --    0.27495   0.27957   0.28350   0.28568   0.29113
 Alpha virt. eigenvalues --    0.29596   0.29650   0.30876   0.30907   0.31617
 Alpha virt. eigenvalues --    0.32435   0.32823   0.32891   0.33713   0.34539
 Alpha virt. eigenvalues --    0.34612   0.35258   0.37447   0.38097   0.38699
 Alpha virt. eigenvalues --    0.39090   0.40579   0.40730   0.41582   0.41854
 Alpha virt. eigenvalues --    0.43029   0.43744   0.45085   0.46718   0.47403
 Alpha virt. eigenvalues --    0.49714   0.50024   0.51692   0.52400   0.52829
 Alpha virt. eigenvalues --    0.53956   0.54892   0.56353   0.57827   0.58971
 Alpha virt. eigenvalues --    0.60072   0.62225   0.62844   0.63601   0.64224
 Alpha virt. eigenvalues --    0.64387   0.65010   0.66554   0.66826   0.67932
 Alpha virt. eigenvalues --    0.69067   0.70242   0.70926   0.71333   0.72356
 Alpha virt. eigenvalues --    0.72715   0.73300   0.74255   0.75624   0.77129
 Alpha virt. eigenvalues --    0.77984   0.78639   0.79624   0.80049   0.81056
 Alpha virt. eigenvalues --    0.81243   0.81818   0.82658   0.83703   0.85221
 Alpha virt. eigenvalues --    0.85672   0.86447   0.86819   0.87607   0.87951
 Alpha virt. eigenvalues --    0.88424   0.90482   0.90860   0.91702   0.92272
 Alpha virt. eigenvalues --    0.92591   0.93484   0.94812   0.95804   0.96431
 Alpha virt. eigenvalues --    0.96827   0.97680   0.98167   0.99486   0.99913
 Alpha virt. eigenvalues --    1.02413   1.04015   1.05541   1.06081   1.06810
 Alpha virt. eigenvalues --    1.08113   1.10805   1.11437   1.11846   1.13208
 Alpha virt. eigenvalues --    1.13807   1.14822   1.15088   1.16706   1.17606
 Alpha virt. eigenvalues --    1.20188   1.22209   1.23490   1.27056   1.29757
 Alpha virt. eigenvalues --    1.29967   1.31345   1.35738   1.42450   1.43141
 Alpha virt. eigenvalues --    1.43821   1.44230   1.45964   1.47906   1.51280
 Alpha virt. eigenvalues --    1.51728   1.57094   1.59199   1.60527   1.63818
 Alpha virt. eigenvalues --    1.64787   1.65518   1.66840   1.67179   1.68770
 Alpha virt. eigenvalues --    1.69323   1.71430   1.72455   1.73635   1.75564
 Alpha virt. eigenvalues --    1.76936   1.78481   1.79541   1.81469   1.82250
 Alpha virt. eigenvalues --    1.82621   1.83971   1.85334   1.86066   1.86499
 Alpha virt. eigenvalues --    1.89310   1.91033   1.92165   1.92948   1.94137
 Alpha virt. eigenvalues --    1.96133   1.98114   1.98927   2.01429   2.03761
 Alpha virt. eigenvalues --    2.06042   2.07161   2.07585   2.08056   2.10903
 Alpha virt. eigenvalues --    2.12230   2.13905   2.15138   2.16235   2.16887
 Alpha virt. eigenvalues --    2.17406   2.18836   2.19612   2.21665   2.23406
 Alpha virt. eigenvalues --    2.25162   2.25835   2.27239   2.29620   2.30681
 Alpha virt. eigenvalues --    2.34037   2.40270   2.45144   2.46420   2.49625
 Alpha virt. eigenvalues --    2.51074   2.53188   2.55627   2.59254   2.62253
 Alpha virt. eigenvalues --    2.63202   2.64759   2.69724   2.71158   2.71955
 Alpha virt. eigenvalues --    2.75717   2.78597   2.79871   2.81214   2.81983
 Alpha virt. eigenvalues --    2.82603   2.83169   2.83884   2.84440   2.88255
 Alpha virt. eigenvalues --    2.89343   2.93824   2.94096   2.97428   3.01270
 Alpha virt. eigenvalues --    3.04681   3.05691   3.10591   3.13063   3.13419
 Alpha virt. eigenvalues --    3.18147   3.18280   3.22979   3.25417   3.29210
 Alpha virt. eigenvalues --    3.31745   3.39507   3.40955   3.42688   3.47937
 Alpha virt. eigenvalues --    3.52912   3.55919   3.58375   3.64316   3.67989
 Alpha virt. eigenvalues --    3.80322   3.89779   3.92846   4.04038   4.07615
 Alpha virt. eigenvalues --    4.17495   4.22450   4.44338   4.47208   4.70884
 Alpha virt. eigenvalues --    8.08911   8.11475   8.14690  17.41947  17.43003
 Alpha virt. eigenvalues --   17.44357  17.59778  17.61077  17.64733  17.66657
 Alpha virt. eigenvalues --   17.69652  17.71930  23.60707  23.77382  23.90898
 Alpha virt. eigenvalues --   23.94263  23.98554  24.08752  24.17884  24.22448
 Alpha virt. eigenvalues --   24.26325  24.29936  24.30520 189.33914 189.36730
 Alpha virt. eigenvalues --  189.40434
          Condensed to atoms (all electrons):
               1          2          3          4          5          6
     1  C    7.369804   0.209271  -0.748365  -0.439346   0.413083   0.375064
     2  C    0.209271   7.349511   0.108334  -1.257407  -0.075105  -0.055610
     3  C   -0.748365   0.108334   8.084987   0.021989  -0.020790   0.020642
     4  C   -0.439346  -1.257407   0.021989   7.383974  -0.304861   0.003031
     5  C    0.413083  -0.075105  -0.020790  -0.304861   5.522526   0.006797
     6  H    0.375064  -0.055610   0.020642   0.003031   0.006797   0.499956
     7  S   -0.722779  -0.385355  -1.096336   0.554585  -0.002637   0.007924
     8  H    0.010839  -0.005032   0.001462   0.002611   0.396919  -0.004237
     9  C   -0.369402   0.499005  -0.278778  -0.234101   0.128268  -0.005476
    10  S    0.085654   0.038095   0.404355  -0.052834  -0.040002  -0.000710
    11  C   -0.012029  -0.225570  -0.591482   0.094109  -0.011106  -0.000341
    12  C   -0.034670  -0.394528   0.155496   0.071961   0.012657   0.000297
    13  C   -0.202102  -0.174232  -0.810902   0.212520   0.069484   0.003494
    14  H    0.008209   0.017118   0.006035   0.000414  -0.000251  -0.000013
    15  S    0.000625   0.005212  -0.050493  -0.022584   0.002534   0.000008
    16  C    0.001008  -0.008466  -0.051042   0.006898  -0.001157  -0.000001
    17  C    0.006910  -0.067266   0.312781  -0.011979  -0.005427  -0.000015
    18  H   -0.000001   0.000007   0.000035  -0.000003  -0.000000   0.000000
    19  H   -0.000012  -0.000154  -0.001150   0.000014   0.000014  -0.000000
    20  H    0.021140  -0.079811   0.001398   0.406565   0.012273   0.001888
    21  H   -0.080418  -0.071976   0.065857   0.423985   0.000761   0.000109
    22  H    0.057142   0.059911  -0.047541   0.310562   0.002641  -0.000109
               7          8          9         10         11         12
     1  C   -0.722779   0.010839  -0.369402   0.085654  -0.012029  -0.034670
     2  C   -0.385355  -0.005032   0.499005   0.038095  -0.225570  -0.394528
     3  C   -1.096336   0.001462  -0.278778   0.404355  -0.591482   0.155496
     4  C    0.554585   0.002611  -0.234101  -0.052834   0.094109   0.071961
     5  C   -0.002637   0.396919   0.128268  -0.040002  -0.011106   0.012657
     6  H    0.007924  -0.004237  -0.005476  -0.000710  -0.000341   0.000297
     7  S   18.065518  -0.027419   0.033802  -0.299367  -0.027418   0.191711
     8  H   -0.027419   0.447914  -0.007801   0.000362   0.000046  -0.000200
     9  C    0.033802  -0.007801   9.647032   0.330814  -1.313780  -1.568326
    10  S   -0.299367   0.000362   0.330814  18.055684  -0.041994  -0.842609
    11  C   -0.027418   0.000046  -1.313780  -0.041994  16.638140  -4.795878
    12  C    0.191711  -0.000200  -1.568326  -0.842609  -4.795878  11.386604
    13  C    0.299533  -0.001380  -0.247738  -0.736063  -0.192759   0.830783
    14  H   -0.001215  -0.000000   0.011388   0.009518  -0.063620  -0.051516
    15  S    0.002300  -0.000003  -0.835854   0.071482   0.425749  -0.615134
    16  C   -0.005936   0.000001  -0.237928   0.017518   0.921984  -0.898911
    17  C   -0.043444  -0.000002   0.112465  -0.459824  -5.337002   2.430179
    18  H   -0.000002   0.000000   0.005036  -0.000830   0.007273   0.032392
    19  H    0.000202   0.000000  -0.006353   0.013670   0.029316  -0.052713
    20  H    0.001417  -0.000017  -0.015474  -0.001111  -0.000526   0.004254
    21  H    0.005654   0.000010   0.039415   0.000126  -0.014352  -0.018055
    22  H   -0.004749   0.000002   0.022636   0.003101  -0.002757  -0.011779
              13         14         15         16         17         18
     1  C   -0.202102   0.008209   0.000625   0.001008   0.006910  -0.000001
     2  C   -0.174232   0.017118   0.005212  -0.008466  -0.067266   0.000007
     3  C   -0.810902   0.006035  -0.050493  -0.051042   0.312781   0.000035
     4  C    0.212520   0.000414  -0.022584   0.006898  -0.011979  -0.000003
     5  C    0.069484  -0.000251   0.002534  -0.001157  -0.005427  -0.000000
     6  H    0.003494  -0.000013   0.000008  -0.000001  -0.000015   0.000000
     7  S    0.299533  -0.001215   0.002300  -0.005936  -0.043444  -0.000002
     8  H   -0.001380  -0.000000  -0.000003   0.000001  -0.000002   0.000000
     9  C   -0.247738   0.011388  -0.835854  -0.237928   0.112465   0.005036
    10  S   -0.736063   0.009518   0.071482   0.017518  -0.459824  -0.000830
    11  C   -0.192759  -0.063620   0.425749   0.921984  -5.337002   0.007273
    12  C    0.830783  -0.051516  -0.615134  -0.898911   2.430179   0.032392
    13  C    7.729302   0.398921  -0.144211  -0.008459  -0.953044  -0.000428
    14  H    0.398921   0.488960   0.012080  -0.002390   0.007115  -0.000002
    15  S   -0.144211   0.012080  17.587113   0.376178  -0.326468  -0.041543
    16  C   -0.008459  -0.002390   0.376178   5.733423  -0.143261   0.383501
    17  C   -0.953044   0.007115  -0.326468  -0.143261  10.577093  -0.017482
    18  H   -0.000428  -0.000002  -0.041543   0.383501  -0.017482   0.442541
    19  H    0.000111   0.000001   0.007471   0.024986   0.344185  -0.003645
    20  H    0.017853   0.000512   0.000175  -0.000005  -0.000056   0.000000
    21  H    0.010614  -0.003793   0.000946  -0.000148  -0.002140   0.000000
    22  H   -0.034914   0.001902   0.000234  -0.000084   0.000599   0.000000
              19         20         21         22
     1  C   -0.000012   0.021140  -0.080418   0.057142
     2  C   -0.000154  -0.079811  -0.071976   0.059911
     3  C   -0.001150   0.001398   0.065857  -0.047541
     4  C    0.000014   0.406565   0.423985   0.310562
     5  C    0.000014   0.012273   0.000761   0.002641
     6  H   -0.000000   0.001888   0.000109  -0.000109
     7  S    0.000202   0.001417   0.005654  -0.004749
     8  H    0.000000  -0.000017   0.000010   0.000002
     9  C   -0.006353  -0.015474   0.039415   0.022636
    10  S    0.013670  -0.001111   0.000126   0.003101
    11  C    0.029316  -0.000526  -0.014352  -0.002757
    12  C   -0.052713   0.004254  -0.018055  -0.011779
    13  C    0.000111   0.017853   0.010614  -0.034914
    14  H    0.000001   0.000512  -0.003793   0.001902
    15  S    0.007471   0.000175   0.000946   0.000234
    16  C    0.024986  -0.000005  -0.000148  -0.000084
    17  C    0.344185  -0.000056  -0.002140   0.000599
    18  H   -0.003645   0.000000   0.000000   0.000000
    19  H    0.481484   0.000000  -0.000000  -0.000000
    20  H    0.000000   0.505193  -0.019270  -0.021359
    21  H   -0.000000  -0.019270   0.514046  -0.029814
    22  H   -0.000000  -0.021359  -0.029814   0.506838
 Mulliken charges:
               1
     1  C    0.050374
     2  C    0.514045
     3  C    0.513509
     4  C   -1.170104
     5  C   -0.106621
     6  H    0.147302
     7  S   -0.545988
     8  H    0.185925
     9  C    0.291148
    10  S   -0.555034
    11  C    0.513998
    12  C    0.167986
    13  C   -0.066387
    14  H    0.160627
    15  S   -0.455819
    16  C   -0.107709
    17  C   -0.423919
    18  H    0.193151
    19  H    0.162573
    20  H    0.164963
    21  H    0.178442
    22  H    0.187538
 Sum of Mulliken charges =  -0.00000
 Mulliken charges with hydrogens summed into heavy atoms:
               1
     1  C    0.197675
     2  C    0.514045
     3  C    0.513509
     4  C   -0.639161
     5  C    0.079305
     7  S   -0.545988
     9  C    0.291148
    10  S   -0.555034
    11  C    0.513998
    12  C    0.167986
    13  C    0.094240
    15  S   -0.455819
    16  C    0.085442
    17  C   -0.261346
 Electronic spatial extent (au):  <R**2>=           4322.9510
 Charge=             -0.0000 electrons
 Dipole moment (field-independent basis, Debye):
    X=              0.3266    Y=              0.8940    Z=              0.0793  Tot=              0.9550
 Quadrupole moment (field-independent basis, Debye-Ang):
   XX=            -86.3365   YY=            -96.4460   ZZ=           -108.7100
   XY=              5.3713   XZ=             -0.6575   YZ=             -0.3728
 Traceless Quadrupole moment (field-independent basis, Debye-Ang):
   XX=             10.8277   YY=              0.7182   ZZ=            -11.5458
   XY=              5.3713   XZ=             -0.6575   YZ=             -0.3728
 Octapole moment (field-independent basis, Debye-Ang**2):
  XXX=             -0.3604  YYY=              3.4558  ZZZ=              0.3861  XYY=              5.0372
  XXY=            -15.6173  XXZ=             -1.1068  XZZ=              0.6924  YZZ=              1.3874
  YYZ=              1.0573  XYZ=              8.1163
 Hexadecapole moment (field-independent basis, Debye-Ang**3):
 XXXX=          -4080.4147 YYYY=          -1087.3611 ZZZZ=           -191.8882 XXXY=             25.8639
 XXXZ=            -21.3154 YYYX=             35.0601 YYYZ=             -7.5211 ZZZX=              3.1365
 ZZZY=              1.7261 XXYY=           -910.1708 XXZZ=           -896.7507 YYZZ=           -222.5901
 XXYZ=              8.8491 YYXZ=             -3.8808 ZZXY=             -3.1854
 N-N= 1.127743214670D+03 E-N=-6.079851897762D+03  KE= 1.615209620400D+03
 Unable to Open any file for archive entry.
 1\1\GINC-CX3-12-21\FOpt\RwB97XD\6-311+G(d,p)\C11H8S3\NS5018\26-Oct-202
 1\0\\# opt=modredundant wb97xd/6-311+g(d,p)\\pBTTT_-160.pdb\\0,1\C,-4.
 1460538356,-1.3642360047,0.0080649595\C,-2.9069940781,-0.9908957768,-0
 .592414291\C,-2.0651238575,-2.0692459838,-0.7431728699\C,-2.6162219987
 ,0.4152937079,-1.0279059576\C,-4.2311360725,-2.687398707,0.3066047321\
 H,-4.9462426502,-0.6594985187,0.1965177146\S,-2.7955760009,-3.52318914
 83,-0.1233674494\H,-5.0567230281,-3.2214512944,0.7518130533\C,-0.70204
 12361,-2.0959065597,-1.2557370202\S,-0.0148751855,-3.6036144065,-1.844
 5803427\C,1.5009252768,-2.8354820788,-2.1668844751\C,1.4507381643,-1.4
 959276968,-1.8395270677\C,0.2024226446,-1.0701170086,-1.3108260211\H,-
 0.0021156974,-0.072399125,-0.9543914841\S,2.9670610435,-0.7254278118,-
 2.1641346539\C,3.6356409724,-2.2236623951,-2.7355553413\C,2.7573633152
 ,-3.2601918272,-2.6850888155\H,4.6582840388,-2.2467807701,-3.081118016
 1\H,2.996449328,-4.266387124,-2.9989608268\H,-3.5467200126,0.969744068
 4,-1.1639561388\H,-2.0664122939,0.4350393778,-1.9719804203\H,-2.020648
 8363,0.9527350833,-0.282399268\\Version=ES64L-G16RevC.01\State=1-A\HF=
 -1618.5080279\RMSD=5.575e-09\RMSF=6.078e-04\Dipole=-0.1384855,0.348857
 3,0.0173322\Quadrupole=6.0252076,0.3571907,-6.3823983,-3.5003961,-5.69
 11945,1.5572743\PG=C01 [X(C11H8S3)]\\@
 The archive entry for this job was punched.


 GOORD'S AXIOM:  A MEETING IS AN EVENT AT WHICH
 THE MINUTES ARE KEPT AND THE HOURS ARE LOST.
 Job cpu time:       0 days  3 hours 27 minutes 43.1 seconds.
 Elapsed time:       0 days  0 hours 26 minutes  8.1 seconds.
 File lengths (MBytes):  RWF=     91 Int=      0 D2E=      0 Chk=     12 Scr=      1
 Normal termination of Gaussian 16 at Tue Oct 26 01:06:02 2021.
