 Entering Gaussian System, Link 0=g16
 Input=pBTTT_40.gjf
 Output=pBTTT_40.log
 Initial command:
 /apps/gaussian/g16-c01-avx/g16/l1.exe "/tmp/pbs.4762230[215].pbs/Gau-2178080.inp" -scrdir="/tmp/pbs.4762230[215].pbs/"
 Entering Link 1 = /apps/gaussian/g16-c01-avx/g16/l1.exe PID=   2178081.
  
 Copyright (c) 1988-2019, Gaussian, Inc.  All Rights Reserved.
  
 This is part of the Gaussian(R) 16 program.  It is based on
 the Gaussian(R) 09 system (copyright 2009, Gaussian, Inc.),
 the Gaussian(R) 03 system (copyright 2003, Gaussian, Inc.),
 the Gaussian(R) 98 system (copyright 1998, Gaussian, Inc.),
 the Gaussian(R) 94 system (copyright 1995, Gaussian, Inc.),
 the Gaussian 92(TM) system (copyright 1992, Gaussian, Inc.),
 the Gaussian 90(TM) system (copyright 1990, Gaussian, Inc.),
 the Gaussian 88(TM) system (copyright 1988, Gaussian, Inc.),
 the Gaussian 86(TM) system (copyright 1986, Carnegie Mellon
 University), and the Gaussian 82(TM) system (copyright 1983,
 Carnegie Mellon University). Gaussian is a federally registered
 trademark of Gaussian, Inc.
  
 This software contains proprietary and confidential information,
 including trade secrets, belonging to Gaussian, Inc.
  
 This software is provided under written license and may be
 used, copied, transmitted, or stored only in accord with that
 written license.
  
 The following legend is applicable only to US Government
 contracts under FAR:
  
                    RESTRICTED RIGHTS LEGEND
  
 Use, reproduction and disclosure by the US Government is
 subject to restrictions as set forth in subparagraphs (a)
 and (c) of the Commercial Computer Software - Restricted
 Rights clause in FAR 52.227-19.
  
 Gaussian, Inc.
 340 Quinnipiac St., Bldg. 40, Wallingford CT 06492
  
  
 ---------------------------------------------------------------
 Warning -- This program may not be used in any manner that
 competes with the business of Gaussian, Inc. or will provide
 assistance to any competitor of Gaussian, Inc.  The licensee
 of this program is prohibited from giving any competitor of
 Gaussian, Inc. access to this program.  By using this program,
 the user acknowledges that Gaussian, Inc. is engaged in the
 business of creating and licensing software in the field of
 computational chemistry and represents and warrants to the
 licensee that it is not a competitor of Gaussian, Inc. and that
 it will not use this program in any manner prohibited above.
 ---------------------------------------------------------------
  

 Cite this work as:
 Gaussian 16, Revision C.01,
 M. J. Frisch, G. W. Trucks, H. B. Schlegel, G. E. Scuseria, 
 M. A. Robb, J. R. Cheeseman, G. Scalmani, V. Barone, 
 G. A. Petersson, H. Nakatsuji, X. Li, M. Caricato, A. V. Marenich, 
 J. Bloino, B. G. Janesko, R. Gomperts, B. Mennucci, H. P. Hratchian, 
 J. V. Ortiz, A. F. Izmaylov, J. L. Sonnenberg, D. Williams-Young, 
 F. Ding, F. Lipparini, F. Egidi, J. Goings, B. Peng, A. Petrone, 
 T. Henderson, D. Ranasinghe, V. G. Zakrzewski, J. Gao, N. Rega, 
 G. Zheng, W. Liang, M. Hada, M. Ehara, K. Toyota, R. Fukuda, 
 J. Hasegawa, M. Ishida, T. Nakajima, Y. Honda, O. Kitao, H. Nakai, 
 T. Vreven, K. Throssell, J. A. Montgomery, Jr., J. E. Peralta, 
 F. Ogliaro, M. J. Bearpark, J. J. Heyd, E. N. Brothers, K. N. Kudin, 
 V. N. Staroverov, T. A. Keith, R. Kobayashi, J. Normand, 
 K. Raghavachari, A. P. Rendell, J. C. Burant, S. S. Iyengar, 
 J. Tomasi, M. Cossi, J. M. Millam, M. Klene, C. Adamo, R. Cammi, 
 J. W. Ochterski, R. L. Martin, K. Morokuma, O. Farkas, 
 J. B. Foresman, and D. J. Fox, Gaussian, Inc., Wallingford CT, 2019.
 
 ******************************************
 Gaussian 16:  ES64L-G16RevC.01  3-Jul-2019
                26-Oct-2021 
 ******************************************
 %mem=100GB
 %nprocshared=8
 Will use up to    8 processors via shared memory.
 --------------------------------------
 # opt=modredundant wb97xd/6-311+g(d,p)
 --------------------------------------
 1/18=120,19=15,26=3,38=1/1,3;
 2/9=110,12=2,17=6,18=5,40=1/2;
 3/5=4,6=6,7=111,11=2,25=1,30=1,71=1,74=-58/1,2,3;
 4//1;
 5/5=2,38=5/2;
 6/7=2,8=2,9=2,10=2,28=1/1;
 7//1,2,3,16;
 1/18=20,19=15,26=3/3(2);
 2/9=110/2;
 99//99;
 2/9=110/2;
 3/5=4,6=6,7=111,11=2,25=1,30=1,71=1,74=-58/1,2,3;
 4/5=5,16=3,69=1/1;
 5/5=2,38=5/2;
 7//1,2,3,16;
 1/18=20,19=15,26=3/3(-5);
 2/9=110/2;
 6/7=2,8=2,9=2,10=2,19=2,28=1/1;
 99/9=1/99;
 ------------
 pBTTT_40.pdb
 ------------
 Symbolic Z-matrix:
 Charge =  0 Multiplicity = 1
 C                    -4.25     -1.36     -0.21 
 C                    -2.93     -0.95     -0.61 
 C                    -1.97     -2.05     -0.62 
 C                    -2.66      0.47     -0.96 
 C                    -4.33     -2.76      0.1 
 H                    -5.1      -0.7      -0.14 
 S                    -2.8      -3.56     -0.11 
 H                    -5.23     -3.27      0.41 
 C                    -0.56     -2.13     -0.97 
 S                     0.602    -0.844    -0.523 
 C                     1.932    -1.674    -1.256 
 C                     1.542    -2.94     -1.824 
 C                     0.146    -3.215    -1.655 
 H                    -0.293    -4.177    -1.868 
 S                     2.854    -4.068    -1.904 
 C                     3.963    -2.89     -1.199 
 C                     3.307    -1.641    -0.882 
 H                     4.96     -3.154    -0.875 
 H                     3.737    -0.908    -0.205 
 H                    -3.55      1.09     -0.83 
 H                    -2.35      0.56     -2. 
 H                    -1.88      0.89     -0.31 
 
 The following ModRedundant input section has been read:
 D       2       3       9      10 F                                           
 

 GradGradGradGradGradGradGradGradGradGradGradGradGradGradGradGradGradGrad
 Berny optimization.
 Initialization pass.
                           ----------------------------
                           !    Initial Parameters    !
                           ! (Angstroms and Degrees)  !
 --------------------------                            --------------------------
 ! Name  Definition              Value          Derivative Info.                !
 --------------------------------------------------------------------------------
 ! R1    R(1,2)                  1.4389         estimate D2E/DX2                !
 ! R2    R(1,5)                  1.4361         estimate D2E/DX2                !
 ! R3    R(1,6)                  1.0784         estimate D2E/DX2                !
 ! R4    R(2,3)                  1.46           estimate D2E/DX2                !
 ! R5    R(2,4)                  1.4872         estimate D2E/DX2                !
 ! R6    R(3,7)                  1.797          estimate D2E/DX2                !
 ! R7    R(3,9)                  1.455          estimate D2E/DX2                !
 ! R8    R(4,20)                 1.0924         estimate D2E/DX2                !
 ! R9    R(4,21)                 1.0889         estimate D2E/DX2                !
 ! R10   R(4,22)                 1.0988         estimate D2E/DX2                !
 ! R11   R(5,7)                  1.7393         estimate D2E/DX2                !
 ! R12   R(5,8)                  1.0799         estimate D2E/DX2                !
 ! R13   R(9,10)                 1.7899         estimate D2E/DX2                !
 ! R14   R(9,13)                 1.4645         estimate D2E/DX2                !
 ! R15   R(10,11)                1.7306         estimate D2E/DX2                !
 ! R16   R(11,12)                1.4413         estimate D2E/DX2                !
 ! R17   R(11,17)                1.4253         estimate D2E/DX2                !
 ! R18   R(12,13)                1.4328         estimate D2E/DX2                !
 ! R19   R(12,15)                1.7321         estimate D2E/DX2                !
 ! R20   R(13,14)                1.0787         estimate D2E/DX2                !
 ! R21   R(15,16)                1.7648         estimate D2E/DX2                !
 ! R22   R(16,17)                1.446          estimate D2E/DX2                !
 ! R23   R(16,18)                1.0811         estimate D2E/DX2                !
 ! R24   R(17,19)                1.0865         estimate D2E/DX2                !
 ! A1    A(2,1,5)              112.8843         estimate D2E/DX2                !
 ! A2    A(2,1,6)              124.5209         estimate D2E/DX2                !
 ! A3    A(5,1,6)              122.5942         estimate D2E/DX2                !
 ! A4    A(1,2,3)              112.9799         estimate D2E/DX2                !
 ! A5    A(1,2,4)              120.2665         estimate D2E/DX2                !
 ! A6    A(3,2,4)              126.7536         estimate D2E/DX2                !
 ! A7    A(2,3,7)              109.1138         estimate D2E/DX2                !
 ! A8    A(2,3,9)              132.8639         estimate D2E/DX2                !
 ! A9    A(7,3,9)              118.0132         estimate D2E/DX2                !
 ! A10   A(2,4,20)             111.468          estimate D2E/DX2                !
 ! A11   A(2,4,21)             110.8154         estimate D2E/DX2                !
 ! A12   A(2,4,22)             110.7706         estimate D2E/DX2                !
 ! A13   A(20,4,21)            107.3779         estimate D2E/DX2                !
 ! A14   A(20,4,22)            106.918          estimate D2E/DX2                !
 ! A15   A(21,4,22)            109.3476         estimate D2E/DX2                !
 ! A16   A(1,5,7)              111.9209         estimate D2E/DX2                !
 ! A17   A(1,5,8)              124.6643         estimate D2E/DX2                !
 ! A18   A(7,5,8)              123.4062         estimate D2E/DX2                !
 ! A19   A(3,7,5)               93.0997         estimate D2E/DX2                !
 ! A20   A(3,9,10)             121.9742         estimate D2E/DX2                !
 ! A21   A(3,9,13)             128.3454         estimate D2E/DX2                !
 ! A22   A(10,9,13)            109.6411         estimate D2E/DX2                !
 ! A23   A(9,10,11)             92.7835         estimate D2E/DX2                !
 ! A24   A(10,11,12)           112.347          estimate D2E/DX2                !
 ! A25   A(10,11,17)           128.2522         estimate D2E/DX2                !
 ! A26   A(12,11,17)           112.629          estimate D2E/DX2                !
 ! A27   A(11,12,13)           112.6887         estimate D2E/DX2                !
 ! A28   A(11,12,15)           112.6597         estimate D2E/DX2                !
 ! A29   A(13,12,15)           128.2033         estimate D2E/DX2                !
 ! A30   A(9,13,12)            112.4979         estimate D2E/DX2                !
 ! A31   A(9,13,14)            123.8404         estimate D2E/DX2                !
 ! A32   A(12,13,14)           122.9836         estimate D2E/DX2                !
 ! A33   A(12,15,16)            91.3089         estimate D2E/DX2                !
 ! A34   A(15,16,17)           112.2752         estimate D2E/DX2                !
 ! A35   A(15,16,18)           122.429          estimate D2E/DX2                !
 ! A36   A(17,16,18)           124.3076         estimate D2E/DX2                !
 ! A37   A(11,17,16)           111.1081         estimate D2E/DX2                !
 ! A38   A(11,17,19)           124.1179         estimate D2E/DX2                !
 ! A39   A(16,17,19)           122.6693         estimate D2E/DX2                !
 ! D1    D(5,1,2,3)              0.3915         estimate D2E/DX2                !
 ! D2    D(5,1,2,4)           -179.5973         estimate D2E/DX2                !
 ! D3    D(6,1,2,3)           -179.8811         estimate D2E/DX2                !
 ! D4    D(6,1,2,4)              0.13           estimate D2E/DX2                !
 ! D5    D(2,1,5,7)             -0.3845         estimate D2E/DX2                !
 ! D6    D(2,1,5,8)           -179.3471         estimate D2E/DX2                !
 ! D7    D(6,1,5,7)            179.8822         estimate D2E/DX2                !
 ! D8    D(6,1,5,8)              0.9196         estimate D2E/DX2                !
 ! D9    D(1,2,3,7)             -0.2224         estimate D2E/DX2                !
 ! D10   D(1,2,3,9)            178.6265         estimate D2E/DX2                !
 ! D11   D(4,2,3,7)            179.7656         estimate D2E/DX2                !
 ! D12   D(4,2,3,9)             -1.3855         estimate D2E/DX2                !
 ! D13   D(1,2,4,20)             2.1641         estimate D2E/DX2                !
 ! D14   D(1,2,4,21)          -117.3645         estimate D2E/DX2                !
 ! D15   D(1,2,4,22)           121.0843         estimate D2E/DX2                !
 ! D16   D(3,2,4,20)          -177.8231         estimate D2E/DX2                !
 ! D17   D(3,2,4,21)            62.6483         estimate D2E/DX2                !
 ! D18   D(3,2,4,22)           -58.9029         estimate D2E/DX2                !
 ! D19   D(2,3,7,5)              0.0033         estimate D2E/DX2                !
 ! D20   D(9,3,7,5)           -179.041          estimate D2E/DX2                !
 ! D21   D(2,3,9,10)            39.9897         Frozen                          !
 ! D22   D(2,3,9,13)          -142.5372         estimate D2E/DX2                !
 ! D23   D(7,3,9,10)          -141.2423         estimate D2E/DX2                !
 ! D24   D(7,3,9,13)            36.2308         estimate D2E/DX2                !
 ! D25   D(1,5,7,3)              0.2153         estimate D2E/DX2                !
 ! D26   D(8,5,7,3)            179.1932         estimate D2E/DX2                !
 ! D27   D(3,9,10,11)          179.7825         estimate D2E/DX2                !
 ! D28   D(13,9,10,11)           1.8865         estimate D2E/DX2                !
 ! D29   D(3,9,13,12)         -179.8194         estimate D2E/DX2                !
 ! D30   D(3,9,13,14)           -9.0281         estimate D2E/DX2                !
 ! D31   D(10,9,13,12)          -2.0952         estimate D2E/DX2                !
 ! D32   D(10,9,13,14)         168.6961         estimate D2E/DX2                !
 ! D33   D(9,10,11,12)          -1.2324         estimate D2E/DX2                !
 ! D34   D(9,10,11,17)        -149.8652         estimate D2E/DX2                !
 ! D35   D(10,11,12,13)          0.2199         estimate D2E/DX2                !
 ! D36   D(10,11,12,15)       -154.0619         estimate D2E/DX2                !
 ! D37   D(17,11,12,13)        153.9337         estimate D2E/DX2                !
 ! D38   D(17,11,12,15)         -0.348          estimate D2E/DX2                !
 ! D39   D(10,11,17,16)        149.7433         estimate D2E/DX2                !
 ! D40   D(10,11,17,19)        -14.0876         estimate D2E/DX2                !
 ! D41   D(12,11,17,16)          1.1818         estimate D2E/DX2                !
 ! D42   D(12,11,17,19)       -162.6491         estimate D2E/DX2                !
 ! D43   D(11,12,13,9)           1.2448         estimate D2E/DX2                !
 ! D44   D(11,12,13,14)       -169.6377         estimate D2E/DX2                !
 ! D45   D(15,12,13,9)         150.608          estimate D2E/DX2                !
 ! D46   D(15,12,13,14)        -20.2745         estimate D2E/DX2                !
 ! D47   D(11,12,15,16)         -0.4468         estimate D2E/DX2                !
 ! D48   D(13,12,15,16)       -149.8171         estimate D2E/DX2                !
 ! D49   D(12,15,16,17)          1.1246         estimate D2E/DX2                !
 ! D50   D(12,15,16,18)        170.1971         estimate D2E/DX2                !
 ! D51   D(15,16,17,11)         -1.513          estimate D2E/DX2                !
 ! D52   D(15,16,17,19)        162.5923         estimate D2E/DX2                !
 ! D53   D(18,16,17,11)       -170.3438         estimate D2E/DX2                !
 ! D54   D(18,16,17,19)         -6.2385         estimate D2E/DX2                !
 --------------------------------------------------------------------------------
 Trust Radius=3.00D-01 FncErr=1.00D-07 GrdErr=1.00D-06 EigMax=2.50D+02 EigMin=1.00D-04
 Number of steps in this run=    127 maximum allowed number of steps=    132.
 GradGradGradGradGradGradGradGradGradGradGradGradGradGradGradGradGradGrad

                          Input orientation:                          
 ---------------------------------------------------------------------
 Center     Atomic      Atomic             Coordinates (Angstroms)
 Number     Number       Type             X           Y           Z
 ---------------------------------------------------------------------
      1          6           0       -4.250000   -1.360000   -0.210000
      2          6           0       -2.930000   -0.950000   -0.610000
      3          6           0       -1.970000   -2.050000   -0.620000
      4          6           0       -2.660000    0.470000   -0.960000
      5          6           0       -4.330000   -2.760000    0.100000
      6          1           0       -5.100000   -0.700000   -0.140000
      7         16           0       -2.800000   -3.560000   -0.110000
      8          1           0       -5.230000   -3.270000    0.410000
      9          6           0       -0.560000   -2.130000   -0.970000
     10         16           0        0.602000   -0.844000   -0.523000
     11          6           0        1.932000   -1.674000   -1.256000
     12          6           0        1.542000   -2.940000   -1.824000
     13          6           0        0.146000   -3.215000   -1.655000
     14          1           0       -0.293000   -4.177000   -1.868000
     15         16           0        2.854000   -4.068000   -1.904000
     16          6           0        3.963000   -2.890000   -1.199000
     17          6           0        3.307000   -1.641000   -0.882000
     18          1           0        4.960000   -3.154000   -0.875000
     19          1           0        3.737000   -0.908000   -0.205000
     20          1           0       -3.550000    1.090000   -0.830000
     21          1           0       -2.350000    0.560000   -2.000000
     22          1           0       -1.880000    0.890000   -0.310000
 ---------------------------------------------------------------------
                    Distance matrix (angstroms):
                    1          2          3          4          5
     1  C    0.000000
     2  C    1.438923   0.000000
     3  C    2.417147   1.460034   0.000000
     4  C    2.537617   1.487212   2.634787   0.000000
     5  C    1.436141   2.395871   2.567509   3.787532   0.000000
     6  H    1.078425   2.234346   3.442354   2.827525   2.212261
     7  S    2.636759   2.660639   1.796970   4.121044   1.739253
     8  H    2.234480   3.422397   3.630000   4.740190   1.079907
     9  C    3.845335   2.671872   1.454991   3.342170   3.969219
    10  S    4.889389   3.534661   2.842363   3.543756   5.327646
    11  C    6.277725   4.957876   3.971332   5.076496   6.498521
    12  C    6.216805   5.043082   3.817834   5.480091   6.181793
    13  C    4.985365   3.960306   2.627909   4.683576   4.829247
    14  H    5.132475   4.353144   2.982275   5.293559   4.709382
    15  S    7.789077   6.697090   5.384418   7.203386   7.572102
    16  C    8.412633   7.184982   6.020077   7.430400   8.395127
    17  C    7.592022   6.281054   5.299307   6.329889   7.780762
    18  H    9.406634   8.196337   7.022018   8.438306   9.349329
    19  H    7.999781   6.679422   5.834915   6.587148   8.282477
    20  H    2.622384   2.143455   3.521378   1.092428   4.036806
    21  H    3.240447   2.132745   2.976726   1.088944   4.399182
    22  H    3.269465   2.139650   2.957668   1.098772   4.415099
                    6          7          8          9         10
     6  H    0.000000
     7  S    3.670218   0.000000
     8  H    2.631406   2.501879   0.000000
     9  C    4.831708   2.793224   5.001290   0.000000
    10  S    5.716662   4.372737   6.384997   1.789930   0.000000
    11  C    7.186317   5.221316   7.524428   2.549470   1.730633
    12  C    7.208996   4.709051   7.138602   2.409112   2.639965
    13  C    6.011736   3.344393   5.759221   1.464543   2.666646
    14  H    6.179220   3.123508   5.512341   2.251200   3.703909
    15  S    8.815965   5.953505   8.446446   4.035294   4.168074
    16  C    9.383792   6.882804   9.340478   4.592120   3.992419
    17  C    8.491978   6.447790   8.786539   3.898789   2.842730
    18  H   10.381038   7.808179  10.271357   5.614980   4.944913
    19  H    8.839687   7.055104   9.293243   4.532408   3.151737
    20  H    2.466313   4.764808   4.834211   4.396374   4.590611
    21  H    3.551014   4.555107   5.363898   3.391327   3.587067
    22  H    3.595191   4.548505   5.389480   3.361309   3.035202
                   11         12         13         14         15
    11  C    0.000000
    12  C    1.441347   0.000000
    13  C    2.392421   1.432830   0.000000
    14  H    3.404435   2.213443   1.078672   0.000000
    15  S    2.645983   1.732088   2.850066   3.149093   0.000000
    16  C    2.367882   2.500873   3.857856   4.496384   1.764820
    17  C    1.425339   2.385370   3.614820   4.512593   2.672082
    18  H    3.391806   3.553747   4.877163   5.443031   2.515844
    19  H    2.224721   3.401207   4.507774   5.449113   3.694846
    20  H    6.154145   6.569429   5.733591   6.279075   8.292747
    21  H    4.886698   5.237236   4.538685   5.166028   6.964856
    22  H    4.690454   5.354548   4.771239   5.533572   7.037994
                   16         17         18         19         20
    16  C    0.000000
    17  C    1.445969   0.000000
    18  H    1.081056   2.240899   0.000000
    19  H    2.228775   1.086516   2.643699   0.000000
    20  H    8.510096   7.381024   9.509661   7.581754   0.000000
    21  H    7.238651   6.172194   8.276202   6.513725   1.757783
    22  H    7.015652   5.799837   7.966101   5.898688   1.760483
                   21         22
    21  H    0.000000
    22  H    1.784909   0.000000
 Stoichiometry    C11H8S3
 Framework group  C1[X(C11H8S3)]
 Deg. of freedom    60
 Full point group                 C1      NOp   1
 Largest Abelian subgroup         C1      NOp   1
 Largest concise Abelian subgroup C1      NOp   1
                         Standard orientation:                         
 ---------------------------------------------------------------------
 Center     Atomic      Atomic             Coordinates (Angstroms)
 Number     Number       Type             X           Y           Z
 ---------------------------------------------------------------------
      1          6           0        4.114719    0.184655    0.053011
      2          6           0        2.832357    0.804814    0.256611
      3          6           0        1.715618   -0.109729    0.037056
      4          6           0        2.746044    2.236643    0.649314
      5          6           0        4.012997   -1.195664   -0.330228
      6          1           0        5.061822    0.687703    0.166760
      7         16           0        2.358257   -1.722417   -0.427006
      8          1           0        4.855426   -1.843902   -0.520755
      9          6           0        0.272983    0.045877    0.144719
     10         16           0       -0.563635    1.530699   -0.402293
     11          6           0       -2.119715    0.920613    0.046594
     12          6           0       -2.050124   -0.413700    0.587193
     13          6           0       -0.711486   -0.922642    0.632240
     14          1           0       -0.482302   -1.953673    0.851292
     15         16           0       -3.525340   -1.296671    0.376889
     16          6           0       -4.283842    0.081882   -0.422395
     17          6           0       -3.384289    1.207289   -0.545232
     18          1           0       -5.239558    0.008356   -0.922277
     19          1           0       -3.562565    2.028108   -1.234429
     20          1           0        3.735701    2.695487    0.707971
     21          1           0        2.280137    2.342100    1.627889
     22          1           0        2.171237    2.809819   -0.091204
 ---------------------------------------------------------------------
 Rotational constants (GHZ):           1.1871837           0.2759922           0.2330545
 Standard basis: 6-311+G(d,p) (5D, 7F)
 There are   394 symmetry adapted cartesian basis functions of A   symmetry.
 There are   380 symmetry adapted basis functions of A   symmetry.
   380 basis functions,   610 primitive gaussians,   394 cartesian basis functions
    61 alpha electrons       61 beta electrons
       nuclear repulsion energy      1106.1888155112 Hartrees.
 NAtoms=   22 NActive=   22 NUniq=   22 SFac= 1.00D+00 NAtFMM=   60 NAOKFM=F Big=F
 Integral buffers will be    131072 words long.
 Raffenetti 2 integral format.
 Two-electron integral symmetry is turned on.
 Nuclear repulsion after empirical dispersion term =     1106.1766276311 Hartrees.
 One-electron integrals computed using PRISM.
 NBasis=   380 RedAO= T EigKep=  1.26D-06  NBF=   380
 NBsUse=   379 1.00D-06 EigRej=  3.14D-07 NBFU=   379
 ExpMin= 4.05D-02 ExpMax= 9.34D+04 ExpMxC= 3.17D+03 IAcc=3 IRadAn=         5 AccDes= 0.00D+00
 Harris functional with IExCor= 4639 and IRadAn=       5 diagonalized for initial guess.
 HarFok:  IExCor= 4639 AccDes= 0.00D+00 IRadAn=         5 IDoV= 1 UseB2=F ITyADJ=14
 ICtDFT=  3500011 ScaDFX=  1.000000  1.000000  1.000000  1.000000
 FoFCou: FMM=F IPFlag=           0 FMFlag=      100000 FMFlg1=           0
         NFxFlg=           0 DoJE=T BraDBF=F KetDBF=T FulRan=T
         wScrn=  0.000000 ICntrl=       500 IOpCl=  0 I1Cent=   200000004 NGrid=           0
         NMat0=    1 NMatS0=      1 NMatT0=    0 NMatD0=    1 NMtDS0=    0 NMtDT0=    0
 Petite list used in FoFCou.
 Requested convergence on RMS density matrix=1.00D-08 within 128 cycles.
 Requested convergence on MAX density matrix=1.00D-06.
 Requested convergence on             energy=1.00D-06.
 No special actions if energy rises.
 SCF Done:  E(RwB97XD) =  -1618.46035764     A.U. after   19 cycles
            NFock= 19  Conv=0.36D-08     -V/T= 2.0028

 **********************************************************************

            Population analysis using the SCF Density.

 **********************************************************************

 Orbital symmetries:
       Occupied  (A) (A) (A) (A) (A) (A) (A) (A) (A) (A) (A) (A)
                 (A) (A) (A) (A) (A) (A) (A) (A) (A) (A) (A) (A)
                 (A) (A) (A) (A) (A) (A) (A) (A) (A) (A) (A) (A)
                 (A) (A) (A) (A) (A) (A) (A) (A) (A) (A) (A) (A)
                 (A) (A) (A) (A) (A) (A) (A) (A) (A) (A) (A) (A)
                 (A)
       Virtual   (A) (A) (A) (A) (A) (A) (A) (A) (A) (A) (A) (A)
                 (A) (A) (A) (A) (A) (A) (A) (A) (A) (A) (A) (A)
                 (A) (A) (A) (A) (A) (A) (A) (A) (A) (A) (A) (A)
                 (A) (A) (A) (A) (A) (A) (A) (A) (A) (A) (A) (A)
                 (A) (A) (A) (A) (A) (A) (A) (A) (A) (A) (A) (A)
                 (A) (A) (A) (A) (A) (A) (A) (A) (A) (A) (A) (A)
                 (A) (A) (A) (A) (A) (A) (A) (A) (A) (A) (A) (A)
                 (A) (A) (A) (A) (A) (A) (A) (A) (A) (A) (A) (A)
                 (A) (A) (A) (A) (A) (A) (A) (A) (A) (A) (A) (A)
                 (A) (A) (A) (A) (A) (A) (A) (A) (A) (A) (A) (A)
                 (A) (A) (A) (A) (A) (A) (A) (A) (A) (A) (A) (A)
                 (A) (A) (A) (A) (A) (A) (A) (A) (A) (A) (A) (A)
                 (A) (A) (A) (A) (A) (A) (A) (A) (A) (A) (A) (A)
                 (A) (A) (A) (A) (A) (A) (A) (A) (A) (A) (A) (A)
                 (A) (A) (A) (A) (A) (A) (A) (A) (A) (A) (A) (A)
                 (A) (A) (A) (A) (A) (A) (A) (A) (A) (A) (A) (A)
                 (A) (A) (A) (A) (A) (A) (A) (A) (A) (A) (A) (A)
                 (A) (A) (A) (A) (A) (A) (A) (A) (A) (A) (A) (A)
                 (A) (A) (A) (A) (A) (A) (A) (A) (A) (A) (A) (A)
                 (A) (A) (A) (A) (A) (A) (A) (A) (A) (A) (A) (A)
                 (A) (A) (A) (A) (A) (A) (A) (A) (A) (A) (A) (A)
                 (A) (A) (A) (A) (A) (A) (A) (A) (A) (A) (A) (A)
                 (A) (A) (A) (A) (A) (A) (A) (A) (A) (A) (A) (A)
                 (A) (A) (A) (A) (A) (A) (A) (A) (A) (A) (A) (A)
                 (A) (A) (A) (A) (A) (A) (A) (A) (A) (A) (A) (A)
                 (A) (A) (A) (A) (A) (A) (A) (A) (A) (A) (A) (A)
                 (A) (A) (A) (A) (A) (A)
 The electronic state is 1-A.
 Alpha  occ. eigenvalues --  -89.05895 -89.05702 -89.05637 -10.35497 -10.34418
 Alpha  occ. eigenvalues --  -10.33647 -10.33527 -10.33470 -10.32938 -10.31983
 Alpha  occ. eigenvalues --  -10.31828 -10.31754 -10.30409 -10.28766  -8.09838
 Alpha  occ. eigenvalues --   -8.09651  -8.09515  -6.04690  -6.04513  -6.04354
 Alpha  occ. eigenvalues --   -6.04326  -6.04143  -6.03977  -6.03906  -6.03699
 Alpha  occ. eigenvalues --   -6.03636  -1.00773  -0.97642  -0.93570  -0.87642
 Alpha  occ. eigenvalues --   -0.87193  -0.84676  -0.80737  -0.79181  -0.76828
 Alpha  occ. eigenvalues --   -0.70395  -0.66927  -0.65788  -0.62205  -0.60795
 Alpha  occ. eigenvalues --   -0.58084  -0.57776  -0.52825  -0.52106  -0.51818
 Alpha  occ. eigenvalues --   -0.50294  -0.49621  -0.47835  -0.47474  -0.47170
 Alpha  occ. eigenvalues --   -0.46081  -0.45080  -0.44754  -0.43036  -0.42183
 Alpha  occ. eigenvalues --   -0.41308  -0.37211  -0.33111  -0.32772  -0.30696
 Alpha  occ. eigenvalues --   -0.26418
 Alpha virt. eigenvalues --   -0.00961   0.03116   0.05133   0.05735   0.06025
 Alpha virt. eigenvalues --    0.06454   0.06843   0.07046   0.07494   0.08627
 Alpha virt. eigenvalues --    0.08696   0.08966   0.09163   0.09907   0.10274
 Alpha virt. eigenvalues --    0.10573   0.10970   0.11544   0.11722   0.11951
 Alpha virt. eigenvalues --    0.12668   0.12778   0.13356   0.13665   0.13981
 Alpha virt. eigenvalues --    0.14995   0.15499   0.15596   0.16420   0.16939
 Alpha virt. eigenvalues --    0.17236   0.17932   0.18143   0.18603   0.18862
 Alpha virt. eigenvalues --    0.19472   0.19776   0.20556   0.20813   0.21291
 Alpha virt. eigenvalues --    0.21549   0.22052   0.22161   0.22759   0.22947
 Alpha virt. eigenvalues --    0.23358   0.23904   0.24252   0.24870   0.25011
 Alpha virt. eigenvalues --    0.25576   0.25810   0.26157   0.26276   0.26688
 Alpha virt. eigenvalues --    0.27018   0.27100   0.27656   0.27857   0.28473
 Alpha virt. eigenvalues --    0.28829   0.29349   0.29979   0.30251   0.30811
 Alpha virt. eigenvalues --    0.31139   0.31233   0.31632   0.32528   0.32866
 Alpha virt. eigenvalues --    0.33721   0.34041   0.34914   0.35323   0.36232
 Alpha virt. eigenvalues --    0.36446   0.37730   0.38139   0.38965   0.39802
 Alpha virt. eigenvalues --    0.41584   0.41693   0.42466   0.42617   0.43814
 Alpha virt. eigenvalues --    0.44500   0.45674   0.47326   0.48714   0.49732
 Alpha virt. eigenvalues --    0.50591   0.51965   0.52366   0.53650   0.54626
 Alpha virt. eigenvalues --    0.56216   0.60076   0.61185   0.61785   0.63254
 Alpha virt. eigenvalues --    0.63338   0.63516   0.64215   0.64673   0.65024
 Alpha virt. eigenvalues --    0.65968   0.66653   0.68283   0.69479   0.69599
 Alpha virt. eigenvalues --    0.70367   0.71113   0.71666   0.72928   0.74390
 Alpha virt. eigenvalues --    0.74590   0.75588   0.76822   0.76915   0.77525
 Alpha virt. eigenvalues --    0.78103   0.78876   0.79616   0.79821   0.81094
 Alpha virt. eigenvalues --    0.81617   0.82336   0.83335   0.84063   0.84260
 Alpha virt. eigenvalues --    0.85559   0.85894   0.86606   0.87533   0.89629
 Alpha virt. eigenvalues --    0.90140   0.90428   0.91334   0.92347   0.93240
 Alpha virt. eigenvalues --    0.94244   0.95065   0.97303   0.97688   0.98441
 Alpha virt. eigenvalues --    0.99165   1.00061   1.01597   1.01975   1.02304
 Alpha virt. eigenvalues --    1.03813   1.04337   1.05659   1.06320   1.07679
 Alpha virt. eigenvalues --    1.07777   1.09724   1.09987   1.11347   1.13924
 Alpha virt. eigenvalues --    1.15022   1.15170   1.17201   1.19326   1.22382
 Alpha virt. eigenvalues --    1.25986   1.27860   1.29115   1.34103   1.36522
 Alpha virt. eigenvalues --    1.39661   1.42473   1.44159   1.45278   1.49059
 Alpha virt. eigenvalues --    1.49277   1.51311   1.55296   1.56239   1.56656
 Alpha virt. eigenvalues --    1.60782   1.61367   1.62617   1.64179   1.64783
 Alpha virt. eigenvalues --    1.66372   1.66655   1.67685   1.69568   1.70363
 Alpha virt. eigenvalues --    1.72431   1.73010   1.73854   1.74641   1.76168
 Alpha virt. eigenvalues --    1.77648   1.79059   1.79844   1.80915   1.82927
 Alpha virt. eigenvalues --    1.83424   1.85464   1.87647   1.88505   1.89288
 Alpha virt. eigenvalues --    1.90055   1.91448   1.93479   1.95233   1.96697
 Alpha virt. eigenvalues --    1.98288   1.99291   2.02504   2.03264   2.03846
 Alpha virt. eigenvalues --    2.05113   2.07190   2.08750   2.08922   2.11209
 Alpha virt. eigenvalues --    2.11752   2.14144   2.15283   2.15767   2.17594
 Alpha virt. eigenvalues --    2.18878   2.19603   2.20962   2.22756   2.23058
 Alpha virt. eigenvalues --    2.25085   2.27197   2.30533   2.35689   2.37549
 Alpha virt. eigenvalues --    2.43687   2.45007   2.46324   2.48958   2.52839
 Alpha virt. eigenvalues --    2.53854   2.55869   2.60362   2.60998   2.63712
 Alpha virt. eigenvalues --    2.65319   2.69326   2.69746   2.74321   2.74759
 Alpha virt. eigenvalues --    2.78356   2.78548   2.81456   2.82033   2.82306
 Alpha virt. eigenvalues --    2.83560   2.85496   2.87809   2.90701   2.91902
 Alpha virt. eigenvalues --    2.93756   2.97093   3.02024   3.03003   3.04548
 Alpha virt. eigenvalues --    3.07584   3.09613   3.10535   3.13232   3.14005
 Alpha virt. eigenvalues --    3.16052   3.21100   3.26585   3.31741   3.35792
 Alpha virt. eigenvalues --    3.37506   3.41883   3.46106   3.49233   3.50269
 Alpha virt. eigenvalues --    3.57497   3.67358   3.75203   3.90148   3.91837
 Alpha virt. eigenvalues --    4.01767   4.05258   4.14837   4.20608   4.40732
 Alpha virt. eigenvalues --    4.43766   4.57037   8.06078   8.07668   8.09199
 Alpha virt. eigenvalues --   17.42331  17.42617  17.44303  17.56284  17.59388
 Alpha virt. eigenvalues --   17.60983  17.62628  17.64111  17.66512  23.61122
 Alpha virt. eigenvalues --   23.74181  23.86785  23.90639  23.94954  23.99130
 Alpha virt. eigenvalues --   24.01341  24.07136  24.09075  24.09290  24.12045
 Alpha virt. eigenvalues --  189.30524 189.32500 189.34537
          Condensed to atoms (all electrons):
               1          2          3          4          5          6
     1  C   12.516139  -8.505396   7.195003  -1.806075  -1.007159   0.318694
     2  C   -8.505396  32.875599 -27.175282   2.645246   2.994837   0.030160
     3  C    7.195003 -27.175282  40.485933  -6.039759  -3.213994  -0.033991
     4  C   -1.806075   2.645246  -6.039759   9.360802   0.262341   0.020078
     5  C   -1.007159   2.994837  -3.213994   0.262341   6.242842   0.005711
     6  H    0.318694   0.030160  -0.033991   0.020078   0.005711   0.491222
     7  S   -1.097501  -0.043568  -1.347048   0.718245   0.017658   0.007165
     8  H    0.030122  -0.029037   0.002485   0.001989   0.388919  -0.003209
     9  C   -1.145931   1.505354  -2.141917   0.225136   0.372675   0.002630
    10  S   -0.110833   0.951449  -0.336669  -0.106915   0.080024   0.000207
    11  C    0.012627  -0.501175  -0.177559   0.122173  -0.063390   0.000087
    12  C   -0.142515   0.919123  -0.660039   0.043247   0.090822  -0.000071
    13  C    0.194426  -0.115958  -0.846800   0.190964  -0.197853   0.000014
    14  H   -0.000002  -0.047384   0.048249  -0.003562   0.000487   0.000000
    15  S    0.005462   0.074229  -0.062551   0.001535  -0.001713  -0.000003
    16  C    0.000291  -0.045299   0.005838  -0.006961  -0.000596   0.000000
    17  C    0.012641  -0.226300   0.348886   0.011859  -0.009359  -0.000001
    18  H   -0.000001   0.000157   0.000157   0.000005   0.000001  -0.000000
    19  H    0.000025   0.000184  -0.000899  -0.000177   0.000002  -0.000000
    20  H    0.053572  -0.063076  -0.090812   0.446657   0.021520   0.001525
    21  H   -0.019301   0.008564  -0.042343   0.419448   0.001776   0.000124
    22  H   -0.046964  -0.047374   0.160235   0.272386  -0.008489   0.000195
               7          8          9         10         11         12
     1  C   -1.097501   0.030122  -1.145931  -0.110833   0.012627  -0.142515
     2  C   -0.043568  -0.029037   1.505354   0.951449  -0.501175   0.919123
     3  C   -1.347048   0.002485  -2.141917  -0.336669  -0.177559  -0.660039
     4  C    0.718245   0.001989   0.225136  -0.106915   0.122173   0.043247
     5  C    0.017658   0.388919   0.372675   0.080024  -0.063390   0.090822
     6  H    0.007165  -0.003209   0.002630   0.000207   0.000087  -0.000071
     7  S   17.888581  -0.020626   0.233399  -0.099267   0.231687  -0.356238
     8  H   -0.020626   0.443879  -0.006654  -0.000338  -0.000022   0.000055
     9  C    0.233399  -0.006654  10.068157   0.210854  -0.943457   0.633399
    10  S   -0.099267  -0.000338   0.210854  17.644636  -1.048552   1.331758
    11  C    0.231687  -0.000022  -0.943457  -1.048552  13.798029  -4.626590
    12  C   -0.356238   0.000055   0.633399   1.331758  -4.626590  15.952958
    13  C    0.293210   0.000208  -3.195452  -2.095538   1.101807  -5.516435
    14  H    0.003950  -0.000002   0.112113   0.010705  -0.041305   0.116299
    15  S   -0.033544   0.000011  -0.340657   0.194559   0.888161  -0.858404
    16  C    0.002208  -0.000000   0.226230  -0.002567   0.811241  -0.303378
    17  C    0.091916  -0.000008  -0.021524  -0.159627  -3.703245  -0.636773
    18  H   -0.000050   0.000000  -0.004695   0.000397  -0.034120   0.017639
    19  H   -0.000076   0.000000   0.005731   0.009664   0.009673  -0.023252
    20  H   -0.003534  -0.000018   0.005228   0.001868  -0.001856   0.001704
    21  H    0.003954  -0.000000   0.000411  -0.002402   0.001599  -0.006606
    22  H    0.003367   0.000000  -0.001684   0.009551   0.006719  -0.004476
              13         14         15         16         17         18
     1  C    0.194426  -0.000002   0.005462   0.000291   0.012641  -0.000001
     2  C   -0.115958  -0.047384   0.074229  -0.045299  -0.226300   0.000157
     3  C   -0.846800   0.048249  -0.062551   0.005838   0.348886   0.000157
     4  C    0.190964  -0.003562   0.001535  -0.006961   0.011859   0.000005
     5  C   -0.197853   0.000487  -0.001713  -0.000596  -0.009359   0.000001
     6  H    0.000014   0.000000  -0.000003   0.000000  -0.000001  -0.000000
     7  S    0.293210   0.003950  -0.033544   0.002208   0.091916  -0.000050
     8  H    0.000208  -0.000002   0.000011  -0.000000  -0.000008   0.000000
     9  C   -3.195452   0.112113  -0.340657   0.226230  -0.021524  -0.004695
    10  S   -2.095538   0.010705   0.194559  -0.002567  -0.159627   0.000397
    11  C    1.101807  -0.041305   0.888161   0.811241  -3.703245  -0.034120
    12  C   -5.516435   0.116299  -0.858404  -0.303378  -0.636773   0.017639
    13  C   15.056029   0.162501   0.033110  -0.564580   1.108356   0.018439
    14  H    0.162501   0.475303  -0.002893   0.003757  -0.011546  -0.000006
    15  S    0.033110  -0.002893  16.604568   0.473511  -0.794816  -0.022749
    16  C   -0.564580   0.003757   0.473511   5.626766  -0.232506   0.364511
    17  C    1.108356  -0.011546  -0.794816  -0.232506  10.050230   0.022642
    18  H    0.018439  -0.000006  -0.022749   0.364511   0.022642   0.438606
    19  H   -0.001397   0.000007  -0.001093   0.014352   0.346077  -0.002676
    20  H   -0.000597  -0.000001   0.000018   0.000002  -0.000139   0.000000
    21  H   -0.008053   0.000002  -0.000158  -0.000072   0.001748   0.000000
    22  H    0.004265   0.000014  -0.000133   0.000181  -0.000326  -0.000000
              19         20         21         22
     1  C    0.000025   0.053572  -0.019301  -0.046964
     2  C    0.000184  -0.063076   0.008564  -0.047374
     3  C   -0.000899  -0.090812  -0.042343   0.160235
     4  C   -0.000177   0.446657   0.419448   0.272386
     5  C    0.000002   0.021520   0.001776  -0.008489
     6  H   -0.000000   0.001525   0.000124   0.000195
     7  S   -0.000076  -0.003534   0.003954   0.003367
     8  H    0.000000  -0.000018  -0.000000   0.000000
     9  C    0.005731   0.005228   0.000411  -0.001684
    10  S    0.009664   0.001868  -0.002402   0.009551
    11  C    0.009673  -0.001856   0.001599   0.006719
    12  C   -0.023252   0.001704  -0.006606  -0.004476
    13  C   -0.001397  -0.000597  -0.008053   0.004265
    14  H    0.000007  -0.000001   0.000002   0.000014
    15  S   -0.001093   0.000018  -0.000158  -0.000133
    16  C    0.014352   0.000002  -0.000072   0.000181
    17  C    0.346077  -0.000139   0.001748  -0.000326
    18  H   -0.002676   0.000000   0.000000  -0.000000
    19  H    0.475044   0.000000  -0.000000  -0.000002
    20  H    0.000000   0.515794  -0.022697  -0.025328
    21  H   -0.000000  -0.022697   0.486642  -0.023719
    22  H   -0.000002  -0.025328  -0.023719   0.523989
 Mulliken charges:
               1
     1  C   -0.457326
     2  C    0.794946
     3  C   -0.077125
     4  C   -0.778661
     5  C    0.022937
     6  H    0.159460
     7  S   -0.493889
     8  H    0.192246
     9  C    0.200654
    10  S   -0.482967
    11  C    0.157469
    12  C    0.027772
    13  C    0.379335
    14  H    0.173313
    15  S   -0.156451
    16  C   -0.372929
    17  C   -0.198184
    18  H    0.201743
    19  H    0.168812
    20  H    0.160168
    21  H    0.201082
    22  H    0.177595
 Sum of Mulliken charges =  -0.00000
 Mulliken charges with hydrogens summed into heavy atoms:
               1
     1  C   -0.297866
     2  C    0.794946
     3  C   -0.077125
     4  C   -0.239816
     5  C    0.215182
     7  S   -0.493889
     9  C    0.200654
    10  S   -0.482967
    11  C    0.157469
    12  C    0.027772
    13  C    0.552647
    15  S   -0.156451
    16  C   -0.171186
    17  C   -0.029371
 Electronic spatial extent (au):  <R**2>=           4441.2406
 Charge=             -0.0000 electrons
 Dipole moment (field-independent basis, Debye):
    X=              0.7122    Y=              0.4152    Z=             -0.7658  Tot=              1.1252
 Quadrupole moment (field-independent basis, Debye-Ang):
   XX=            -88.0456   YY=            -97.7011   ZZ=           -107.7126
   XY=              0.8330   XZ=              5.4445   YZ=             -1.3758
 Traceless Quadrupole moment (field-independent basis, Debye-Ang):
   XX=              9.7742   YY=              0.1186   ZZ=             -9.8928
   XY=              0.8330   XZ=              5.4445   YZ=             -1.3758
 Octapole moment (field-independent basis, Debye-Ang**2):
  XXX=             22.0337  YYY=             -2.7247  ZZZ=             -2.0605  XYY=             10.7396
  XXY=             -0.3486  XXZ=            -28.7342  XZZ=             -6.2923  YZZ=              3.0316
  YYZ=             -3.7443  XYZ=             14.2160
 Hexadecapole moment (field-independent basis, Debye-Ang**3):
 XXXX=          -4308.8753 YYYY=          -1103.7874 ZZZZ=           -264.4356 XXXY=             -0.2994
 XXXZ=            122.7717 YYYX=             -5.1784 YYYZ=            -12.3545 ZZZX=             11.6923
 ZZZY=             -0.5113 XXYY=           -932.4596 XXZZ=           -897.8780 YYZZ=           -226.9690
 XXYZ=             10.9137 YYXZ=              8.3576 ZZXY=             -0.4569
 N-N= 1.106176627631D+03 E-N=-6.035481219727D+03  KE= 1.613972881238D+03
 Calling FoFJK, ICntrl=      2127 FMM=F ISym2X=0 I1Cent= 0 IOpClX= 0 NMat=1 NMatS=1 NMatT=0.
 ***** Axes restored to original set *****
 -------------------------------------------------------------------
 Center     Atomic                   Forces (Hartrees/Bohr)
 Number     Number              X              Y              Z
 -------------------------------------------------------------------
      1        6           0.024082361   -0.063080363    0.008611521
      2        6           0.015245265   -0.048584396    0.007947002
      3        6          -0.050904652    0.019525727    0.006058930
      4        6           0.008672293    0.006743544    0.002219376
      5        6           0.013597544    0.053658716   -0.016576056
      6        1          -0.000886335    0.001979064   -0.000175916
      7       16          -0.004706854    0.029426300   -0.003713095
      8        1           0.002932529   -0.004497324    0.000314885
      9        6           0.040639565   -0.034459789   -0.029393313
     10       16          -0.014127765   -0.010630026   -0.013379452
     11        6           0.001863246   -0.040370742   -0.001648280
     12        6          -0.014401617    0.027575348    0.031205813
     13        6          -0.017723874    0.051629305    0.028826965
     14        1          -0.006036863    0.001408450   -0.004399441
     15       16           0.013866631    0.019383337    0.001759844
     16        6          -0.039157713    0.050211175    0.014571497
     17        6           0.021028421   -0.058640414   -0.009572307
     18        1           0.000709300   -0.001775437   -0.007132282
     19        1           0.003010115    0.000835169   -0.008851362
     20        1          -0.000679651   -0.002547389    0.000416670
     21        1           0.004154062    0.001916791   -0.001981527
     22        1          -0.001176009    0.000292952   -0.005109476
 -------------------------------------------------------------------
 Cartesian Forces:  Max     0.063080363 RMS     0.023143779

 GradGradGradGradGradGradGradGradGradGradGradGradGradGradGradGradGradGrad
 Berny optimization.
 FormGI is forming the generalized inverse of G from B-inverse, IUseBI=4.
 Internal  Forces:  Max     0.070086760 RMS     0.014065579
 Search for a local minimum.
 Step number   1 out of a maximum of  127
 All quantities printed in internal units (Hartrees-Bohrs-Radians)
 Mixed Optimization -- RFO/linear search
 Second derivative matrix not updated -- first step.
 ITU=  0
     Eigenvalues ---    0.00935   0.00982   0.01056   0.01214   0.01241
     Eigenvalues ---    0.01275   0.01296   0.01417   0.01457   0.01491
     Eigenvalues ---    0.01498   0.01592   0.01594   0.01769   0.02198
     Eigenvalues ---    0.02651   0.07307   0.07353   0.15076   0.15685
     Eigenvalues ---    0.15736   0.15997   0.16000   0.16000   0.16000
     Eigenvalues ---    0.16000   0.17994   0.22443   0.22545   0.23321
     Eigenvalues ---    0.23978   0.24718   0.24978   0.24995   0.25000
     Eigenvalues ---    0.26147   0.26577   0.28413   0.30920   0.31336
     Eigenvalues ---    0.31523   0.33757   0.33818   0.34533   0.34794
     Eigenvalues ---    0.34935   0.35218   0.35867   0.35877   0.36006
     Eigenvalues ---    0.36155   0.36185   0.36281   0.37598   0.38187
     Eigenvalues ---    0.38438   0.39458   0.39670   0.407131000.00000
     Eigenvalues --- 1000.000001000.000001000.000001000.000001000.00000
     Eigenvalues --- 1000.000001000.000001000.000001000.000001000.00000
     Eigenvalues --- 1000.000001000.000001000.000001000.000001000.00000
     Eigenvalues --- 1000.000001000.000001000.000001000.000001000.00000
     Eigenvalues --- 1000.000001000.000001000.000001000.000001000.00000
     Eigenvalues --- 1000.000001000.000001000.000001000.000001000.00000
     Eigenvalues --- 1000.000001000.000001000.000001000.000001000.00000
     Eigenvalues --- 1000.000001000.000001000.000001000.000001000.00000
     Eigenvalues --- 1000.000001000.000001000.000001000.000001000.00000
     Eigenvalues --- 1000.000001000.000001000.000001000.000001000.00000
     Eigenvalues --- 1000.000001000.000001000.000001000.000001000.00000
     Eigenvalues --- 1000.000001000.00000
 RFO step:  Lambda=-6.06963320D-02 EMin= 9.35106172D-03
 Linear search not attempted -- first point.
 Maximum step size (   0.300) exceeded in Quadratic search.
    -- Step size scaled by   0.815
 Iteration  1 RMS(Cart)=  0.08480828 RMS(Int)=  0.00200244
 Iteration  2 RMS(Cart)=  0.00310516 RMS(Int)=  0.00049599
 Iteration  3 RMS(Cart)=  0.00000446 RMS(Int)=  0.00049598
 Iteration  4 RMS(Cart)=  0.00000000 RMS(Int)=  0.00049598
 Iteration  1 RMS(Cart)=  0.00001124 RMS(Int)=  0.00000466
 Iteration  2 RMS(Cart)=  0.00000614 RMS(Int)=  0.00000520
 Iteration  3 RMS(Cart)=  0.00000335 RMS(Int)=  0.00000588
 Iteration  4 RMS(Cart)=  0.00000183 RMS(Int)=  0.00000632
 Iteration  5 RMS(Cart)=  0.00000100 RMS(Int)=  0.00000658
 Variable       Old X    -DE/DX   Delta X   Delta X   Delta X     New X
                                 (Linear)    (Quad)   (Total)
    R1        2.71917  -0.01754   0.00000  -0.03329  -0.03324   2.68593
    R2        2.71391  -0.05790   0.00000  -0.10338  -0.10344   2.61047
    R3        2.03793   0.00190   0.00000   0.00366   0.00366   2.04159
    R4        2.75906  -0.06485   0.00000  -0.12330  -0.12319   2.63587
    R5        2.81042   0.00915   0.00000   0.01874   0.01874   2.82916
    R6        3.39578  -0.02769   0.00000  -0.06702  -0.06699   3.32879
    R7        2.74954  -0.01077   0.00000  -0.02011  -0.02011   2.72943
    R8        2.06439  -0.00084   0.00000  -0.00169  -0.00169   2.06270
    R9        2.05781   0.00323   0.00000   0.00643   0.00643   2.06423
   R10        2.07638  -0.00375   0.00000  -0.00766  -0.00766   2.06872
   R11        3.28671  -0.02205   0.00000  -0.04635  -0.04645   3.24026
   R12        2.04073  -0.00023   0.00000  -0.00044  -0.00044   2.04028
   R13        3.38248  -0.01866   0.00000  -0.04202  -0.04252   3.33995
   R14        2.76759  -0.07009   0.00000  -0.13418  -0.13445   2.63314
   R15        3.27042  -0.00587   0.00000  -0.01139  -0.01131   3.25911
   R16        2.72375  -0.04024   0.00000  -0.07604  -0.07508   2.64867
   R17        2.69350  -0.00287   0.00000  -0.00736  -0.00695   2.68655
   R18        2.70766  -0.01269   0.00000  -0.02480  -0.02450   2.68316
   R19        3.27317  -0.00437   0.00000  -0.00763  -0.00769   3.26548
   R20        2.03840   0.00207   0.00000   0.00399   0.00399   2.04239
   R21        3.33503  -0.01779   0.00000  -0.03831  -0.03883   3.29620
   R22        2.73249  -0.06601   0.00000  -0.12038  -0.12053   2.61196
   R23        2.04290  -0.00105   0.00000  -0.00204  -0.00204   2.04086
   R24        2.05322  -0.00376   0.00000  -0.00742  -0.00742   2.04580
    A1        1.97020   0.00713   0.00000   0.01495   0.01492   1.98513
    A2        2.17330  -0.00465   0.00000  -0.01146  -0.01145   2.16185
    A3        2.13967  -0.00248   0.00000  -0.00347  -0.00346   2.13621
    A4        1.97187  -0.00283   0.00000  -0.01150  -0.01135   1.96052
    A5        2.09905   0.01201   0.00000   0.03354   0.03346   2.13251
    A6        2.21227  -0.00918   0.00000  -0.02204  -0.02212   2.19015
    A7        1.90440   0.00646   0.00000   0.01847   0.01860   1.92300
    A8        2.31891  -0.00967   0.00000  -0.02619  -0.02626   2.29265
    A9        2.05972   0.00321   0.00000   0.00765   0.00757   2.06729
   A10        1.94548  -0.00418   0.00000  -0.01448  -0.01444   1.93105
   A11        1.93409   0.00250   0.00000   0.00866   0.00866   1.94275
   A12        1.93331   0.00383   0.00000   0.01379   0.01380   1.94712
   A13        1.87410   0.00122   0.00000   0.00520   0.00523   1.87933
   A14        1.86607   0.00075   0.00000   0.00392   0.00396   1.87004
   A15        1.90848  -0.00435   0.00000  -0.01784  -0.01786   1.89061
   A16        1.95339  -0.00269   0.00000  -0.00842  -0.00858   1.94480
   A17        2.17580   0.00684   0.00000   0.02453   0.02460   2.20040
   A18        2.15384  -0.00413   0.00000  -0.01600  -0.01593   2.13792
   A19        1.62490  -0.00807   0.00000  -0.01345  -0.01359   1.61131
   A20        2.12885  -0.00350   0.00000  -0.00912  -0.00916   2.11969
   A21        2.24005  -0.00411   0.00000  -0.01073  -0.01076   2.22929
   A22        1.91360   0.00767   0.00000   0.02030   0.02030   1.93390
   A23        1.61938  -0.00614   0.00000  -0.01229  -0.01195   1.60743
   A24        1.96083  -0.01072   0.00000  -0.02318  -0.02399   1.93684
   A25        2.23842   0.00821   0.00000   0.03926   0.03746   2.27588
   A26        1.96575   0.00627   0.00000   0.01641   0.01661   1.98236
   A27        1.96679   0.00788   0.00000   0.01947   0.01940   1.98619
   A28        1.96628  -0.01331   0.00000  -0.02935  -0.03009   1.93620
   A29        2.23757   0.00916   0.00000   0.04174   0.04007   2.27764
   A30        1.96346   0.00134   0.00000  -0.00404  -0.00353   1.95993
   A31        2.16142  -0.00438   0.00000  -0.00969  -0.01035   2.15107
   A32        2.14647   0.00362   0.00000   0.02001   0.01935   2.16582
   A33        1.59364   0.00067   0.00000   0.00392   0.00427   1.59791
   A34        1.95957   0.00161   0.00000   0.00314   0.00291   1.96248
   A35        2.13679  -0.00451   0.00000  -0.01213  -0.01294   2.12384
   A36        2.16958   0.00398   0.00000   0.01989   0.01920   2.18878
   A37        1.93920   0.00476   0.00000   0.00582   0.00623   1.94544
   A38        2.16627   0.00045   0.00000   0.01396   0.01259   2.17886
   A39        2.14098  -0.00332   0.00000  -0.00091  -0.00236   2.13862
    D1        0.00683  -0.00022   0.00000  -0.00377  -0.00383   0.00300
    D2       -3.13456  -0.00061   0.00000  -0.00835  -0.00847   3.14015
    D3       -3.13952   0.00021   0.00000   0.00168   0.00164  -3.13788
    D4        0.00227  -0.00018   0.00000  -0.00290  -0.00299  -0.00073
    D5       -0.00671   0.00075   0.00000   0.00803   0.00801   0.00130
    D6       -3.13020   0.00011   0.00000   0.00152   0.00151  -3.12868
    D7        3.13954   0.00034   0.00000   0.00272   0.00265  -3.14100
    D8        0.01605  -0.00030   0.00000  -0.00378  -0.00384   0.01221
    D9       -0.00388  -0.00033   0.00000  -0.00186  -0.00187  -0.00575
   D10        3.11762  -0.00014   0.00000  -0.00628  -0.00627   3.11136
   D11        3.13750   0.00010   0.00000   0.00308   0.00295   3.14045
   D12       -0.02418   0.00029   0.00000  -0.00134  -0.00144  -0.02562
   D13        0.03777  -0.00020   0.00000  -0.00177  -0.00176   0.03601
   D14       -2.04840  -0.00065   0.00000  -0.00455  -0.00452  -2.05292
   D15        2.11332   0.00056   0.00000   0.00281   0.00279   2.11611
   D16       -3.10360  -0.00065   0.00000  -0.00703  -0.00703  -3.11063
   D17        1.09342  -0.00111   0.00000  -0.00980  -0.00979   1.08363
   D18       -1.02805   0.00010   0.00000  -0.00244  -0.00248  -1.03053
   D19        0.00006   0.00068   0.00000   0.00553   0.00548   0.00554
   D20       -3.12486   0.00071   0.00000   0.00967   0.00970  -3.11515
   D21        0.69795  -0.00141   0.00000   0.00000  -0.00000   0.69795
   D22       -2.48774   0.00068   0.00000   0.01501   0.01504  -2.47270
   D23       -2.46514  -0.00120   0.00000  -0.00468  -0.00464  -2.46978
   D24        0.63235   0.00089   0.00000   0.01034   0.01041   0.64276
   D25        0.00376  -0.00081   0.00000  -0.00777  -0.00766  -0.00390
   D26        3.12751  -0.00005   0.00000  -0.00087  -0.00094   3.12657
   D27        3.13780   0.00073   0.00000   0.00596   0.00592  -3.13947
   D28        0.03293  -0.00079   0.00000  -0.00596  -0.00622   0.02670
   D29       -3.13844  -0.00117   0.00000  -0.00773  -0.00756   3.13718
   D30       -0.15757   0.00315   0.00000   0.03657   0.03647  -0.12110
   D31       -0.03657   0.00052   0.00000   0.00528   0.00564  -0.03092
   D32        2.94430   0.00484   0.00000   0.04957   0.04968   2.99398
   D33       -0.02151   0.00129   0.00000   0.00625   0.00617  -0.01534
   D34       -2.61564  -0.00764   0.00000  -0.06486  -0.06514  -2.68078
   D35        0.00384  -0.00083   0.00000  -0.00351  -0.00335   0.00048
   D36       -2.68889  -0.01036   0.00000  -0.07419  -0.07234  -2.76123
   D37        2.68665   0.00832   0.00000   0.06601   0.06469   2.75134
   D38       -0.00607  -0.00121   0.00000  -0.00467  -0.00430  -0.01037
   D39        2.61351   0.00575   0.00000   0.06612   0.06737   2.68088
   D40       -0.24587  -0.00088   0.00000  -0.00417  -0.00362  -0.24949
   D41        0.02063   0.00108   0.00000   0.00483   0.00454   0.02517
   D42       -2.83876  -0.00555   0.00000  -0.06547  -0.06644  -2.90520
   D43        0.02173   0.00022   0.00000  -0.00129  -0.00158   0.02015
   D44       -2.96074  -0.00320   0.00000  -0.04201  -0.04286  -3.00360
   D45        2.62861   0.00438   0.00000   0.05891   0.06026   2.68887
   D46       -0.35386   0.00096   0.00000   0.01819   0.01898  -0.33488
   D47       -0.00780   0.00107   0.00000   0.00296   0.00280  -0.00500
   D48       -2.61480  -0.00833   0.00000  -0.06929  -0.06931  -2.68411
   D49        0.01963  -0.00034   0.00000   0.00002  -0.00003   0.01960
   D50        2.97050   0.00609   0.00000   0.06206   0.06136   3.03186
   D51       -0.02641  -0.00022   0.00000  -0.00246  -0.00218  -0.02859
   D52        2.83777   0.00698   0.00000   0.06944   0.06969   2.90746
   D53       -2.97306  -0.00569   0.00000  -0.06170  -0.06206  -3.03512
   D54       -0.10888   0.00151   0.00000   0.01020   0.00981  -0.09908
         Item               Value     Threshold  Converged?
 Maximum Force            0.070084     0.000450     NO 
 RMS     Force            0.014125     0.000300     NO 
 Maximum Displacement     0.292675     0.001800     NO 
 RMS     Displacement     0.085248     0.001200     NO 
 Predicted change in Energy=-3.358578D-02
 GradGradGradGradGradGradGradGradGradGradGradGradGradGradGradGradGradGrad

                          Input orientation:                          
 ---------------------------------------------------------------------
 Center     Atomic      Atomic             Coordinates (Angstroms)
 Number     Number       Type             X           Y           Z
 ---------------------------------------------------------------------
      1          6           0       -4.205029   -1.394920   -0.239214
      2          6           0       -2.888214   -1.005003   -0.605483
      3          6           0       -1.994700   -2.075972   -0.589709
      4          6           0       -2.545921    0.407183   -0.965971
      5          6           0       -4.324946   -2.738841    0.057033
      6          1           0       -5.043352   -0.715008   -0.193191
      7         16           0       -2.824378   -3.552474   -0.105435
      8          1           0       -5.232325   -3.247664    0.345919
      9          6           0       -0.590030   -2.151893   -0.917254
     10         16           0        0.535478   -0.870358   -0.453898
     11          6           0        1.868586   -1.693319   -1.174988
     12          6           0        1.463122   -2.914495   -1.730734
     13          6           0        0.077767   -3.183402   -1.574210
     14          1           0       -0.389076   -4.124624   -1.827700
     15         16           0        2.803573   -3.992096   -1.898082
     16          6           0        3.899287   -2.807922   -1.235036
     17          6           0        3.257049   -1.638295   -0.874554
     18          1           0        4.931680   -3.045266   -1.024848
     19          1           0        3.727159   -0.881799   -0.259161
     20          1           0       -3.420816    1.052364   -0.867245
     21          1           0       -2.195123    0.479610   -1.997918
     22          1           0       -1.769789    0.813193   -0.309321
 ---------------------------------------------------------------------
                    Distance matrix (angstroms):
                    1          2          3          4          5
     1  C    0.000000
     2  C    1.421334   0.000000
     3  C    2.339281   1.394844   0.000000
     4  C    2.555072   1.497127   2.571280   0.000000
     5  C    1.381400   2.347194   2.507532   3.756187   0.000000
     6  H    1.080362   2.213301   3.362102   2.844937   2.162086
     7  S    2.564983   2.596869   1.761518   4.061644   1.714672
     8  H    2.197812   3.380761   3.567979   4.721836   1.079672
     9  C    3.755126   2.587317   1.444351   3.221298   3.904273
    10  S    4.774271   3.429691   2.806021   3.374811   5.232209
    11  C    6.152521   4.839965   3.926061   4.893227   6.400846
    12  C    6.054889   4.883286   3.736522   5.262208   6.060421
    13  C    4.829412   3.805377   2.547697   4.488429   4.716192
    14  H    4.953390   4.179897   2.882295   5.092331   4.578611
    15  S    7.656218   6.556674   5.329803   6.988532   7.497260
    16  C    8.286627   7.051031   5.974218   7.207635   8.325397
    17  C    7.493030   6.183665   5.277648   6.153600   7.717882
    18  H    9.317743   8.092546   7.007398   8.236346   9.324672
    19  H    7.948792   6.625578   5.854484   6.443026   8.269521
    20  H    2.645489   2.141248   3.449249   1.091534   4.005618
    21  H    3.262917   2.150193   2.924761   1.092346   4.372345
    22  H    3.288019   2.155092   2.911438   1.094721   4.390898
                    6          7          8          9         10
     6  H    0.000000
     7  S    3.603160   0.000000
     8  H    2.596285   2.468773   0.000000
     9  C    4.735081   2.759165   4.934291   0.000000
    10  S    5.587079   4.313213   6.289582   1.767428   0.000000
    11  C    7.049532   5.159875   7.426445   2.514261   1.724649
    12  C    7.038181   4.629392   7.018012   2.336395   2.582505
    13  C    5.850302   3.273523   5.646955   1.393396   2.610512
    14  H    5.996614   3.037144   5.380588   2.181962   3.651353
    15  S    8.672958   5.922894   8.376477   3.983078   4.120094
    16  C    9.243188   6.858427   9.277884   4.548112   3.959740
    17  C    8.379342   6.421789   8.726345   3.881445   2.858955
    18  H   10.277307   7.826814  10.258020   5.594549   4.937895
    19  H    8.772345   7.076635   9.286323   4.548004   3.197636
    20  H    2.492103   4.705383   4.821159   4.275876   4.418142
    21  H    3.577228   4.498351   5.348901   3.266339   3.415054
    22  H    3.614568   4.495862   5.376714   3.248561   2.858234
                   11         12         13         14         15
    11  C    0.000000
    12  C    1.401615   0.000000
    13  C    2.363632   1.419866   0.000000
    14  H    3.381466   2.214600   1.080786   0.000000
    15  S    2.584849   1.728016   2.861625   3.196174   0.000000
    16  C    2.317260   2.488368   3.854873   4.524933   1.744273
    17  C    1.421660   2.362182   3.603430   4.514925   2.606460
    18  H    3.351545   3.542072   4.886856   5.488173   2.487542
    19  H    2.225218   3.379828   4.510520   5.469883   3.634972
    20  H    5.967517   6.350940   5.539096   6.075781   8.077885
    21  H    4.681086   4.997409   4.331653   4.948712   6.707689
    22  H    4.502194   5.134957   4.581066   5.347324   6.821334
                   16         17         18         19         20
    16  C    0.000000
    17  C    1.382188   0.000000
    18  H    1.079975   2.192384   0.000000
    19  H    2.166081   1.082588   2.591860   0.000000
    20  H    8.283779   7.199554   9.304817   7.429960   0.000000
    21  H    6.966469   5.955976   8.010178   6.320612   1.763176
    22  H    6.790276   5.621243   7.765911   5.752560   1.759083
                   21         22
    21  H    0.000000
    22  H    1.773005   0.000000
 Stoichiometry    C11H8S3
 Framework group  C1[X(C11H8S3)]
 Deg. of freedom    60
 Full point group                 C1      NOp   1
 Largest Abelian subgroup         C1      NOp   1
 Largest concise Abelian subgroup C1      NOp   1
                         Standard orientation:                         
 ---------------------------------------------------------------------
 Center     Atomic      Atomic             Coordinates (Angstroms)
 Number     Number       Type             X           Y           Z
 ---------------------------------------------------------------------
      1          6           0        4.029484    0.216259    0.088570
      2          6           0        2.743774    0.796083    0.264478
      3          6           0        1.714538   -0.113827    0.022968
      4          6           0        2.562481    2.225746    0.670171
      5          6           0        3.993608   -1.113219   -0.284883
      6          1           0        4.956394    0.752724    0.230792
      7         16           0        2.381795   -1.679824   -0.430203
      8          1           0        4.849455   -1.747651   -0.460139
      9          6           0        0.279403    0.023018    0.111335
     10         16           0       -0.542042    1.491134   -0.430571
     11          6           0       -2.088536    0.860886    0.000194
     12          6           0       -1.974696   -0.435548    0.520601
     13          6           0       -0.640081   -0.917472    0.571316
     14          1           0       -0.371995   -1.933168    0.825463
     15         16           0       -3.471503   -1.288503    0.386159
     16          6           0       -4.244293    0.088590   -0.354719
     17          6           0       -3.379844    1.154854   -0.516743
     18          1           0       -5.248884    0.032284   -0.747112
     19          1           0       -3.616738    2.006710   -1.141419
     20          1           0        3.528806    2.724629    0.763859
     21          1           0        2.054198    2.303545    1.633921
     22          1           0        1.981731    2.783793   -0.071264
 ---------------------------------------------------------------------
 Rotational constants (GHZ):           1.2379630           0.2843881           0.2404932
 Standard basis: 6-311+G(d,p) (5D, 7F)
 There are   394 symmetry adapted cartesian basis functions of A   symmetry.
 There are   380 symmetry adapted basis functions of A   symmetry.
   380 basis functions,   610 primitive gaussians,   394 cartesian basis functions
    61 alpha electrons       61 beta electrons
       nuclear repulsion energy      1124.7039236614 Hartrees.
 NAtoms=   22 NActive=   22 NUniq=   22 SFac= 1.00D+00 NAtFMM=   60 NAOKFM=F Big=F
 Integral buffers will be    131072 words long.
 Raffenetti 2 integral format.
 Two-electron integral symmetry is turned on.
 Nuclear repulsion after empirical dispersion term =     1124.6915544094 Hartrees.
 One-electron integrals computed using PRISM.
 NBasis=   380 RedAO= T EigKep=  2.56D-06  NBF=   380
 NBsUse=   378 1.00D-06 EigRej=  9.21D-07 NBFU=   378
 Initial guess from the checkpoint file:  "/tmp/pbs.4762230[215].pbs/Gau-2178081.chk"
 B after Tr=    -0.000000   -0.000000    0.000000
         Rot=    0.999983   -0.000679    0.000822   -0.005666 Ang=  -0.66 deg.
 ExpMin= 4.05D-02 ExpMax= 9.34D+04 ExpMxC= 3.17D+03 IAcc=3 IRadAn=         5 AccDes= 0.00D+00
 Harris functional with IExCor= 4639 and IRadAn=       5 diagonalized for initial guess.
 HarFok:  IExCor= 4639 AccDes= 0.00D+00 IRadAn=         5 IDoV= 1 UseB2=F ITyADJ=14
 ICtDFT=  3500011 ScaDFX=  1.000000  1.000000  1.000000  1.000000
 FoFCou: FMM=F IPFlag=           0 FMFlag=      100000 FMFlg1=           0
         NFxFlg=           0 DoJE=T BraDBF=F KetDBF=T FulRan=T
         wScrn=  0.000000 ICntrl=       500 IOpCl=  0 I1Cent=   200000004 NGrid=           0
         NMat0=    1 NMatS0=      1 NMatT0=    0 NMatD0=    1 NMtDS0=    0 NMtDT0=    0
 Petite list used in FoFCou.
 Requested convergence on RMS density matrix=1.00D-08 within 128 cycles.
 Requested convergence on MAX density matrix=1.00D-06.
 Requested convergence on             energy=1.00D-06.
 No special actions if energy rises.
 SCF Done:  E(RwB97XD) =  -1618.49441215     A.U. after   16 cycles
            NFock= 16  Conv=0.47D-08     -V/T= 2.0022
 Calling FoFJK, ICntrl=      2127 FMM=F ISym2X=0 I1Cent= 0 IOpClX= 0 NMat=1 NMatS=1 NMatT=0.
 ***** Axes restored to original set *****
 -------------------------------------------------------------------
 Center     Atomic                   Forces (Hartrees/Bohr)
 Number     Number              X              Y              Z
 -------------------------------------------------------------------
      1        6           0.000556399   -0.021597343    0.004976429
      2        6           0.010087255   -0.012068411    0.002189148
      3        6          -0.025132205    0.002126786    0.003838906
      4        6           0.002123624    0.003575629    0.000634662
      5        6           0.001617745    0.020143774   -0.005901446
      6        1          -0.000386891    0.001798381   -0.000315249
      7       16           0.002710443    0.007822086   -0.001438347
      8        1           0.001949856   -0.002846707    0.000441025
      9        6           0.022220376   -0.009943061   -0.013399368
     10       16          -0.008236547    0.000681098   -0.006005213
     11        6          -0.001777925   -0.018193076    0.003673357
     12        6           0.001224645    0.008789687    0.017254528
     13        6          -0.010023666    0.016123531    0.010410138
     14        1          -0.002647891    0.001683562   -0.004223718
     15       16           0.008531501    0.002975223   -0.004928412
     16        6          -0.015042459    0.017246719    0.007530734
     17        6           0.010227016   -0.019182611   -0.000960556
     18        1           0.000398935   -0.001746601   -0.005114309
     19        1           0.001141306    0.003045889   -0.006146084
     20        1          -0.000681762   -0.000875749   -0.000145423
     21        1           0.002006586    0.000349676   -0.000125707
     22        1          -0.000866341    0.000091520   -0.002245095
 -------------------------------------------------------------------
 Cartesian Forces:  Max     0.025132205 RMS     0.008950727

 GradGradGradGradGradGradGradGradGradGradGradGradGradGradGradGradGradGrad
 Berny optimization.
 Using GEDIIS/GDIIS optimizer.
 FormGI is forming the generalized inverse of G from B-inverse, IUseBI=4.
 Internal  Forces:  Max     0.022415315 RMS     0.004615952
 Search for a local minimum.
 Step number   2 out of a maximum of  127
 All quantities printed in internal units (Hartrees-Bohrs-Radians)
 Mixed Optimization -- RFO/linear search
 Update second derivatives using D2CorX and points    1    2
 DE= -3.41D-02 DEPred=-3.36D-02 R= 1.01D+00
 TightC=F SS=  1.41D+00  RLast= 3.74D-01 DXNew= 5.0454D-01 1.1230D+00
 Trust test= 1.01D+00 RLast= 3.74D-01 DXMaxT set to 5.05D-01
 ITU=  1  0
 Use linear search instead of GDIIS.
     Eigenvalues ---    0.00935   0.00981   0.01048   0.01209   0.01240
     Eigenvalues ---    0.01271   0.01289   0.01374   0.01462   0.01475
     Eigenvalues ---    0.01500   0.01584   0.01592   0.01703   0.02018
     Eigenvalues ---    0.02301   0.07225   0.07373   0.15496   0.15738
     Eigenvalues ---    0.15855   0.15959   0.16000   0.16000   0.16000
     Eigenvalues ---    0.16016   0.18916   0.22464   0.22550   0.23463
     Eigenvalues ---    0.24286   0.24696   0.24966   0.24994   0.25151
     Eigenvalues ---    0.25916   0.26485   0.28334   0.30945   0.30979
     Eigenvalues ---    0.31431   0.33639   0.33808   0.34518   0.34566
     Eigenvalues ---    0.34936   0.35219   0.35631   0.35867   0.36006
     Eigenvalues ---    0.36077   0.36156   0.36201   0.36871   0.38194
     Eigenvalues ---    0.39011   0.39491   0.40519   0.430971000.00000
     Eigenvalues --- 1000.000001000.000001000.000001000.000001000.00000
     Eigenvalues --- 1000.000001000.000001000.000001000.000001000.00000
     Eigenvalues --- 1000.000001000.000001000.000001000.000001000.00000
     Eigenvalues --- 1000.000001000.000001000.000001000.000001000.00000
     Eigenvalues --- 1000.000001000.000001000.000001000.000001000.00000
     Eigenvalues --- 1000.000001000.000001000.000001000.000001000.00000
     Eigenvalues --- 1000.000001000.000001000.000001000.000001000.00000
     Eigenvalues --- 1000.000001000.000001000.000001000.000001000.00000
     Eigenvalues --- 1000.000001000.000001000.000001000.000001000.00000
     Eigenvalues --- 1000.000001000.000001000.000001000.000001000.00000
     Eigenvalues --- 1000.000001000.000001000.000001000.000001000.00000
     Eigenvalues --- 1000.000001000.00000
 RFO step:  Lambda=-7.36587641D-03 EMin= 9.34820642D-03
 Quartic linear search produced a step of  0.43417.
 Iteration  1 RMS(Cart)=  0.08854391 RMS(Int)=  0.00651113
 Iteration  2 RMS(Cart)=  0.00838275 RMS(Int)=  0.00231843
 Iteration  3 RMS(Cart)=  0.00003899 RMS(Int)=  0.00231818
 Iteration  4 RMS(Cart)=  0.00000004 RMS(Int)=  0.00231818
 Iteration  1 RMS(Cart)=  0.00003728 RMS(Int)=  0.00001591
 Iteration  2 RMS(Cart)=  0.00002042 RMS(Int)=  0.00001778
 Iteration  3 RMS(Cart)=  0.00001119 RMS(Int)=  0.00002009
 Iteration  4 RMS(Cart)=  0.00000613 RMS(Int)=  0.00002162
 Iteration  5 RMS(Cart)=  0.00000336 RMS(Int)=  0.00002252
 Iteration  6 RMS(Cart)=  0.00000184 RMS(Int)=  0.00002303
 Iteration  7 RMS(Cart)=  0.00000101 RMS(Int)=  0.00002332
 Iteration  8 RMS(Cart)=  0.00000055 RMS(Int)=  0.00002347
 Variable       Old X    -DE/DX   Delta X   Delta X   Delta X     New X
                                 (Linear)    (Quad)   (Total)
    R1        2.68593   0.00055  -0.01443   0.02132   0.00691   2.69284
    R2        2.61047  -0.01785  -0.04491  -0.00016  -0.04513   2.56534
    R3        2.04159   0.00142   0.00159   0.00319   0.00478   2.04637
    R4        2.63587  -0.01696  -0.05349   0.01163  -0.04178   2.59410
    R5        2.82916   0.00401   0.00813   0.00478   0.01292   2.84208
    R6        3.32879  -0.01013  -0.02909  -0.00759  -0.03665   3.29214
    R7        2.72943   0.00620  -0.00873   0.03510   0.02637   2.75580
    R8        2.06270   0.00002  -0.00073   0.00111   0.00037   2.06307
    R9        2.06423   0.00079   0.00279  -0.00086   0.00193   2.06617
   R10        2.06872  -0.00192  -0.00332  -0.00311  -0.00643   2.06229
   R11        3.24026  -0.00323  -0.02017   0.01548  -0.00476   3.23550
   R12        2.04028  -0.00018  -0.00019  -0.00042  -0.00061   2.03967
   R13        3.33995  -0.00650  -0.01846   0.00409  -0.01703   3.32292
   R14        2.63314  -0.02242  -0.05837   0.00099  -0.05907   2.57407
   R15        3.25911   0.00233  -0.00491   0.01544   0.01122   3.27034
   R16        2.64867  -0.01277  -0.03260  -0.01182  -0.03970   2.60897
   R17        2.68655   0.00192  -0.00302   0.00708   0.00569   2.69224
   R18        2.68316   0.00059  -0.01064   0.01322   0.00397   2.68713
   R19        3.26548   0.00230  -0.00334   0.01394   0.01047   3.27594
   R20        2.04239   0.00067   0.00173   0.00011   0.00185   2.04424
   R21        3.29620  -0.00586  -0.01686   0.00519  -0.01384   3.28236
   R22        2.61196  -0.02019  -0.05233   0.00358  -0.04951   2.56245
   R23        2.04086  -0.00023  -0.00089   0.00036  -0.00052   2.04034
   R24        2.04580  -0.00087  -0.00322   0.00115  -0.00207   2.04372
    A1        1.98513   0.00085   0.00648  -0.00722  -0.00077   1.98436
    A2        2.16185  -0.00167  -0.00497  -0.00378  -0.00874   2.15311
    A3        2.13621   0.00081  -0.00150   0.01099   0.00950   2.14571
    A4        1.96052  -0.00153  -0.00493  -0.00190  -0.00683   1.95369
    A5        2.13251   0.00232   0.01453  -0.00918   0.00520   2.13771
    A6        2.19015  -0.00079  -0.00960   0.01098   0.00124   2.19138
    A7        1.92300   0.00292   0.00808   0.00448   0.01266   1.93566
    A8        2.29265  -0.00268  -0.01140   0.00244  -0.00902   2.28363
    A9        2.06729  -0.00023   0.00329  -0.00680  -0.00356   2.06373
   A10        1.93105  -0.00157  -0.00627  -0.00081  -0.00705   1.92399
   A11        1.94275   0.00057   0.00376  -0.00293   0.00083   1.94358
   A12        1.94712   0.00173   0.00599   0.00367   0.00968   1.95680
   A13        1.87933   0.00067   0.00227   0.00214   0.00443   1.88375
   A14        1.87004   0.00033   0.00172   0.00164   0.00339   1.87343
   A15        1.89061  -0.00178  -0.00776  -0.00364  -0.01140   1.87922
   A16        1.94480  -0.00001  -0.00373   0.00526   0.00139   1.94619
   A17        2.20040   0.00354   0.01068   0.01160   0.02230   2.22271
   A18        2.13792  -0.00352  -0.00691  -0.01675  -0.02364   2.11428
   A19        1.61131  -0.00222  -0.00590  -0.00071  -0.00667   1.60464
   A20        2.11969  -0.00037  -0.00398   0.00305  -0.00086   2.11883
   A21        2.22929  -0.00257  -0.00467  -0.00795  -0.01256   2.21673
   A22        1.93390   0.00297   0.00882   0.00520   0.01371   1.94761
   A23        1.60743  -0.00220  -0.00519  -0.00856  -0.01160   1.59583
   A24        1.93684  -0.00279  -0.01042   0.00984  -0.00319   1.93364
   A25        2.27588   0.00446   0.01626   0.04726   0.05258   2.32846
   A26        1.98236   0.00087   0.00721  -0.00227   0.00409   1.98645
   A27        1.98619   0.00055   0.00842  -0.00573   0.00163   1.98782
   A28        1.93620  -0.00270  -0.01306   0.01515  -0.00072   1.93548
   A29        2.27764   0.00463   0.01740   0.04466   0.05110   2.32874
   A30        1.95993   0.00150  -0.00153  -0.00011  -0.00008   1.95984
   A31        2.15107  -0.00177  -0.00449   0.00580  -0.00240   2.14868
   A32        2.16582   0.00064   0.00840   0.00412   0.00882   2.17463
   A33        1.59791  -0.00169   0.00186  -0.01841  -0.01362   1.58430
   A34        1.96248   0.00270   0.00126   0.01699   0.01676   1.97924
   A35        2.12384  -0.00464  -0.00562  -0.01939  -0.02976   2.09409
   A36        2.18878   0.00252   0.00834   0.01743   0.02096   2.20974
   A37        1.94544   0.00084   0.00271  -0.01074  -0.00621   1.93922
   A38        2.17886  -0.00029   0.00547   0.00858   0.00733   2.18619
   A39        2.13862   0.00048  -0.00102   0.02524   0.01760   2.15622
    D1        0.00300  -0.00004  -0.00166   0.00801   0.00623   0.00923
    D2        3.14015  -0.00054  -0.00368  -0.01464  -0.01841   3.12174
    D3       -3.13788   0.00018   0.00071   0.00826   0.00885  -3.12902
    D4       -0.00073  -0.00031  -0.00130  -0.01438  -0.01579  -0.01651
    D5        0.00130   0.00034   0.00348   0.00066   0.00410   0.00540
    D6       -3.12868  -0.00009   0.00066  -0.01020  -0.00965  -3.13834
    D7       -3.14100   0.00012   0.00115   0.00041   0.00148  -3.13952
    D8        0.01221  -0.00031  -0.00167  -0.01046  -0.01227  -0.00007
    D9       -0.00575  -0.00027  -0.00081  -0.01270  -0.01348  -0.01923
   D10        3.11136  -0.00025  -0.00272  -0.00632  -0.00905   3.10231
   D11        3.14045   0.00023   0.00128   0.01090   0.01206  -3.13067
   D12       -0.02562   0.00026  -0.00063   0.01728   0.01649  -0.00913
   D13        0.03601  -0.00030  -0.00076  -0.01583  -0.01656   0.01946
   D14       -2.05292  -0.00048  -0.00196  -0.01606  -0.01799  -2.07090
   D15        2.11611   0.00020   0.00121  -0.01191  -0.01069   2.10542
   D16       -3.11063  -0.00087  -0.00305  -0.04160  -0.04467   3.12789
   D17        1.08363  -0.00105  -0.00425  -0.04183  -0.04610   1.03753
   D18       -1.03053  -0.00037  -0.00108  -0.03768  -0.03880  -1.06933
   D19        0.00554   0.00040   0.00238   0.01118   0.01351   0.01905
   D20       -3.11515   0.00042   0.00421   0.00561   0.00984  -3.10531
   D21        0.69795  -0.00042  -0.00000   0.00000   0.00000   0.69795
   D22       -2.47270   0.00080   0.00653   0.01455   0.02141  -2.45129
   D23       -2.46978  -0.00036  -0.00201   0.00695   0.00487  -2.46491
   D24        0.64276   0.00086   0.00452   0.02150   0.02627   0.66903
   D25       -0.00390  -0.00041  -0.00332  -0.00677  -0.00994  -0.01384
   D26        3.12657   0.00006  -0.00041   0.00386   0.00318   3.12974
   D27       -3.13947   0.00021   0.00257  -0.00558  -0.00316   3.14055
   D28        0.02670  -0.00074  -0.00270  -0.01769  -0.02117   0.00553
   D29        3.13718  -0.00036  -0.00328   0.00659   0.00381   3.14099
   D30       -0.12110   0.00308   0.01583   0.09638   0.11221  -0.00889
   D31       -0.03092   0.00071   0.00245   0.01987   0.02330  -0.00762
   D32        2.99398   0.00415   0.02157   0.10966   0.13170   3.12568
   D33       -0.01534   0.00065   0.00268   0.01065   0.01345  -0.00188
   D34       -2.68078  -0.00563  -0.02828  -0.12607  -0.15725  -2.83804
[...]
     21          1           0        1.491513    2.273580    1.394864
     22          1           0        2.333360    2.906732   -0.020912
 ---------------------------------------------------------------------
 Rotational constants (GHZ):           1.2726933           0.2802478           0.2399264

 **********************************************************************

            Population analysis using the SCF Density.

 **********************************************************************

 Orbital symmetries:
       Occupied  (A) (A) (A) (A) (A) (A) (A) (A) (A) (A) (A) (A)
                 (A) (A) (A) (A) (A) (A) (A) (A) (A) (A) (A) (A)
                 (A) (A) (A) (A) (A) (A) (A) (A) (A) (A) (A) (A)
                 (A) (A) (A) (A) (A) (A) (A) (A) (A) (A) (A) (A)
                 (A) (A) (A) (A) (A) (A) (A) (A) (A) (A) (A) (A)
                 (A)
       Virtual   (A) (A) (A) (A) (A) (A) (A) (A) (A) (A) (A) (A)
                 (A) (A) (A) (A) (A) (A) (A) (A) (A) (A) (A) (A)
                 (A) (A) (A) (A) (A) (A) (A) (A) (A) (A) (A) (A)
                 (A) (A) (A) (A) (A) (A) (A) (A) (A) (A) (A) (A)
                 (A) (A) (A) (A) (A) (A) (A) (A) (A) (A) (A) (A)
                 (A) (A) (A) (A) (A) (A) (A) (A) (A) (A) (A) (A)
                 (A) (A) (A) (A) (A) (A) (A) (A) (A) (A) (A) (A)
                 (A) (A) (A) (A) (A) (A) (A) (A) (A) (A) (A) (A)
                 (A) (A) (A) (A) (A) (A) (A) (A) (A) (A) (A) (A)
                 (A) (A) (A) (A) (A) (A) (A) (A) (A) (A) (A) (A)
                 (A) (A) (A) (A) (A) (A) (A) (A) (A) (A) (A) (A)
                 (A) (A) (A) (A) (A) (A) (A) (A) (A) (A) (A) (A)
                 (A) (A) (A) (A) (A) (A) (A) (A) (A) (A) (A) (A)
                 (A) (A) (A) (A) (A) (A) (A) (A) (A) (A) (A) (A)
                 (A) (A) (A) (A) (A) (A) (A) (A) (A) (A) (A) (A)
                 (A) (A) (A) (A) (A) (A) (A) (A) (A) (A) (A) (A)
                 (A) (A) (A) (A) (A) (A) (A) (A) (A) (A) (A) (A)
                 (A) (A) (A) (A) (A) (A) (A) (A) (A) (A) (A) (A)
                 (A) (A) (A) (A) (A) (A) (A) (A) (A) (A) (A) (A)
                 (A) (A) (A) (A) (A) (A) (A) (A) (A) (A) (A) (A)
                 (A) (A) (A) (A) (A) (A) (A) (A) (A) (A) (A) (A)
                 (A) (A) (A) (A) (A) (A) (A) (A) (A) (A) (A) (A)
                 (A) (A) (A) (A) (A) (A) (A) (A) (A) (A) (A) (A)
                 (A) (A) (A) (A) (A) (A) (A) (A) (A) (A) (A) (A)
                 (A) (A) (A) (A) (A) (A) (A) (A) (A) (A) (A) (A)
                 (A) (A) (A) (A) (A) (A) (A) (A) (A) (A) (A) (A)
                 (A) (A) (A) (A) (A)
 The electronic state is 1-A.
 Alpha  occ. eigenvalues --  -89.05090 -89.05084 -89.04728 -10.33816 -10.32772
 Alpha  occ. eigenvalues --  -10.32433 -10.32370 -10.32343 -10.31718 -10.30555
 Alpha  occ. eigenvalues --  -10.30475 -10.30434 -10.29246 -10.28598  -8.09138
 Alpha  occ. eigenvalues --   -8.09129  -8.08815  -6.03994  -6.03978  -6.03645
 Alpha  occ. eigenvalues --   -6.03621  -6.03605  -6.03260  -6.03191  -6.03182
 Alpha  occ. eigenvalues --   -6.02920  -1.02258  -0.99710  -0.95315  -0.87660
 Alpha  occ. eigenvalues --   -0.87173  -0.85592  -0.81086  -0.80195  -0.77665
 Alpha  occ. eigenvalues --   -0.70621  -0.66925  -0.66047  -0.62661  -0.61126
 Alpha  occ. eigenvalues --   -0.58875  -0.58509  -0.52849  -0.52382  -0.52243
 Alpha  occ. eigenvalues --   -0.50632  -0.50082  -0.48044  -0.47510  -0.47092
 Alpha  occ. eigenvalues --   -0.46366  -0.45491  -0.44774  -0.42995  -0.42434
 Alpha  occ. eigenvalues --   -0.41864  -0.37055  -0.33708  -0.32709  -0.30839
 Alpha  occ. eigenvalues --   -0.27923
 Alpha virt. eigenvalues --    0.00924   0.05257   0.05545   0.05962   0.06497
 Alpha virt. eigenvalues --    0.06690   0.07214   0.07439   0.08234   0.08715
 Alpha virt. eigenvalues --    0.09181   0.09356   0.09707   0.09876   0.10765
 Alpha virt. eigenvalues --    0.10911   0.11107   0.11624   0.12230   0.12699
 Alpha virt. eigenvalues --    0.12971   0.13099   0.13806   0.14016   0.14338
 Alpha virt. eigenvalues --    0.15030   0.15630   0.15864   0.16622   0.17351
 Alpha virt. eigenvalues --    0.17478   0.17764   0.18812   0.18952   0.19343
 Alpha virt. eigenvalues --    0.19843   0.20178   0.20567   0.20981   0.21637
 Alpha virt. eigenvalues --    0.21896   0.22507   0.22646   0.23170   0.23373
 Alpha virt. eigenvalues --    0.23860   0.24336   0.24609   0.24780   0.24991
 Alpha virt. eigenvalues --    0.25137   0.26094   0.26348   0.26863   0.26985
 Alpha virt. eigenvalues --    0.27453   0.27681   0.28310   0.28384   0.29082
 Alpha virt. eigenvalues --    0.29474   0.29812   0.30192   0.31086   0.31330
 Alpha virt. eigenvalues --    0.31468   0.32245   0.32922   0.33366   0.33986
 Alpha virt. eigenvalues --    0.35606   0.35830   0.36669   0.37153   0.37431
 Alpha virt. eigenvalues --    0.38174   0.40293   0.40757   0.41337   0.41652
 Alpha virt. eigenvalues --    0.42423   0.43190   0.43843   0.45356   0.46121
 Alpha virt. eigenvalues --    0.47195   0.49914   0.50324   0.51216   0.52406
 Alpha virt. eigenvalues --    0.52768   0.54238   0.54831   0.57214   0.58007
 Alpha virt. eigenvalues --    0.58773   0.60180   0.61779   0.63231   0.63709
 Alpha virt. eigenvalues --    0.64376   0.64483   0.66269   0.66564   0.67299
 Alpha virt. eigenvalues --    0.67577   0.69132   0.70400   0.70692   0.71228
 Alpha virt. eigenvalues --    0.72339   0.73348   0.74208   0.74532   0.75714
 Alpha virt. eigenvalues --    0.77297   0.77530   0.78657   0.79285   0.80174
 Alpha virt. eigenvalues --    0.81037   0.81428   0.82285   0.83169   0.84011
 Alpha virt. eigenvalues --    0.84653   0.85341   0.85746   0.86684   0.87328
 Alpha virt. eigenvalues --    0.88024   0.89590   0.90679   0.90835   0.91373
 Alpha virt. eigenvalues --    0.91818   0.92401   0.93227   0.94057   0.95689
 Alpha virt. eigenvalues --    0.96371   0.98066   0.98089   0.98889   1.00507
 Alpha virt. eigenvalues --    1.02503   1.02904   1.04199   1.05355   1.06001
 Alpha virt. eigenvalues --    1.06456   1.06812   1.10185   1.11512   1.12040
 Alpha virt. eigenvalues --    1.12560   1.13924   1.15011   1.15619   1.16892
 Alpha virt. eigenvalues --    1.17297   1.19981   1.20601   1.22695   1.24825
 Alpha virt. eigenvalues --    1.27110   1.29565   1.31222   1.35728   1.41892
 Alpha virt. eigenvalues --    1.43045   1.44081   1.44787   1.46570   1.47354
 Alpha virt. eigenvalues --    1.51815   1.56248   1.56707   1.60140   1.62836
 Alpha virt. eigenvalues --    1.63556   1.64754   1.65493   1.66739   1.67582
 Alpha virt. eigenvalues --    1.68537   1.69016   1.69499   1.71109   1.74162
 Alpha virt. eigenvalues --    1.74767   1.76568   1.77915   1.80232   1.80924
 Alpha virt. eigenvalues --    1.82058   1.83591   1.84057   1.85079   1.85848
 Alpha virt. eigenvalues --    1.86438   1.89692   1.90568   1.92093   1.93661
 Alpha virt. eigenvalues --    1.94715   1.96382   1.98293   1.99547   2.00485
 Alpha virt. eigenvalues --    2.02194   2.05311   2.05909   2.07551   2.09372
 Alpha virt. eigenvalues --    2.10995   2.11535   2.13204   2.15046   2.16330
 Alpha virt. eigenvalues --    2.17639   2.18334   2.19645   2.21062   2.21700
 Alpha virt. eigenvalues --    2.22401   2.24514   2.25003   2.27833   2.27985
 Alpha virt. eigenvalues --    2.30533   2.33850   2.40277   2.42569   2.46808
 Alpha virt. eigenvalues --    2.50412   2.52020   2.53352   2.54832   2.58285
 Alpha virt. eigenvalues --    2.62261   2.63403   2.65466   2.69696   2.70822
 Alpha virt. eigenvalues --    2.72513   2.73878   2.76463   2.79749   2.80828
 Alpha virt. eigenvalues --    2.81605   2.82391   2.83717   2.83897   2.84691
 Alpha virt. eigenvalues --    2.86923   2.89548   2.94092   2.94352   2.99372
 Alpha virt. eigenvalues --    3.00261   3.02498   3.05522   3.05985   3.13054
 Alpha virt. eigenvalues --    3.13942   3.16651   3.17316   3.23368   3.25559
 Alpha virt. eigenvalues --    3.29307   3.32516   3.40302   3.40969   3.44399
 Alpha virt. eigenvalues --    3.46145   3.53382   3.55084   3.58250   3.63820
 Alpha virt. eigenvalues --    3.67826   3.80399   3.90484   3.92722   4.04791
 Alpha virt. eigenvalues --    4.07893   4.16546   4.23464   4.43895   4.46860
 Alpha virt. eigenvalues --    4.64582   8.10711   8.11988   8.12820  17.42153
 Alpha virt. eigenvalues --   17.43400  17.44941  17.59919  17.61804  17.65590
 Alpha virt. eigenvalues --   17.66411  17.69134  17.71434  23.60621  23.77133
 Alpha virt. eigenvalues --   23.90868  23.94453  23.98269  24.09066  24.17589
 Alpha virt. eigenvalues --   24.23037  24.27414  24.29957  24.30359 189.35865
 Alpha virt. eigenvalues --  189.37310 189.38514
          Condensed to atoms (all electrons):
               1          2          3          4          5          6
     1  C   11.062389  -4.013861   1.028268  -1.304212  -0.477171   0.360062
     2  C   -4.013861  16.640229  -4.114786  -0.559704   1.488905  -0.036195
     3  C    1.028268  -4.114786  10.725113  -0.338100  -0.842170   0.022984
     4  C   -1.304212  -0.559704  -0.338100   7.830549  -0.177976   0.005629
     5  C   -0.477171   1.488905  -0.842170  -0.177976   6.010120  -0.004995
     6  H    0.360062  -0.036195   0.022984   0.005629  -0.004995   0.498726
     7  S   -0.996021  -0.213511  -0.838073   0.716401   0.070346   0.008470
     8  H    0.043443  -0.039776   0.017317  -0.000031   0.380448  -0.004112
     9  C    0.153962  -1.317464   1.013907  -0.326176  -0.134620  -0.001980
    10  S   -0.189143   1.577404   0.005514   0.011120   0.131246   0.000664
    11  C    0.184665  -0.822602  -0.307270  -0.073967  -0.080552  -0.000274
    12  C   -0.687148   1.834588   0.438507   0.442151   0.191057   0.000087
    13  C    0.839196  -3.829374  -1.318830  -0.336533  -0.431371  -0.000514
    14  H   -0.010814   0.031294   0.038159   0.004082   0.006424   0.000002
    15  S   -0.007913  -0.038878  -0.002926   0.006321   0.000428  -0.000002
    16  C   -0.007287   0.061098   0.015357   0.006180   0.002562   0.000001
    17  C    0.070219  -0.461572  -0.017364  -0.115340  -0.022083  -0.000026
    18  H    0.000001  -0.000038  -0.000248  -0.000004  -0.000001   0.000000
    19  H   -0.000002   0.000224  -0.000583   0.000051   0.000004   0.000000
    20  H    0.065040  -0.049572  -0.028965   0.375170   0.019031   0.000817
    21  H   -0.036352  -0.062582   0.057529   0.403806  -0.003879   0.000079
    22  H   -0.001676   0.028266  -0.052383   0.385581   0.005170   0.000179
               7          8          9         10         11         12
     1  C   -0.996021   0.043443   0.153962  -0.189143   0.184665  -0.687148
     2  C   -0.213511  -0.039776  -1.317464   1.577404  -0.822602   1.834588
     3  C   -0.838073   0.017317   1.013907   0.005514  -0.307270   0.438507
     4  C    0.716401  -0.000031  -0.326176   0.011120  -0.073967   0.442151
     5  C    0.070346   0.380448  -0.134620   0.131246  -0.080552   0.191057
     6  H    0.008470  -0.004112  -0.001980   0.000664  -0.000274   0.000087
     7  S   17.592753  -0.026104  -0.144609  -0.110807   0.055222   0.145799
     8  H   -0.026104   0.448569  -0.005060  -0.000269  -0.000045  -0.000481
     9  C   -0.144609  -0.005060  10.482950   0.486359  -0.880288  -1.511617
    10  S   -0.110807  -0.000269   0.486359  18.217344  -0.075088   1.581072
    11  C    0.055222  -0.000045  -0.880288  -0.075088  18.856285  -4.380523
    12  C    0.145799  -0.000481  -1.511617   1.581072  -4.380523  20.408002
    13  C    0.128127  -0.000172  -1.241591  -3.737115  -0.823600 -10.599334
    14  H   -0.005055  -0.000003   0.001462   0.012600  -0.062814   0.178669
    15  S    0.002136   0.000002  -0.740285   0.113421   0.454687  -0.195784
    16  C   -0.003062  -0.000001  -0.009493   0.248277   1.692765  -0.234862
    17  C    0.020586  -0.000000  -0.333184  -1.688234  -8.104997  -0.844136
    18  H    0.000011   0.000000   0.002686  -0.001244  -0.017253   0.029550
    19  H   -0.000011   0.000000  -0.005120   0.014943   0.031966  -0.051575
    20  H   -0.003256  -0.000016  -0.013741   0.006566   0.001241  -0.000910
    21  H    0.004065   0.000008   0.020183   0.017317  -0.008362  -0.012029
    22  H   -0.001608  -0.000004   0.005094  -0.012607  -0.005814   0.007922
              13         14         15         16         17         18
     1  C    0.839196  -0.010814  -0.007913  -0.007287   0.070219   0.000001
     2  C   -3.829374   0.031294  -0.038878   0.061098  -0.461572  -0.000038
     3  C   -1.318830   0.038159  -0.002926   0.015357  -0.017364  -0.000248
     4  C   -0.336533   0.004082   0.006321   0.006180  -0.115340  -0.000004
     5  C   -0.431371   0.006424   0.000428   0.002562  -0.022083  -0.000001
     6  H   -0.000514   0.000002  -0.000002   0.000001  -0.000026   0.000000
     7  S    0.128127  -0.005055   0.002136  -0.003062   0.020586   0.000011
     8  H   -0.000172  -0.000003   0.000002  -0.000001  -0.000000   0.000000
     9  C   -1.241591   0.001462  -0.740285  -0.009493  -0.333184   0.002686
    10  S   -3.737115   0.012600   0.113421   0.248277  -1.688234  -0.001244
    11  C   -0.823600  -0.062814   0.454687   1.692765  -8.104997  -0.017253
    12  C  -10.599334   0.178669  -0.195784  -0.234862  -0.844136   0.029550
    13  C   23.848651   0.152227  -0.761395  -1.020588   4.305192   0.010982
    14  H    0.152227   0.474135   0.009153   0.002689  -0.004960  -0.000004
    15  S   -0.761395   0.009153  17.567962   0.503586  -0.432385  -0.043520
    16  C   -1.020588   0.002689   0.503586   5.872440  -1.312221   0.371394
    17  C    4.305192  -0.004960  -0.432385  -1.312221  14.522342   0.015317
    18  H    0.010982  -0.000004  -0.043520   0.371394   0.015317   0.442739
    19  H   -0.003976   0.000003   0.007948   0.030507   0.335791  -0.003661
    20  H   -0.006524  -0.000004  -0.000035   0.000028   0.000064   0.000000
    21  H   -0.020215  -0.000018  -0.000316  -0.000473   0.003062  -0.000000
    22  H    0.005654   0.000008   0.000122   0.000068  -0.001553  -0.000000
              19         20         21         22
     1  C   -0.000002   0.065040  -0.036352  -0.001676
     2  C    0.000224  -0.049572  -0.062582   0.028266
     3  C   -0.000583  -0.028965   0.057529  -0.052383
     4  C    0.000051   0.375170   0.403806   0.385581
     5  C    0.000004   0.019031  -0.003879   0.005170
     6  H    0.000000   0.000817   0.000079   0.000179
     7  S   -0.000011  -0.003256   0.004065  -0.001608
     8  H    0.000000  -0.000016   0.000008  -0.000004
     9  C   -0.005120  -0.013741   0.020183   0.005094
    10  S    0.014943   0.006566   0.017317  -0.012607
    11  C    0.031966   0.001241  -0.008362  -0.005814
    12  C   -0.051575  -0.000910  -0.012029   0.007922
    13  C   -0.003976  -0.006524  -0.020215   0.005654
    14  H    0.000003  -0.000004  -0.000018   0.000008
    15  S    0.007948  -0.000035  -0.000316   0.000122
    16  C    0.030507   0.000028  -0.000473   0.000068
    17  C    0.335791   0.000064   0.003062  -0.001553
    18  H   -0.003661   0.000000  -0.000000  -0.000000
    19  H    0.481491   0.000000  -0.000002   0.000000
    20  H    0.000000   0.518720  -0.020599  -0.023340
    21  H   -0.000002  -0.020599   0.504678  -0.027993
    22  H    0.000000  -0.023340  -0.027993   0.491821
 Mulliken charges:
               1
     1  C   -0.075646
     2  C   -0.102089
     3  C    0.499044
     4  C   -0.954999
     5  C   -0.130924
     6  H    0.150396
     7  S   -0.401797
     8  H    0.186289
     9  C    0.498625
    10  S   -0.609338
    11  C    0.366620
    12  C   -0.739006
    13  C    0.841103
    14  H    0.172765
    15  S   -0.442328
    16  C   -0.218963
    17  C    0.065484
    18  H    0.193293
    19  H    0.162002
    20  H    0.160285
    21  H    0.182094
    22  H    0.197090
 Sum of Mulliken charges =  -0.00000
 Mulliken charges with hydrogens summed into heavy atoms:
               1
     1  C    0.074751
     2  C   -0.102089
     3  C    0.499044
     4  C   -0.415529
     5  C    0.055365
     7  S   -0.401797
     9  C    0.498625
    10  S   -0.609338
    11  C    0.366620
    12  C   -0.739006
    13  C    1.013868
    15  S   -0.442328
    16  C   -0.025671
    17  C    0.227486
 Electronic spatial extent (au):  <R**2>=           4323.9303
 Charge=              0.0000 electrons
 Dipole moment (field-independent basis, Debye):
    X=              0.3702    Y=              0.8936    Z=              0.3255  Tot=              1.0205
 Quadrupole moment (field-independent basis, Debye-Ang):
   XX=            -86.3482   YY=            -97.5415   ZZ=           -107.5984
   XY=             -2.0850   XZ=              2.0139   YZ=             -0.8177
 Traceless Quadrupole moment (field-independent basis, Debye-Ang):
   XX=             10.8145   YY=             -0.3788   ZZ=            -10.4357
   XY=             -2.0850   XZ=              2.0139   YZ=             -0.8177
 Octapole moment (field-independent basis, Debye-Ang**2):
  XXX=             -2.7997  YYY=              2.7950  ZZZ=              0.9389  XYY=              6.7726
  XXY=             10.1483  XXZ=             -3.6376  XZZ=              0.6986  YZZ=              1.9306
  YYZ=             -0.7275  XYZ=             12.7450
 Hexadecapole moment (field-independent basis, Debye-Ang**3):
 XXXX=          -4106.2088 YYYY=          -1024.6048 ZZZZ=           -267.7888 XXXY=            -81.5208
 XXXZ=             21.3691 YYYX=            -19.7538 YYYZ=            -12.0444 ZZZX=             -1.3871
 ZZZY=              1.8688 XXYY=           -904.0768 XXZZ=           -896.6463 YYZZ=           -215.6449
 XXYZ=              9.5028 YYXZ=              6.5042 ZZXY=              4.9478
 N-N= 1.126666299400D+03 E-N=-6.077784005146D+03  KE= 1.615205791151D+03
 Unable to Open any file for archive entry.
 1\1\GINC-CX3-6-21\FOpt\RwB97XD\6-311+G(d,p)\C11H8S3\NS5018\26-Oct-2021
 \0\\# opt=modredundant wb97xd/6-311+g(d,p)\\pBTTT_40.pdb\\0,1\C,-4.225
 7485383,-1.3629217996,-0.2936270802\C,-2.8733922999,-1.0235374955,-0.6
 006025664\C,-2.0474811005,-2.1196924294,-0.5404339373\C,-2.4567294264,
 0.3717465918,-0.9703964487\C,-4.4068648449,-2.6795949395,-0.0075649809
 \H,-5.0321025655,-0.6402357292,-0.3024543129\S,-2.9289345567,-3.548955
 4406,-0.0851538759\H,-5.325616932,-3.1880425734,0.2429326499\C,-0.6101
 899432,-2.2282016705,-0.76744222\S,0.4936630669,-0.9919818539,-0.18813
 05057\C,1.8559682375,-1.8674889914,-0.7962078119\C,1.4555355508,-3.046
 4155881,-1.3933885563\C,0.0503062456,-3.2546471024,-1.3831556367\H,-0.
 4568671526,-4.1044650642,-1.8191102593\S,2.8180950189,-3.9171970954,-2
 .0122755744\C,3.8978459508,-2.6757251024,-1.454867828\C,3.262991076,-1
 .6480761129,-0.8313039889\H,4.9587218679,-2.7853549026,-1.6232313755\H
 ,3.7724141072,-0.7886011733,-0.4190529699\H,-3.2961650455,0.9097378157
 ,-1.4159087583\H,-1.6341536142,0.371125042,-1.6876292668\H,-2.13129510
 19,0.9375256145,-0.0919946959\\Version=ES64L-G16RevC.01\State=1-A\HF=-
 1618.5087985\RMSD=8.142e-09\RMSF=4.355e-04\Dipole=-0.1059062,0.3816754
 ,-0.0657422\Quadrupole=8.4099583,-0.7540878,-7.6558705,0.3180022,-0.96
 16938,1.2231667\PG=C01 [X(C11H8S3)]\\@
 The archive entry for this job was punched.


 WE HAVE SEEN THAT MAN ON THE AVERAGE DOES NOT LIVE ABOVE
 TWO-AND-TWENTY YEARS.  DURING THESE TWO AND TWENTY
 YEARS HE IS LIABLE TO TWO AND TWENTY THOUSAND EVILS,
 MANY OF WHICH ARE INCURABLE.  YET EVEN IN THIS DREADFUL STATE
 MEN STILL STRUT AND POSE ON THE STAGE OF LIFE.
 THEY MAKE LOVE AT THE RISK OF DESTRUCTION,
 INTRIGUE, CARRY ON WAR, AND FORM PROJECTS, JUST AS IF THEY
 WERE TO LIVE IN LUXURY AND HAPPINESS FOR A THOUSAND
 AGES.

                                              -- VOLTAIRE
 Job cpu time:       0 days  6 hours  5 minutes 33.0 seconds.
 Elapsed time:       0 days  0 hours 47 minutes 24.7 seconds.
 File lengths (MBytes):  RWF=     91 Int=      0 D2E=      0 Chk=     14 Scr=      1
 Normal termination of Gaussian 16 at Tue Oct 26 02:12:02 2021.
