 Entering Gaussian System, Link 0=g16
 Input=pBTTT_50.gjf
 Output=pBTTT_50.log
 Initial command:
 /apps/gaussian/g16-c01-avx/g16/l1.exe "/tmp/pbs.4762230[225].pbs/Gau-1233539.inp" -scrdir="/tmp/pbs.4762230[225].pbs/"
 Entering Link 1 = /apps/gaussian/g16-c01-avx/g16/l1.exe PID=   1233540.
  
 Copyright (c) 1988-2019, Gaussian, Inc.  All Rights Reserved.
  
 This is part of the Gaussian(R) 16 program.  It is based on
 the Gaussian(R) 09 system (copyright 2009, Gaussian, Inc.),
 the Gaussian(R) 03 system (copyright 2003, Gaussian, Inc.),
 the Gaussian(R) 98 system (copyright 1998, Gaussian, Inc.),
 the Gaussian(R) 94 system (copyright 1995, Gaussian, Inc.),
 the Gaussian 92(TM) system (copyright 1992, Gaussian, Inc.),
 the Gaussian 90(TM) system (copyright 1990, Gaussian, Inc.),
 the Gaussian 88(TM) system (copyright 1988, Gaussian, Inc.),
 the Gaussian 86(TM) system (copyright 1986, Carnegie Mellon
 University), and the Gaussian 82(TM) system (copyright 1983,
 Carnegie Mellon University). Gaussian is a federally registered
 trademark of Gaussian, Inc.
  
 This software contains proprietary and confidential information,
 including trade secrets, belonging to Gaussian, Inc.
  
 This software is provided under written license and may be
 used, copied, transmitted, or stored only in accord with that
 written license.
  
 The following legend is applicable only to US Government
 contracts under FAR:
  
                    RESTRICTED RIGHTS LEGEND
  
 Use, reproduction and disclosure by the US Government is
 subject to restrictions as set forth in subparagraphs (a)
 and (c) of the Commercial Computer Software - Restricted
 Rights clause in FAR 52.227-19.
  
 Gaussian, Inc.
 340 Quinnipiac St., Bldg. 40, Wallingford CT 06492
  
  
 ---------------------------------------------------------------
 Warning -- This program may not be used in any manner that
 competes with the business of Gaussian, Inc. or will provide
 assistance to any competitor of Gaussian, Inc.  The licensee
 of this program is prohibited from giving any competitor of
 Gaussian, Inc. access to this program.  By using this program,
 the user acknowledges that Gaussian, Inc. is engaged in the
 business of creating and licensing software in the field of
 computational chemistry and represents and warrants to the
 licensee that it is not a competitor of Gaussian, Inc. and that
 it will not use this program in any manner prohibited above.
 ---------------------------------------------------------------
  

 Cite this work as:
 Gaussian 16, Revision C.01,
 M. J. Frisch, G. W. Trucks, H. B. Schlegel, G. E. Scuseria, 
 M. A. Robb, J. R. Cheeseman, G. Scalmani, V. Barone, 
 G. A. Petersson, H. Nakatsuji, X. Li, M. Caricato, A. V. Marenich, 
 J. Bloino, B. G. Janesko, R. Gomperts, B. Mennucci, H. P. Hratchian, 
 J. V. Ortiz, A. F. Izmaylov, J. L. Sonnenberg, D. Williams-Young, 
 F. Ding, F. Lipparini, F. Egidi, J. Goings, B. Peng, A. Petrone, 
 T. Henderson, D. Ranasinghe, V. G. Zakrzewski, J. Gao, N. Rega, 
 G. Zheng, W. Liang, M. Hada, M. Ehara, K. Toyota, R. Fukuda, 
 J. Hasegawa, M. Ishida, T. Nakajima, Y. Honda, O. Kitao, H. Nakai, 
 T. Vreven, K. Throssell, J. A. Montgomery, Jr., J. E. Peralta, 
 F. Ogliaro, M. J. Bearpark, J. J. Heyd, E. N. Brothers, K. N. Kudin, 
 V. N. Staroverov, T. A. Keith, R. Kobayashi, J. Normand, 
 K. Raghavachari, A. P. Rendell, J. C. Burant, S. S. Iyengar, 
 J. Tomasi, M. Cossi, J. M. Millam, M. Klene, C. Adamo, R. Cammi, 
 J. W. Ochterski, R. L. Martin, K. Morokuma, O. Farkas, 
 J. B. Foresman, and D. J. Fox, Gaussian, Inc., Wallingford CT, 2019.
 
 ******************************************
 Gaussian 16:  ES64L-G16RevC.01  3-Jul-2019
                26-Oct-2021 
 ******************************************
 %mem=100GB
 %nprocshared=8
 Will use up to    8 processors via shared memory.
 --------------------------------------
 # opt=modredundant wb97xd/6-311+g(d,p)
 --------------------------------------
 1/18=120,19=15,26=3,38=1/1,3;
 2/9=110,12=2,17=6,18=5,40=1/2;
 3/5=4,6=6,7=111,11=2,25=1,30=1,71=1,74=-58/1,2,3;
 4//1;
 5/5=2,38=5/2;
 6/7=2,8=2,9=2,10=2,28=1/1;
 7//1,2,3,16;
 1/18=20,19=15,26=3/3(2);
 2/9=110/2;
 99//99;
 2/9=110/2;
 3/5=4,6=6,7=111,11=2,25=1,30=1,71=1,74=-58/1,2,3;
 4/5=5,16=3,69=1/1;
 5/5=2,38=5/2;
 7//1,2,3,16;
 1/18=20,19=15,26=3/3(-5);
 2/9=110/2;
 6/7=2,8=2,9=2,10=2,19=2,28=1/1;
 99/9=1/99;
 ------------
 pBTTT_50.pdb
 ------------
 Symbolic Z-matrix:
 Charge =  0 Multiplicity = 1
 C                    -4.25     -1.36     -0.21 
 C                    -2.93     -0.95     -0.61 
 C                    -1.97     -2.05     -0.62 
 C                    -2.66      0.47     -0.96 
 C                    -4.33     -2.76      0.1 
 H                    -5.1      -0.7      -0.14 
 S                    -2.8      -3.56     -0.11 
 H                    -5.23     -3.27      0.41 
 C                    -0.56     -2.13     -0.97 
 S                     0.648    -0.988    -0.306 
 C                     1.952    -1.739    -1.16 
 C                     1.518    -2.873    -1.936 
 C                     0.11     -3.113    -1.824 
 H                    -0.365    -4.006    -2.198 
 S                     2.784    -4.027    -2.196 
 C                     3.93     -3.032    -1.296 
 C                     3.323    -1.828    -0.778 
 H                     4.911    -3.39     -1.016 
 H                     3.773    -1.238     0.015 
 H                    -3.55      1.09     -0.83 
 H                    -2.35      0.56     -2. 
 H                    -1.88      0.89     -0.31 
 
 The following ModRedundant input section has been read:
 D       2       3       9      10 F                                           
 

 GradGradGradGradGradGradGradGradGradGradGradGradGradGradGradGradGradGrad
 Berny optimization.
 Initialization pass.
                           ----------------------------
                           !    Initial Parameters    !
                           ! (Angstroms and Degrees)  !
 --------------------------                            --------------------------
 ! Name  Definition              Value          Derivative Info.                !
 --------------------------------------------------------------------------------
 ! R1    R(1,2)                  1.4389         estimate D2E/DX2                !
 ! R2    R(1,5)                  1.4361         estimate D2E/DX2                !
 ! R3    R(1,6)                  1.0784         estimate D2E/DX2                !
 ! R4    R(2,3)                  1.46           estimate D2E/DX2                !
 ! R5    R(2,4)                  1.4872         estimate D2E/DX2                !
 ! R6    R(3,7)                  1.797          estimate D2E/DX2                !
 ! R7    R(3,9)                  1.455          estimate D2E/DX2                !
 ! R8    R(4,20)                 1.0924         estimate D2E/DX2                !
 ! R9    R(4,21)                 1.0889         estimate D2E/DX2                !
 ! R10   R(4,22)                 1.0988         estimate D2E/DX2                !
 ! R11   R(5,7)                  1.7393         estimate D2E/DX2                !
 ! R12   R(5,8)                  1.0799         estimate D2E/DX2                !
 ! R13   R(9,10)                 1.7901         estimate D2E/DX2                !
 ! R14   R(9,13)                 1.4644         estimate D2E/DX2                !
 ! R15   R(10,11)                1.7302         estimate D2E/DX2                !
 ! R16   R(11,12)                1.441          estimate D2E/DX2                !
 ! R17   R(11,17)                1.426          estimate D2E/DX2                !
 ! R18   R(12,13)                1.4327         estimate D2E/DX2                !
 ! R19   R(12,15)                1.7326         estimate D2E/DX2                !
 ! R20   R(13,14)                1.0784         estimate D2E/DX2                !
 ! R21   R(15,16)                1.7645         estimate D2E/DX2                !
 ! R22   R(16,17)                1.4444         estimate D2E/DX2                !
 ! R23   R(16,18)                1.0812         estimate D2E/DX2                !
 ! R24   R(17,19)                1.086          estimate D2E/DX2                !
 ! A1    A(2,1,5)              112.8843         estimate D2E/DX2                !
 ! A2    A(2,1,6)              124.5209         estimate D2E/DX2                !
 ! A3    A(5,1,6)              122.5942         estimate D2E/DX2                !
 ! A4    A(1,2,3)              112.9799         estimate D2E/DX2                !
 ! A5    A(1,2,4)              120.2665         estimate D2E/DX2                !
 ! A6    A(3,2,4)              126.7536         estimate D2E/DX2                !
 ! A7    A(2,3,7)              109.1138         estimate D2E/DX2                !
 ! A8    A(2,3,9)              132.8639         estimate D2E/DX2                !
 ! A9    A(7,3,9)              118.0132         estimate D2E/DX2                !
 ! A10   A(2,4,20)             111.468          estimate D2E/DX2                !
 ! A11   A(2,4,21)             110.8154         estimate D2E/DX2                !
 ! A12   A(2,4,22)             110.7706         estimate D2E/DX2                !
 ! A13   A(20,4,21)            107.3779         estimate D2E/DX2                !
 ! A14   A(20,4,22)            106.918          estimate D2E/DX2                !
 ! A15   A(21,4,22)            109.3476         estimate D2E/DX2                !
 ! A16   A(1,5,7)              111.9209         estimate D2E/DX2                !
 ! A17   A(1,5,8)              124.6643         estimate D2E/DX2                !
 ! A18   A(7,5,8)              123.4062         estimate D2E/DX2                !
 ! A19   A(3,7,5)               93.0997         estimate D2E/DX2                !
 ! A20   A(3,9,10)             121.9827         estimate D2E/DX2                !
 ! A21   A(3,9,13)             128.3573         estimate D2E/DX2                !
 ! A22   A(10,9,13)            109.6216         estimate D2E/DX2                !
 ! A23   A(9,10,11)             92.7858         estimate D2E/DX2                !
 ! A24   A(10,11,12)           112.3574         estimate D2E/DX2                !
 ! A25   A(10,11,17)           128.2762         estimate D2E/DX2                !
 ! A26   A(12,11,17)           112.6254         estimate D2E/DX2                !
 ! A27   A(11,12,13)           112.6883         estimate D2E/DX2                !
 ! A28   A(11,12,15)           112.6364         estimate D2E/DX2                !
 ! A29   A(13,12,15)           128.1877         estimate D2E/DX2                !
 ! A30   A(9,13,12)            112.5058         estimate D2E/DX2                !
 ! A31   A(9,13,14)            123.8196         estimate D2E/DX2                !
 ! A32   A(12,13,14)           122.9892         estimate D2E/DX2                !
 ! A33   A(12,15,16)            91.2859         estimate D2E/DX2                !
 ! A34   A(15,16,17)           112.3354         estimate D2E/DX2                !
 ! A35   A(15,16,18)           122.3227         estimate D2E/DX2                !
 ! A36   A(17,16,18)           124.3628         estimate D2E/DX2                !
 ! A37   A(11,17,16)           111.099          estimate D2E/DX2                !
 ! A38   A(11,17,19)           124.0606         estimate D2E/DX2                !
 ! A39   A(16,17,19)           122.7223         estimate D2E/DX2                !
 ! D1    D(5,1,2,3)              0.3915         estimate D2E/DX2                !
 ! D2    D(5,1,2,4)           -179.5973         estimate D2E/DX2                !
 ! D3    D(6,1,2,3)           -179.8811         estimate D2E/DX2                !
 ! D4    D(6,1,2,4)              0.13           estimate D2E/DX2                !
 ! D5    D(2,1,5,7)             -0.3845         estimate D2E/DX2                !
 ! D6    D(2,1,5,8)           -179.3471         estimate D2E/DX2                !
 ! D7    D(6,1,5,7)            179.8822         estimate D2E/DX2                !
 ! D8    D(6,1,5,8)              0.9196         estimate D2E/DX2                !
 ! D9    D(1,2,3,7)             -0.2224         estimate D2E/DX2                !
 ! D10   D(1,2,3,9)            178.6265         estimate D2E/DX2                !
 ! D11   D(4,2,3,7)            179.7656         estimate D2E/DX2                !
 ! D12   D(4,2,3,9)             -1.3855         estimate D2E/DX2                !
 ! D13   D(1,2,4,20)             2.1641         estimate D2E/DX2                !
 ! D14   D(1,2,4,21)          -117.3645         estimate D2E/DX2                !
 ! D15   D(1,2,4,22)           121.0843         estimate D2E/DX2                !
 ! D16   D(3,2,4,20)          -177.8231         estimate D2E/DX2                !
 ! D17   D(3,2,4,21)            62.6483         estimate D2E/DX2                !
 ! D18   D(3,2,4,22)           -58.9029         estimate D2E/DX2                !
 ! D19   D(2,3,7,5)              0.0033         estimate D2E/DX2                !
 ! D20   D(9,3,7,5)           -179.041          estimate D2E/DX2                !
 ! D21   D(2,3,9,10)            49.982          Frozen                          !
 ! D22   D(2,3,9,13)          -132.5142         estimate D2E/DX2                !
 ! D23   D(7,3,9,10)          -131.2501         estimate D2E/DX2                !
 ! D24   D(7,3,9,13)            46.2538         estimate D2E/DX2                !
 ! D25   D(1,5,7,3)              0.2153         estimate D2E/DX2                !
 ! D26   D(8,5,7,3)            179.1932         estimate D2E/DX2                !
 ! D27   D(3,9,10,11)          179.7761         estimate D2E/DX2                !
 ! D28   D(13,9,10,11)           1.8539         estimate D2E/DX2                !
 ! D29   D(3,9,13,12)         -179.8372         estimate D2E/DX2                !
 ! D30   D(3,9,13,14)           -9.0937         estimate D2E/DX2                !
 ! D31   D(10,9,13,12)          -2.0849         estimate D2E/DX2                !
 ! D32   D(10,9,13,14)         168.6587         estimate D2E/DX2                !
 ! D33   D(9,10,11,12)          -1.1858         estimate D2E/DX2                !
 ! D34   D(9,10,11,17)        -149.8825         estimate D2E/DX2                !
 ! D35   D(10,11,12,13)          0.1706         estimate D2E/DX2                !
 ! D36   D(10,11,12,15)       -154.0346         estimate D2E/DX2                !
 ! D37   D(17,11,12,13)        153.9464         estimate D2E/DX2                !
 ! D38   D(17,11,12,15)         -0.2588         estimate D2E/DX2                !
 ! D39   D(10,11,17,16)        149.7253         estimate D2E/DX2                !
 ! D40   D(10,11,17,19)        -14.0656         estimate D2E/DX2                !
 ! D41   D(12,11,17,16)          1.0961         estimate D2E/DX2                !
 ! D42   D(12,11,17,19)       -162.6948         estimate D2E/DX2                !
 ! D43   D(11,12,13,9)           1.2694         estimate D2E/DX2                !
 ! D44   D(11,12,13,14)       -169.563          estimate D2E/DX2                !
 ! D45   D(15,12,13,9)         150.54           estimate D2E/DX2                !
 ! D46   D(15,12,13,14)        -20.2924         estimate D2E/DX2                !
 ! D47   D(11,12,15,16)         -0.4977         estimate D2E/DX2                !
 ! D48   D(13,12,15,16)       -149.7812         estimate D2E/DX2                !
 ! D49   D(12,15,16,17)          1.1278         estimate D2E/DX2                !
 ! D50   D(12,15,16,18)        170.2585         estimate D2E/DX2                !
 ! D51   D(15,16,17,11)         -1.4663         estimate D2E/DX2                !
 ! D52   D(15,16,17,19)        162.5789         estimate D2E/DX2                !
 ! D53   D(18,16,17,11)       -170.3361         estimate D2E/DX2                !
 ! D54   D(18,16,17,19)         -6.2909         estimate D2E/DX2                !
 --------------------------------------------------------------------------------
 Trust Radius=3.00D-01 FncErr=1.00D-07 GrdErr=1.00D-06 EigMax=2.50D+02 EigMin=1.00D-04
 Number of steps in this run=    127 maximum allowed number of steps=    132.
 GradGradGradGradGradGradGradGradGradGradGradGradGradGradGradGradGradGrad

                          Input orientation:                          
 ---------------------------------------------------------------------
 Center     Atomic      Atomic             Coordinates (Angstroms)
 Number     Number       Type             X           Y           Z
 ---------------------------------------------------------------------
      1          6           0       -4.250000   -1.360000   -0.210000
      2          6           0       -2.930000   -0.950000   -0.610000
      3          6           0       -1.970000   -2.050000   -0.620000
      4          6           0       -2.660000    0.470000   -0.960000
      5          6           0       -4.330000   -2.760000    0.100000
      6          1           0       -5.100000   -0.700000   -0.140000
      7         16           0       -2.800000   -3.560000   -0.110000
      8          1           0       -5.230000   -3.270000    0.410000
      9          6           0       -0.560000   -2.130000   -0.970000
     10         16           0        0.648000   -0.988000   -0.306000
     11          6           0        1.952000   -1.739000   -1.160000
     12          6           0        1.518000   -2.873000   -1.936000
     13          6           0        0.110000   -3.113000   -1.824000
     14          1           0       -0.365000   -4.006000   -2.198000
     15         16           0        2.784000   -4.027000   -2.196000
     16          6           0        3.930000   -3.032000   -1.296000
     17          6           0        3.323000   -1.828000   -0.778000
     18          1           0        4.911000   -3.390000   -1.016000
     19          1           0        3.773000   -1.238000    0.015000
     20          1           0       -3.550000    1.090000   -0.830000
     21          1           0       -2.350000    0.560000   -2.000000
     22          1           0       -1.880000    0.890000   -0.310000
 ---------------------------------------------------------------------
                    Distance matrix (angstroms):
                    1          2          3          4          5
     1  C    0.000000
     2  C    1.438923   0.000000
     3  C    2.417147   1.460034   0.000000
     4  C    2.537617   1.487212   2.634787   0.000000
     5  C    1.436141   2.395871   2.567509   3.787532   0.000000
     6  H    1.078425   2.234346   3.442354   2.827525   2.212261
     7  S    2.636759   2.660639   1.796970   4.121044   1.739253
     8  H    2.234480   3.422397   3.630000   4.740190   1.079907
     9  C    3.845335   2.671872   1.454991   3.342170   3.969219
    10  S    4.913044   3.591092   2.842598   3.673737   5.299557
    11  C    6.285773   4.975836   3.971197   5.117639   6.487955
    12  C    6.207904   5.024033   3.817765   5.439109   6.193316
    13  C    4.968662   3.923514   2.627924   4.610562   4.851802
    14  H    5.103595   4.294194   2.981953   5.180178   4.749163
    15  S    7.780375   6.680802   5.384498   7.168531   7.581946
    16  C    8.419464   7.201730   6.019244   7.470274   8.381551
    17  C    7.608678   6.316575   5.300009   6.411725   7.759376
    18  H    9.417773   8.221905   7.021437   8.498398   9.329439
    19  H    8.027082   6.738233   5.834777   6.726914   8.245139
    20  H    2.622384   2.143455   3.521378   1.092428   4.036806
    21  H    3.240447   2.132745   2.976726   1.088944   4.399182
    22  H    3.269465   2.139650   2.957668   1.098772   4.415099
                    6          7          8          9         10
     6  H    0.000000
     7  S    3.670218   0.000000
     8  H    2.631406   2.501879   0.000000
     9  C    4.831708   2.793224   5.001290   0.000000
    10  S    5.757604   4.306078   6.345949   1.790063   0.000000
    11  C    7.200738   5.196157   7.509327   2.549338   1.730241
    12  C    7.193432   4.738288   7.155196   2.409002   2.639512
    13  C    5.983521   3.406715   5.790596   1.464413   2.666345
    14  H    6.130679   3.238500   5.568805   2.250641   3.703263
    15  S    8.800768   5.979176   8.460998   4.035346   4.167747
    16  C    9.397631   6.854070   9.320551   4.591294   3.991185
    17  C    8.522110   6.398217   8.754685   3.899456   2.843239
    18  H   10.403057   7.765903  10.241472   5.614406   4.944378
    19  H    8.890647   6.972205   9.237914   4.532194   3.151375
    20  H    2.466313   4.764808   4.834211   4.396374   4.713371
    21  H    3.551014   4.555107   5.363898   3.391327   3.775440
    22  H    3.595191   4.548505   5.389480   3.361309   3.149235
                   11         12         13         14         15
    11  C    0.000000
    12  C    1.441002   0.000000
    13  C    2.392015   1.432693   0.000000
    14  H    3.403707   2.213148   1.078402   0.000000
    15  S    2.645839   1.732649   2.850273   3.149071   0.000000
    16  C    2.367030   2.500525   3.857168   4.495476   1.764466
    17  C    1.426004   2.385585   3.615067   4.512364   2.671488
    18  H    3.391492   3.553328   4.876391   5.441760   2.514418
    19  H    2.224335   3.400684   4.507229   5.448141   3.693936
    20  H    6.195494   6.527881   5.661170   6.163186   8.256464
    21  H    4.949566   5.172138   4.424195   4.982749   6.887448
    22  H    4.724232   5.324514   4.719778   5.461738   7.034684
                   16         17         18         19         20
    16  C    0.000000
    17  C    1.444434   0.000000
    18  H    1.081168   2.240141   0.000000
    19  H    2.227511   1.086024   2.643692   0.000000
    20  H    8.553271   7.466964   9.575673   7.730455   0.000000
    21  H    7.268871   6.275250   8.324234   6.692097   1.757783
    22  H    7.078869   5.888782   8.058196   6.049001   1.760483
                   21         22
    21  H    0.000000
    22  H    1.784909   0.000000
 Stoichiometry    C11H8S3
 Framework group  C1[X(C11H8S3)]
 Deg. of freedom    60
 Full point group                 C1      NOp   1
 Largest Abelian subgroup         C1      NOp   1
 Largest concise Abelian subgroup C1      NOp   1
                         Standard orientation:                         
 ---------------------------------------------------------------------
 Center     Atomic      Atomic             Coordinates (Angstroms)
 Number     Number       Type             X           Y           Z
 ---------------------------------------------------------------------
      1          6           0        4.117400    0.162627    0.112936
      2          6           0        2.838500    0.781242    0.341476
      3          6           0        1.715907   -0.101653    0.038190
      4          6           0        2.760899    2.181456    0.836630
      5          6           0        4.007391   -1.184705   -0.371928
      6          1           0        5.067775    0.644876    0.277932
      7         16           0        2.348985   -1.683538   -0.532731
      8          1           0        4.845932   -1.827120   -0.596323
      9          6           0        0.273428    0.062575    0.134539
     10         16           0       -0.567039    1.484841   -0.554736
     11          6           0       -2.120532    0.920910   -0.042510
     12          6           0       -2.047588   -0.352142    0.628688
     13          6           0       -0.708371   -0.852974    0.719643
     14          1           0       -0.477300   -1.856787    1.038886
     15         16           0       -3.522645   -1.253503    0.511090
     16          6           0       -4.284335    0.038193   -0.418798
     17          6           0       -3.388222    1.146047   -0.655502
     18          1           0       -5.241873   -0.086815   -0.905029
     19          1           0       -3.569001    1.893948   -1.421930
     20          1           0        3.754254    2.623150    0.944111
     21          1           0        2.280192    2.220572    1.812946
     22          1           0        2.204360    2.813918    0.131253
 ---------------------------------------------------------------------
 Rotational constants (GHZ):           1.1873987           0.2727944           0.2354239
 Standard basis: 6-311+G(d,p) (5D, 7F)
 There are   394 symmetry adapted cartesian basis functions of A   symmetry.
 There are   380 symmetry adapted basis functions of A   symmetry.
   380 basis functions,   610 primitive gaussians,   394 cartesian basis functions
    61 alpha electrons       61 beta electrons
       nuclear repulsion energy      1105.4278090613 Hartrees.
 NAtoms=   22 NActive=   22 NUniq=   22 SFac= 1.00D+00 NAtFMM=   60 NAOKFM=F Big=F
 Integral buffers will be    131072 words long.
 Raffenetti 2 integral format.
 Two-electron integral symmetry is turned on.
 Nuclear repulsion after empirical dispersion term =     1105.4156136276 Hartrees.
 One-electron integrals computed using PRISM.
 NBasis=   380 RedAO= T EigKep=  1.33D-06  NBF=   380
 NBsUse=   379 1.00D-06 EigRej=  3.27D-07 NBFU=   379
 ExpMin= 4.05D-02 ExpMax= 9.34D+04 ExpMxC= 3.17D+03 IAcc=3 IRadAn=         5 AccDes= 0.00D+00
 Harris functional with IExCor= 4639 and IRadAn=       5 diagonalized for initial guess.
 HarFok:  IExCor= 4639 AccDes= 0.00D+00 IRadAn=         5 IDoV= 1 UseB2=F ITyADJ=14
 ICtDFT=  3500011 ScaDFX=  1.000000  1.000000  1.000000  1.000000
 FoFCou: FMM=F IPFlag=           0 FMFlag=      100000 FMFlg1=           0
         NFxFlg=           0 DoJE=T BraDBF=F KetDBF=T FulRan=T
         wScrn=  0.000000 ICntrl=       500 IOpCl=  0 I1Cent=   200000004 NGrid=           0
         NMat0=    1 NMatS0=      1 NMatT0=    0 NMatD0=    1 NMtDS0=    0 NMtDT0=    0
 Petite list used in FoFCou.
 Requested convergence on RMS density matrix=1.00D-08 within 128 cycles.
 Requested convergence on MAX density matrix=1.00D-06.
 Requested convergence on             energy=1.00D-06.
 No special actions if energy rises.
 SCF Done:  E(RwB97XD) =  -1618.46035718     A.U. after   19 cycles
            NFock= 19  Conv=0.22D-08     -V/T= 2.0028

 **********************************************************************

            Population analysis using the SCF Density.

 **********************************************************************

 Orbital symmetries:
       Occupied  (A) (A) (A) (A) (A) (A) (A) (A) (A) (A) (A) (A)
                 (A) (A) (A) (A) (A) (A) (A) (A) (A) (A) (A) (A)
                 (A) (A) (A) (A) (A) (A) (A) (A) (A) (A) (A) (A)
                 (A) (A) (A) (A) (A) (A) (A) (A) (A) (A) (A) (A)
                 (A) (A) (A) (A) (A) (A) (A) (A) (A) (A) (A) (A)
                 (A)
       Virtual   (A) (A) (A) (A) (A) (A) (A) (A) (A) (A) (A) (A)
                 (A) (A) (A) (A) (A) (A) (A) (A) (A) (A) (A) (A)
                 (A) (A) (A) (A) (A) (A) (A) (A) (A) (A) (A) (A)
                 (A) (A) (A) (A) (A) (A) (A) (A) (A) (A) (A) (A)
                 (A) (A) (A) (A) (A) (A) (A) (A) (A) (A) (A) (A)
                 (A) (A) (A) (A) (A) (A) (A) (A) (A) (A) (A) (A)
                 (A) (A) (A) (A) (A) (A) (A) (A) (A) (A) (A) (A)
                 (A) (A) (A) (A) (A) (A) (A) (A) (A) (A) (A) (A)
                 (A) (A) (A) (A) (A) (A) (A) (A) (A) (A) (A) (A)
                 (A) (A) (A) (A) (A) (A) (A) (A) (A) (A) (A) (A)
                 (A) (A) (A) (A) (A) (A) (A) (A) (A) (A) (A) (A)
                 (A) (A) (A) (A) (A) (A) (A) (A) (A) (A) (A) (A)
                 (A) (A) (A) (A) (A) (A) (A) (A) (A) (A) (A) (A)
                 (A) (A) (A) (A) (A) (A) (A) (A) (A) (A) (A) (A)
                 (A) (A) (A) (A) (A) (A) (A) (A) (A) (A) (A) (A)
                 (A) (A) (A) (A) (A) (A) (A) (A) (A) (A) (A) (A)
                 (A) (A) (A) (A) (A) (A) (A) (A) (A) (A) (A) (A)
                 (A) (A) (A) (A) (A) (A) (A) (A) (A) (A) (A) (A)
                 (A) (A) (A) (A) (A) (A) (A) (A) (A) (A) (A) (A)
                 (A) (A) (A) (A) (A) (A) (A) (A) (A) (A) (A) (A)
                 (A) (A) (A) (A) (A) (A) (A) (A) (A) (A) (A) (A)
                 (A) (A) (A) (A) (A) (A) (A) (A) (A) (A) (A) (A)
                 (A) (A) (A) (A) (A) (A) (A) (A) (A) (A) (A) (A)
                 (A) (A) (A) (A) (A) (A) (A) (A) (A) (A) (A) (A)
                 (A) (A) (A) (A) (A) (A) (A) (A) (A) (A) (A) (A)
                 (A) (A) (A) (A) (A) (A) (A) (A) (A) (A) (A) (A)
                 (A) (A) (A) (A) (A) (A)
 The electronic state is 1-A.
 Alpha  occ. eigenvalues --  -89.05907 -89.05671 -89.05594 -10.35384 -10.34278
 Alpha  occ. eigenvalues --  -10.33684 -10.33527 -10.33482 -10.32885 -10.31942
 Alpha  occ. eigenvalues --  -10.31881 -10.31757 -10.30347 -10.28682  -8.09850
 Alpha  occ. eigenvalues --   -8.09618  -8.09466  -6.04702  -6.04478  -6.04338
 Alpha  occ. eigenvalues --   -6.04303  -6.04108  -6.03926  -6.03918  -6.03671
 Alpha  occ. eigenvalues --   -6.03593  -1.00772  -0.97571  -0.93560  -0.87542
 Alpha  occ. eigenvalues --   -0.87197  -0.84647  -0.80725  -0.79161  -0.76764
 Alpha  occ. eigenvalues --   -0.70362  -0.66898  -0.65697  -0.62286  -0.60755
 Alpha  occ. eigenvalues --   -0.58039  -0.57757  -0.52793  -0.52023  -0.51761
 Alpha  occ. eigenvalues --   -0.50271  -0.49608  -0.47816  -0.47448  -0.47296
 Alpha  occ. eigenvalues --   -0.45999  -0.44953  -0.44679  -0.43026  -0.42276
 Alpha  occ. eigenvalues --   -0.41184  -0.37113  -0.32943  -0.32499  -0.30691
 Alpha  occ. eigenvalues --   -0.26788
 Alpha virt. eigenvalues --   -0.00655   0.02910   0.05001   0.05697   0.05999
 Alpha virt. eigenvalues --    0.06494   0.06743   0.07020   0.07467   0.08607
 Alpha virt. eigenvalues --    0.08741   0.08897   0.09271   0.09820   0.10089
 Alpha virt. eigenvalues --    0.10435   0.10996   0.11545   0.11738   0.12018
 Alpha virt. eigenvalues --    0.12549   0.12910   0.13431   0.13567   0.13873
 Alpha virt. eigenvalues --    0.15136   0.15344   0.15426   0.16314   0.17259
 Alpha virt. eigenvalues --    0.17319   0.17770   0.18019   0.18610   0.18910
 Alpha virt. eigenvalues --    0.19371   0.19672   0.20494   0.20739   0.21249
 Alpha virt. eigenvalues --    0.21505   0.21748   0.22093   0.22780   0.22949
 Alpha virt. eigenvalues --    0.23372   0.24025   0.24169   0.24888   0.25093
 Alpha virt. eigenvalues --    0.25423   0.25815   0.25919   0.26285   0.26710
 Alpha virt. eigenvalues --    0.26988   0.27188   0.27621   0.27784   0.28264
 Alpha virt. eigenvalues --    0.28747   0.29577   0.29832   0.30033   0.30816
 Alpha virt. eigenvalues --    0.31198   0.31345   0.31539   0.32415   0.32706
 Alpha virt. eigenvalues --    0.33289   0.34617   0.35110   0.35220   0.36075
 Alpha virt. eigenvalues --    0.36418   0.37596   0.38397   0.38834   0.39894
 Alpha virt. eigenvalues --    0.41647   0.41935   0.42611   0.42801   0.43712
 Alpha virt. eigenvalues --    0.44666   0.45706   0.47298   0.48621   0.49813
 Alpha virt. eigenvalues --    0.50988   0.51882   0.52287   0.53715   0.54632
 Alpha virt. eigenvalues --    0.56593   0.59961   0.61094   0.61278   0.63251
 Alpha virt. eigenvalues --    0.63412   0.63668   0.63920   0.64874   0.65084
 Alpha virt. eigenvalues --    0.66295   0.66978   0.68206   0.69188   0.69740
 Alpha virt. eigenvalues --    0.70702   0.71074   0.71668   0.72999   0.73901
 Alpha virt. eigenvalues --    0.74198   0.75455   0.76752   0.76838   0.77114
 Alpha virt. eigenvalues --    0.78322   0.78900   0.79506   0.79991   0.81268
 Alpha virt. eigenvalues --    0.81837   0.81953   0.83406   0.84174   0.84414
 Alpha virt. eigenvalues --    0.85264   0.85531   0.86466   0.87688   0.89502
 Alpha virt. eigenvalues --    0.90261   0.90898   0.91369   0.92619   0.93041
 Alpha virt. eigenvalues --    0.94305   0.94653   0.97134   0.97394   0.98182
 Alpha virt. eigenvalues --    0.99340   1.00452   1.01755   1.02131   1.02243
 Alpha virt. eigenvalues --    1.04051   1.04405   1.05893   1.06369   1.07342
 Alpha virt. eigenvalues --    1.07488   1.09747   1.09892   1.11216   1.13833
 Alpha virt. eigenvalues --    1.14964   1.15621   1.17358   1.19478   1.22281
 Alpha virt. eigenvalues --    1.25783   1.27737   1.29674   1.34121   1.36351
 Alpha virt. eigenvalues --    1.39820   1.42565   1.44204   1.45689   1.49005
 Alpha virt. eigenvalues --    1.49073   1.51218   1.54970   1.56224   1.56944
 Alpha virt. eigenvalues --    1.60944   1.62109   1.63093   1.64359   1.65074
 Alpha virt. eigenvalues --    1.66281   1.66692   1.68008   1.69592   1.70237
 Alpha virt. eigenvalues --    1.72523   1.72799   1.74166   1.74329   1.76326
 Alpha virt. eigenvalues --    1.77706   1.79051   1.79423   1.80435   1.83142
 Alpha virt. eigenvalues --    1.83892   1.85386   1.87977   1.88438   1.89366
 Alpha virt. eigenvalues --    1.89931   1.91576   1.93860   1.95677   1.96667
 Alpha virt. eigenvalues --    1.97972   1.99268   2.02090   2.03401   2.03799
 Alpha virt. eigenvalues --    2.05322   2.07038   2.08879   2.09270   2.10509
 Alpha virt. eigenvalues --    2.11839   2.13926   2.14938   2.16228   2.17466
 Alpha virt. eigenvalues --    2.18706   2.19413   2.21091   2.22906   2.23228
 Alpha virt. eigenvalues --    2.25567   2.27356   2.31392   2.35273   2.37170
 Alpha virt. eigenvalues --    2.43436   2.44989   2.46444   2.48964   2.52754
 Alpha virt. eigenvalues --    2.53881   2.55839   2.60015   2.61044   2.63500
 Alpha virt. eigenvalues --    2.64670   2.69111   2.70000   2.74251   2.74569
 Alpha virt. eigenvalues --    2.78467   2.78704   2.81607   2.82163   2.82175
 Alpha virt. eigenvalues --    2.83839   2.85678   2.88084   2.90494   2.92535
 Alpha virt. eigenvalues --    2.94013   2.97331   3.01818   3.03030   3.04804
 Alpha virt. eigenvalues --    3.07532   3.09757   3.10889   3.13087   3.14263
 Alpha virt. eigenvalues --    3.16282   3.20467   3.26845   3.31914   3.35558
 Alpha virt. eigenvalues --    3.37344   3.42093   3.45889   3.49356   3.50453
 Alpha virt. eigenvalues --    3.57552   3.67506   3.75277   3.90246   3.91872
 Alpha virt. eigenvalues --    4.01809   4.05688   4.14907   4.20647   4.40591
 Alpha virt. eigenvalues --    4.43814   4.55463   8.05851   8.07594   8.09416
 Alpha virt. eigenvalues --   17.42590  17.42751  17.44684  17.56233  17.59082
 Alpha virt. eigenvalues --   17.60877  17.62984  17.63832  17.66525  23.61410
 Alpha virt. eigenvalues --   23.74407  23.87012  23.90785  23.95042  23.99234
 Alpha virt. eigenvalues --   24.01418  24.07107  24.09134  24.09303  24.12072
 Alpha virt. eigenvalues --  189.30259 189.32400 189.34880
          Condensed to atoms (all electrons):
               1          2          3          4          5          6
     1  C   12.659595  -7.780273   5.971074  -1.806566  -0.736243   0.313791
     2  C   -7.780273  31.232455 -25.014813   2.329447   2.502802   0.036101
     3  C    5.971074 -25.014813  37.882425  -5.446025  -2.747790  -0.034218
     4  C   -1.806566   2.329447  -5.446025   9.247903   0.186943   0.020902
     5  C   -0.736243   2.502802  -2.747790   0.186943   6.134611   0.005583
     6  H    0.313791   0.036101  -0.034218   0.020902   0.005583   0.491194
     7  S   -1.248881   0.285381  -1.657001   0.785825   0.041928   0.006779
     8  H    0.029691  -0.029832   0.000490   0.001490   0.390675  -0.003217
     9  C   -1.035329   0.798596  -1.314011   0.101652   0.261362   0.001924
    10  S   -0.172009   1.054548  -0.592808   0.010787   0.070094   0.000081
    11  C    0.049461  -0.277063  -0.364429   0.112056  -0.057820   0.000037
    12  C   -0.194726   0.469173  -0.246572   0.008725   0.095034  -0.000027
    13  C    0.391246   0.155151  -0.844012   0.036782  -0.142255  -0.000040
    14  H   -0.000299  -0.046902   0.052961  -0.003828   0.000007   0.000000
    15  S    0.006575   0.046346  -0.051494   0.001373  -0.001785  -0.000003
    16  C   -0.001420  -0.046873  -0.001128  -0.005389  -0.000123   0.000000
    17  C    0.021445  -0.163780   0.300579   0.018571  -0.012138  -0.000003
    18  H    0.000000   0.000143   0.000147   0.000001   0.000000  -0.000000
    19  H    0.000028   0.000213  -0.001184  -0.000168   0.000003  -0.000000
    20  H    0.058028  -0.077789  -0.083016   0.453286   0.020996   0.001425
    21  H   -0.027747  -0.014294  -0.002067   0.414684  -0.000414   0.000137
    22  H   -0.048708  -0.007958   0.108867   0.276882  -0.006289   0.000222
               7          8          9         10         11         12
     1  C   -1.248881   0.029691  -1.035329  -0.172009   0.049461  -0.194726
     2  C    0.285381  -0.029832   0.798596   1.054548  -0.277063   0.469173
     3  C   -1.657001   0.000490  -1.314011  -0.592808  -0.364429  -0.246572
     4  C    0.785825   0.001490   0.101652   0.010787   0.112056   0.008725
     5  C    0.041928   0.390675   0.261362   0.070094  -0.057820   0.095034
     6  H    0.006779  -0.003217   0.001924   0.000081   0.000037  -0.000027
     7  S   17.838275  -0.019314   0.267837  -0.069347   0.179866  -0.215358
     8  H   -0.019314   0.444373  -0.006216  -0.000254   0.000036  -0.000110
     9  C    0.267837  -0.006216   9.896918   0.093013  -0.931374   0.770102
    10  S   -0.069347  -0.000254   0.093013  17.587497  -0.993808   1.262586
    11  C    0.179866   0.000036  -0.931374  -0.993808  13.808240  -4.383263
    12  C   -0.215358  -0.000110   0.770102   1.262586  -4.383263  15.311123
    13  C    0.126820  -0.000125  -3.194204  -1.867985   1.094735  -5.121539
    14  H    0.002695  -0.000003   0.107810   0.010701  -0.037662   0.108291
    15  S   -0.017948   0.000009  -0.331464   0.176809   0.764373  -1.061479
    16  C    0.001867  -0.000001   0.219829   0.009767   0.826418  -0.236998
    17  C    0.090652  -0.000005  -0.081760  -0.182777  -3.995231  -0.624478
    18  H   -0.000051   0.000000  -0.004585   0.000237  -0.030189   0.016238
    19  H   -0.000135   0.000000   0.005608   0.009525   0.018875  -0.023617
    20  H   -0.003546  -0.000017   0.002467   0.001512  -0.001766   0.001609
    21  H    0.004968   0.000001   0.001065  -0.004681   0.002164  -0.005234
    22  H    0.001583  -0.000000   0.010972   0.011988   0.001766  -0.003053
              13         14         15         16         17         18
     1  C    0.391246  -0.000299   0.006575  -0.001420   0.021445   0.000000
     2  C    0.155151  -0.046902   0.046346  -0.046873  -0.163780   0.000143
     3  C   -0.844012   0.052961  -0.051494  -0.001128   0.300579   0.000147
     4  C    0.036782  -0.003828   0.001373  -0.005389   0.018571   0.000001
     5  C   -0.142255   0.000007  -0.001785  -0.000123  -0.012138   0.000000
     6  H   -0.000040   0.000000  -0.000003   0.000000  -0.000003  -0.000000
     7  S    0.126820   0.002695  -0.017948   0.001867   0.090652  -0.000051
     8  H   -0.000125  -0.000003   0.000009  -0.000001  -0.000005   0.000000
     9  C   -3.194204   0.107810  -0.331464   0.219829  -0.081760  -0.004585
    10  S   -1.867985   0.010701   0.176809   0.009767  -0.182777   0.000237
    11  C    1.094735  -0.037662   0.764373   0.826418  -3.995231  -0.030189
    12  C   -5.121539   0.108291  -1.061479  -0.236998  -0.624478   0.016238
    13  C   14.318008   0.168617   0.259074  -0.573622   1.117277   0.017757
    14  H    0.168617   0.472982  -0.003229   0.004281  -0.012551  -0.000007
    15  S    0.259074  -0.003229  16.557227   0.434470  -0.593617  -0.023206
    16  C   -0.573622   0.004281   0.434470   5.643085  -0.290388   0.366494
    17  C    1.117277  -0.012551  -0.593617  -0.290388  10.289522   0.019226
    18  H    0.017757  -0.000007  -0.023206   0.366494   0.019226   0.438530
    19  H   -0.002323   0.000007  -0.001399   0.016607   0.336390  -0.002697
    20  H   -0.000680  -0.000001   0.000018   0.000000  -0.000107   0.000000
    21  H   -0.010325   0.000006  -0.000136  -0.000086   0.001778  -0.000000
    22  H    0.004439   0.000015  -0.000148   0.000227  -0.001192  -0.000000
              19         20         21         22
     1  C    0.000028   0.058028  -0.027747  -0.048708
     2  C    0.000213  -0.077789  -0.014294  -0.007958
     3  C   -0.001184  -0.083016  -0.002067   0.108867
     4  C   -0.000168   0.453286   0.414684   0.276882
     5  C    0.000003   0.020996  -0.000414  -0.006289
     6  H   -0.000000   0.001425   0.000137   0.000222
     7  S   -0.000135  -0.003546   0.004968   0.001583
     8  H    0.000000  -0.000017   0.000001  -0.000000
     9  C    0.005608   0.002467   0.001065   0.010972
    10  S    0.009525   0.001512  -0.004681   0.011988
    11  C    0.018875  -0.001766   0.002164   0.001766
    12  C   -0.023617   0.001609  -0.005234  -0.003053
    13  C   -0.002323  -0.000680  -0.010325   0.004439
    14  H    0.000007  -0.000001   0.000006   0.000015
    15  S   -0.001399   0.000018  -0.000136  -0.000148
    16  C    0.016607   0.000000  -0.000086   0.000227
    17  C    0.336390  -0.000107   0.001778  -0.001192
    18  H   -0.002697   0.000000  -0.000000  -0.000000
    19  H    0.474823   0.000000  -0.000000  -0.000001
    20  H    0.000000   0.517167  -0.023673  -0.025687
    21  H   -0.000000  -0.023673   0.490074  -0.023538
    22  H   -0.000001  -0.025687  -0.023538   0.521867
 Mulliken charges:
               1
     1  C   -0.448735
     2  C    0.549220
     3  C    0.084026
     4  C   -0.745331
     5  C   -0.005183
     6  H    0.159332
     7  S   -0.402892
     8  H    0.192330
     9  C    0.359788
    10  S   -0.415474
    11  C    0.214578
    12  C    0.073576
    13  C    0.067205
    14  H    0.176110
    15  S   -0.160367
    16  C   -0.367018
    17  C   -0.237413
    18  H    0.201962
    19  H    0.169446
    20  H    0.159774
    21  H    0.197318
    22  H    0.177746
 Sum of Mulliken charges =  -0.00000
 Mulliken charges with hydrogens summed into heavy atoms:
               1
     1  C   -0.289403
     2  C    0.549220
     3  C    0.084026
     4  C   -0.210492
     5  C    0.187147
     7  S   -0.402892
     9  C    0.359788
    10  S   -0.415474
    11  C    0.214578
    12  C    0.073576
    13  C    0.243315
    15  S   -0.160367
    16  C   -0.165055
    17  C   -0.067967
 Electronic spatial extent (au):  <R**2>=           4441.4712
 Charge=             -0.0000 electrons
 Dipole moment (field-independent basis, Debye):
    X=              0.6416    Y=              0.2812    Z=             -0.6426  Tot=              0.9506
 Quadrupole moment (field-independent basis, Debye-Ang):
   XX=            -88.0402   YY=            -98.6277   ZZ=           -106.7368
   XY=              1.2207   XZ=              5.7441   YZ=             -1.3579
 Traceless Quadrupole moment (field-independent basis, Debye-Ang):
   XX=              9.7614   YY=             -0.8261   ZZ=             -8.9352
   XY=              1.2207   XZ=              5.7441   YZ=             -1.3579
 Octapole moment (field-independent basis, Debye-Ang**2):
  XXX=             20.3921  YYY=             -3.4190  ZZZ=             -2.2964  XYY=             10.9885
  XXY=             -3.2931  XXZ=            -27.6554  XZZ=             -6.5461  YZZ=              2.9536
  YYZ=             -3.2494  XYZ=             16.1669
 Hexadecapole moment (field-independent basis, Debye-Ang**3):
 XXXX=          -4308.4289 YYYY=          -1055.6161 ZZZZ=           -320.5226 XXXY=             11.7358
 XXXZ=            124.1811 YYYX=             -1.2842 YYYZ=            -11.0610 ZZZX=             13.2384
 ZZZY=             -2.7920 XXYY=           -931.9450 XXZZ=           -899.1778 YYZZ=           -223.0333
 XXYZ=             16.7363 YYXZ=              6.3652 ZZXY=             -2.4929
 N-N= 1.105415613628D+03 E-N=-6.033998827221D+03  KE= 1.613975652743D+03
 Calling FoFJK, ICntrl=      2127 FMM=F ISym2X=0 I1Cent= 0 IOpClX= 0 NMat=1 NMatS=1 NMatT=0.
 ***** Axes restored to original set *****
 -------------------------------------------------------------------
 Center     Atomic                   Forces (Hartrees/Bohr)
 Number     Number              X              Y              Z
 -------------------------------------------------------------------
      1        6           0.024067942   -0.062853839    0.008672179
      2        6           0.015536363   -0.048980154    0.008155606
      3        6          -0.052897185    0.020241128    0.006393897
      4        6           0.008917474    0.006796646    0.002145799
      5        6           0.013978095    0.053073849   -0.016448990
      6        1          -0.000922021    0.001976954   -0.000185353
      7       16          -0.004918951    0.029620714   -0.003878330
      8        1           0.002819386   -0.004457126    0.000240507
      9        6           0.041225729   -0.031172178   -0.036401531
     10       16          -0.014572875   -0.007548620   -0.014882430
     11        6           0.000260626   -0.039174221   -0.008219508
     12        6          -0.013243500    0.022242707    0.034996741
     13        6          -0.016252695    0.047036572    0.037693293
     14        1          -0.006259644    0.002286122   -0.004117745
     15       16           0.014395250    0.018239226    0.005044700
     16        6          -0.036736704    0.047942289    0.022302436
     17        6           0.018101511   -0.056509223   -0.019175285
     18        1           0.000680757   -0.000473364   -0.007248293
     19        1           0.003342320    0.002345363   -0.008336682
     20        1          -0.000689767   -0.002533792    0.000390141
     21        1           0.004093439    0.001829689   -0.001932619
     22        1          -0.000925550    0.000071260   -0.005208534
 -------------------------------------------------------------------
 Cartesian Forces:  Max     0.062853839 RMS     0.023245689

 GradGradGradGradGradGradGradGradGradGradGradGradGradGradGradGradGradGrad
 Berny optimization.
 FormGI is forming the generalized inverse of G from B-inverse, IUseBI=4.
 Internal  Forces:  Max     0.070809659 RMS     0.014094100
 Search for a local minimum.
 Step number   1 out of a maximum of  127
 All quantities printed in internal units (Hartrees-Bohrs-Radians)
 Mixed Optimization -- RFO/linear search
 Second derivative matrix not updated -- first step.
 ITU=  0
     Eigenvalues ---    0.00935   0.00982   0.01057   0.01215   0.01241
     Eigenvalues ---    0.01279   0.01302   0.01426   0.01457   0.01493
     Eigenvalues ---    0.01498   0.01592   0.01596   0.01775   0.02199
     Eigenvalues ---    0.02652   0.07307   0.07353   0.15072   0.15683
     Eigenvalues ---    0.15738   0.15997   0.16000   0.16000   0.16000
     Eigenvalues ---    0.16000   0.17989   0.22443   0.22545   0.23319
     Eigenvalues ---    0.23979   0.24718   0.24979   0.24995   0.25000
     Eigenvalues ---    0.26147   0.26568   0.28440   0.30920   0.31292
     Eigenvalues ---    0.31556   0.33757   0.33818   0.34533   0.34822
     Eigenvalues ---    0.34935   0.35276   0.35854   0.35877   0.36006
     Eigenvalues ---    0.36185   0.36188   0.36332   0.37598   0.38329
     Eigenvalues ---    0.38438   0.39458   0.39688   0.406351000.00000
     Eigenvalues --- 1000.000001000.000001000.000001000.000001000.00000
     Eigenvalues --- 1000.000001000.000001000.000001000.000001000.00000
     Eigenvalues --- 1000.000001000.000001000.000001000.000001000.00000
     Eigenvalues --- 1000.000001000.000001000.000001000.000001000.00000
     Eigenvalues --- 1000.000001000.000001000.000001000.000001000.00000
     Eigenvalues --- 1000.000001000.000001000.000001000.000001000.00000
     Eigenvalues --- 1000.000001000.000001000.000001000.000001000.00000
     Eigenvalues --- 1000.000001000.000001000.000001000.000001000.00000
     Eigenvalues --- 1000.000001000.000001000.000001000.000001000.00000
     Eigenvalues --- 1000.000001000.000001000.000001000.000001000.00000
     Eigenvalues --- 1000.000001000.000001000.000001000.000001000.00000
     Eigenvalues --- 1000.000001000.00000
 RFO step:  Lambda=-6.08663203D-02 EMin= 9.35106172D-03
 Linear search not attempted -- first point.
 Maximum step size (   0.300) exceeded in Quadratic search.
    -- Step size scaled by   0.814
 Iteration  1 RMS(Cart)=  0.08866453 RMS(Int)=  0.00205635
 Iteration  2 RMS(Cart)=  0.00321854 RMS(Int)=  0.00048650
 Iteration  3 RMS(Cart)=  0.00000462 RMS(Int)=  0.00048648
 Iteration  4 RMS(Cart)=  0.00000000 RMS(Int)=  0.00048648
 Iteration  1 RMS(Cart)=  0.00001098 RMS(Int)=  0.00000444
 Iteration  2 RMS(Cart)=  0.00000599 RMS(Int)=  0.00000496
 Iteration  3 RMS(Cart)=  0.00000327 RMS(Int)=  0.00000561
 Iteration  4 RMS(Cart)=  0.00000179 RMS(Int)=  0.00000603
 Iteration  5 RMS(Cart)=  0.00000098 RMS(Int)=  0.00000628
 Variable       Old X    -DE/DX   Delta X   Delta X   Delta X     New X
                                 (Linear)    (Quad)   (Total)
    R1        2.71917  -0.01747   0.00000  -0.03308  -0.03303   2.68614
    R2        2.71391  -0.05750   0.00000  -0.10238  -0.10245   2.61146
    R3        2.03793   0.00192   0.00000   0.00370   0.00370   2.04163
    R4        2.75906  -0.06593   0.00000  -0.12510  -0.12499   2.63407
    R5        2.81042   0.00904   0.00000   0.01845   0.01845   2.82887
    R6        3.39578  -0.02777   0.00000  -0.06712  -0.06709   3.32869
    R7        2.74954  -0.00946   0.00000  -0.01762  -0.01762   2.73191
    R8        2.06439  -0.00083   0.00000  -0.00166  -0.00166   2.06273
    R9        2.05781   0.00316   0.00000   0.00627   0.00627   2.06408
   R10        2.07638  -0.00371   0.00000  -0.00757  -0.00757   2.06881
   R11        3.28671  -0.02230   0.00000  -0.04673  -0.04683   3.23988
   R12        2.04073  -0.00018   0.00000  -0.00034  -0.00034   2.04039
   R13        3.38273  -0.01872   0.00000  -0.04215  -0.04264   3.34009
   R14        2.76734  -0.07081   0.00000  -0.13524  -0.13550   2.63184
   R15        3.26968  -0.00594   0.00000  -0.01145  -0.01137   3.25831
   R16        2.72310  -0.03982   0.00000  -0.07493  -0.07400   2.64910
   R17        2.69476  -0.00300   0.00000  -0.00756  -0.00716   2.68760
   R18        2.70740  -0.01232   0.00000  -0.02408  -0.02379   2.68361
   R19        3.27423  -0.00448   0.00000  -0.00783  -0.00789   3.26634
   R20        2.03788   0.00229   0.00000   0.00441   0.00441   2.04229
   R21        3.33436  -0.01765   0.00000  -0.03790  -0.03841   3.29595
   R22        2.72958  -0.06524   0.00000  -0.11818  -0.11833   2.61125
   R23        2.04311  -0.00110   0.00000  -0.00214  -0.00214   2.04097
   R24        2.05229  -0.00343   0.00000  -0.00674  -0.00674   2.04555
    A1        1.97020   0.00694   0.00000   0.01447   0.01444   1.98464
    A2        2.17330  -0.00453   0.00000  -0.01114  -0.01113   2.16217
    A3        2.13967  -0.00241   0.00000  -0.00331  -0.00330   2.13637
    A4        1.97187  -0.00274   0.00000  -0.01129  -0.01114   1.96073
    A5        2.09905   0.01288   0.00000   0.03576   0.03568   2.13473
    A6        2.21227  -0.01014   0.00000  -0.02447  -0.02455   2.18772
    A7        1.90440   0.00673   0.00000   0.01900   0.01914   1.92353
    A8        2.31891  -0.01033   0.00000  -0.02778  -0.02785   2.29106
    A9        2.05972   0.00360   0.00000   0.00871   0.00863   2.06835
   A10        1.94548  -0.00404   0.00000  -0.01377  -0.01373   1.93175
   A11        1.93409   0.00236   0.00000   0.00794   0.00795   1.94204
   A12        1.93331   0.00361   0.00000   0.01292   0.01293   1.94624
   A13        1.87410   0.00124   0.00000   0.00528   0.00531   1.87941
   A14        1.86607   0.00095   0.00000   0.00490   0.00494   1.87101
   A15        1.90848  -0.00431   0.00000  -0.01796  -0.01797   1.89051
   A16        1.95339  -0.00278   0.00000  -0.00848  -0.00865   1.94474
   A17        2.17580   0.00678   0.00000   0.02413   0.02421   2.20001
   A18        2.15384  -0.00399   0.00000  -0.01555  -0.01548   2.13837
   A19        1.62490  -0.00816   0.00000  -0.01365  -0.01377   1.61112
   A20        2.12900  -0.00411   0.00000  -0.01064  -0.01068   2.11832
   A21        2.24026  -0.00387   0.00000  -0.01004  -0.01008   2.23018
   A22        1.91326   0.00804   0.00000   0.02108   0.02110   1.93436
   A23        1.61942  -0.00627   0.00000  -0.01262  -0.01227   1.60715
   A24        1.96101  -0.01071   0.00000  -0.02305  -0.02385   1.93716
   A25        2.23884   0.00820   0.00000   0.03889   0.03713   2.27597
   A26        1.96568   0.00624   0.00000   0.01628   0.01648   1.98216
   A27        1.96678   0.00770   0.00000   0.01900   0.01893   1.98571
   A28        1.96588  -0.01319   0.00000  -0.02896  -0.02968   1.93619
   A29        2.23730   0.00921   0.00000   0.04164   0.04000   2.27730
   A30        1.96360   0.00127   0.00000  -0.00421  -0.00372   1.95988
   A31        2.16106  -0.00462   0.00000  -0.01054  -0.01120   2.14986
   A32        2.14657   0.00394   0.00000   0.02112   0.02047   2.16704
   A33        1.59324   0.00070   0.00000   0.00401   0.00436   1.59760
   A34        1.96062   0.00155   0.00000   0.00292   0.00270   1.96332
   A35        2.13493  -0.00436   0.00000  -0.01159  -0.01239   2.12254
   A36        2.17054   0.00388   0.00000   0.01942   0.01874   2.18928
   A37        1.93904   0.00470   0.00000   0.00570   0.00610   1.94514
   A38        2.16527   0.00053   0.00000   0.01410   0.01276   2.17803
   A39        2.14191  -0.00333   0.00000  -0.00105  -0.00247   2.13944
    D1        0.00683  -0.00029   0.00000  -0.00472  -0.00478   0.00205
    D2       -3.13456  -0.00068   0.00000  -0.00921  -0.00934   3.13928
    D3       -3.13952   0.00022   0.00000   0.00160   0.00156  -3.13796
    D4        0.00227  -0.00018   0.00000  -0.00289  -0.00299  -0.00072
    D5       -0.00671   0.00079   0.00000   0.00829   0.00827   0.00156
    D6       -3.13020   0.00020   0.00000   0.00255   0.00255  -3.12765
    D7        3.13954   0.00030   0.00000   0.00214   0.00206   3.14159
    D8        0.01605  -0.00028   0.00000  -0.00360  -0.00366   0.01239
    D9       -0.00388  -0.00025   0.00000  -0.00068  -0.00070  -0.00458
   D10        3.11762   0.00001   0.00000  -0.00517  -0.00516   3.11246
   D11        3.13750   0.00017   0.00000   0.00416   0.00403   3.14153
   D12       -0.02418   0.00043   0.00000  -0.00033  -0.00043  -0.02461
   D13        0.03777  -0.00016   0.00000  -0.00097  -0.00096   0.03681
   D14       -2.04840  -0.00063   0.00000  -0.00385  -0.00382  -2.05222
   D15        2.11332   0.00079   0.00000   0.00474   0.00472   2.11804
   D16       -3.10360  -0.00061   0.00000  -0.00613  -0.00613  -3.10972
   D17        1.09342  -0.00108   0.00000  -0.00900  -0.00899   1.08443
   D18       -1.02805   0.00034   0.00000  -0.00042  -0.00045  -1.02850
   D19        0.00006   0.00063   0.00000   0.00465   0.00461   0.00466
   D20       -3.12486   0.00061   0.00000   0.00889   0.00892  -3.11593
   D21        0.87235  -0.00161   0.00000   0.00000  -0.00000   0.87235
   D22       -2.31281   0.00044   0.00000   0.01345   0.01347  -2.29934
   D23       -2.29075  -0.00132   0.00000  -0.00476  -0.00472  -2.29546
   D24        0.80728   0.00073   0.00000   0.00868   0.00876   0.81604
   D25        0.00376  -0.00081   0.00000  -0.00741  -0.00730  -0.00354
   D26        3.12751  -0.00010   0.00000  -0.00127  -0.00134   3.12617
   D27        3.13768   0.00080   0.00000   0.00602   0.00596  -3.13954
   D28        0.03236  -0.00069   0.00000  -0.00460  -0.00486   0.02750
   D29       -3.13875  -0.00120   0.00000  -0.00762  -0.00745   3.13698
   D30       -0.15871   0.00320   0.00000   0.03720   0.03708  -0.12164
   D31       -0.03639   0.00043   0.00000   0.00393   0.00429  -0.03210
   D32        2.94365   0.00483   0.00000   0.04875   0.04882   2.99247
   D33       -0.02070   0.00121   0.00000   0.00522   0.00517  -0.01553
   D34       -2.61594  -0.00768   0.00000  -0.06526  -0.06552  -2.68147
   D35        0.00298  -0.00078   0.00000  -0.00309  -0.00294   0.00004
   D36       -2.68841  -0.01030   0.00000  -0.07323  -0.07143  -2.75984
   D37        2.68687   0.00833   0.00000   0.06578   0.06449   2.75136
   D38       -0.00452  -0.00119   0.00000  -0.00436  -0.00400  -0.00852
   D39        2.61320   0.00569   0.00000   0.06522   0.06644   2.67964
   D40       -0.24549  -0.00090   0.00000  -0.00434  -0.00380  -0.24929
   D41        0.01913   0.00104   0.00000   0.00447   0.00418   0.02331
   D42       -2.83956  -0.00555   0.00000  -0.06509  -0.06606  -2.90562
   D43        0.02215   0.00026   0.00000  -0.00066  -0.00095   0.02121
   D44       -2.95943  -0.00319   0.00000  -0.04170  -0.04257  -3.00201
   D45        2.62742   0.00439   0.00000   0.05897   0.06031   2.68773
   D46       -0.35417   0.00095   0.00000   0.01793   0.01868  -0.33549
   D47       -0.00869   0.00105   0.00000   0.00279   0.00264  -0.00605
   D48       -2.61417  -0.00826   0.00000  -0.06870  -0.06873  -2.68291
   D49        0.01968  -0.00034   0.00000  -0.00000  -0.00006   0.01963
   D50        2.97157   0.00604   0.00000   0.06138   0.06071   3.03228
   D51       -0.02559  -0.00021   0.00000  -0.00226  -0.00199  -0.02758
   D52        2.83754   0.00698   0.00000   0.06906   0.06929   2.90683
   D53       -2.97293  -0.00568   0.00000  -0.06110  -0.06144  -3.03437
   D54       -0.10980   0.00151   0.00000   0.01023   0.00984  -0.09996
         Item               Value     Threshold  Converged?
 Maximum Force            0.070807     0.000450     NO 
 RMS     Force            0.014153     0.000300     NO 
 Maximum Displacement     0.304397     0.001800     NO 
 RMS     Displacement     0.089114     0.001200     NO 
 Predicted change in Energy=-3.363591D-02
 GradGradGradGradGradGradGradGradGradGradGradGradGradGradGradGradGradGrad

                          Input orientation:                          
 ---------------------------------------------------------------------
 Center     Atomic      Atomic             Coordinates (Angstroms)
 Number     Number       Type             X           Y           Z
 ---------------------------------------------------------------------
      1          6           0       -4.205361   -1.391127   -0.236581
      2          6           0       -2.887726   -1.006850   -0.606269
      3          6           0       -1.999053   -2.080626   -0.592301
      4          6           0       -2.537274    0.402701   -0.968597
      5          6           0       -4.329821   -2.735238    0.059386
      6          1           0       -5.040930   -0.707932   -0.188640
      7         16           0       -2.832986   -3.554442   -0.107333
      8          1           0       -5.238837   -3.240460    0.349651
      9          6           0       -0.593941   -2.159841   -0.922963
     10         16           0        0.576693   -1.023147   -0.243558
     11          6           0        1.883352   -1.766879   -1.087623
     12          6           0        1.435693   -2.858695   -1.844395
     13          6           0        0.038764   -3.092452   -1.741232
     14          1           0       -0.463730   -3.957149   -2.150852
     15         16           0        2.733660   -3.948422   -2.184086
     16          6           0        3.867871   -2.939248   -1.325502
     17          6           0        3.270028   -1.821026   -0.776339
     18          1           0        4.887156   -3.252418   -1.153859
     19          1           0        3.762420   -1.199254   -0.039683
     20          1           0       -3.407249    1.054253   -0.868077
     21          1           0       -2.188920    0.471395   -2.001539
     22          1           0       -1.755810    0.802857   -0.314605
 ---------------------------------------------------------------------
                    Distance matrix (angstroms):
                    1          2          3          4          5
     1  C    0.000000
     2  C    1.421443   0.000000
     3  C    2.338748   1.393891   0.000000
     4  C    2.556596   1.496975   2.568696   0.000000
     5  C    1.381926   2.347352   2.507129   3.757211   0.000000
     6  H    1.080384   2.213606   3.361585   2.847830   2.162675
     7  S    2.565161   2.596567   1.761468   4.060567   1.714470
     8  H    2.198129   3.380905   3.567729   4.723224   1.079728
     9  C    3.755582   2.586723   1.445667   3.216404   3.905495
    10  S    4.796197   3.483393   2.806128   3.500788   5.205470
    11  C    6.159375   4.855156   3.926430   4.925768   6.391938
    12  C    6.046513   4.863563   3.737728   5.214230   6.072955
    13  C    4.813635   3.768584   2.548830   4.410106   4.738604
    14  H    4.924297   4.118952   2.882297   4.970473   4.617887
    15  S    7.647389   6.537763   5.331136   6.942077   7.509844
    16  C    8.292135   7.063254   5.974580   7.233387   8.316351
    17  C    7.507169   6.213674   5.278681   6.221470   7.700125
    18  H    9.326289   8.111179   7.007732   8.277462   9.310859
    19  H    7.972523   6.677012   5.854637   6.566223   8.237319
    20  H    2.648708   2.141632   3.447686   1.091549   4.008936
    21  H    3.263450   2.149493   2.921441   1.092263   4.371884
    22  H    3.289370   2.154377   2.907018   1.094768   4.391300
                    6          7          8          9         10
     6  H    0.000000
     7  S    3.603366   0.000000
     8  H    2.596656   2.468915   0.000000
     9  C    4.735292   2.761066   4.935822   0.000000
    10  S    5.626728   4.248755   6.252101   1.767498   0.000000
    11  C    7.062240   5.138112   7.413688   2.513666   1.724222
    12  C    7.022390   4.660801   7.036258   2.335990   2.582595
    13  C    5.822351   3.336166   5.678624   1.392710   2.610444
    14  H    5.946297   3.154602   5.437629   2.180592   3.650838
    15  S    8.656029   5.954466   8.395341   3.982761   4.120120
    16  C    9.254078   6.838412   9.264394   4.547227   3.959027
    17  C    8.405736   6.379583   8.699622   3.881565   2.859111
    18  H   10.294316   7.796603  10.237012   5.593698   4.937447
    19  H    8.818308   7.003632   9.238004   4.547614   3.197097
    20  H    2.497167   4.706227   4.825156   4.271782   4.536233
    21  H    3.579299   4.495576   5.348641   3.260474   3.601773
    22  H    3.618061   4.493253   5.377836   3.240003   2.963091
                   11         12         13         14         15
    11  C    0.000000
    12  C    1.401843   0.000000
    13  C    2.363653   1.420104   0.000000
    14  H    3.381794   2.215474   1.080735   0.000000
    15  S    2.585417   1.728471   2.862039   3.197575   0.000000
    16  C    2.317185   2.488218   3.854654   4.525493   1.744142
    17  C    1.422216   2.362686   3.603971   4.515889   2.606771
    18  H    3.351723   3.541815   4.886461   5.488407   2.486630
    19  H    2.225146   3.379999   4.510552   5.470225   3.635208
    20  H    5.999788   6.302257   5.461920   5.951803   8.029284
    21  H    4.735876   4.924634   4.210861   4.755058   6.618150
    22  H    4.521571   5.092436   4.519866   5.262977   6.798893
                   16         17         18         19         20
    16  C    0.000000
    17  C    1.381816   0.000000
    18  H    1.080037   2.192375   0.000000
    19  H    2.166110   1.082457   2.592664   0.000000
    20  H    8.311718   7.270603   9.350200   7.560998   0.000000
    21  H    6.983855   6.046191   8.040908   6.485244   1.763175
    22  H    6.830157   5.688322   7.828064   5.876639   1.759768
                   21         22
    21  H    0.000000
    22  H    1.772906   0.000000
 Stoichiometry    C11H8S3
 Framework group  C1[X(C11H8S3)]
 Deg. of freedom    60
 Full point group                 C1      NOp   1
 Largest Abelian subgroup         C1      NOp   1
 Largest concise Abelian subgroup C1      NOp   1
                         Standard orientation:                         
 ---------------------------------------------------------------------
 Center     Atomic      Atomic             Coordinates (Angstroms)
 Number     Number       Type             X           Y           Z
 ---------------------------------------------------------------------
      1          6           0        4.031064    0.200996    0.146751
      2          6           0        2.746246    0.774837    0.347870
      3          6           0        1.715829   -0.106768    0.025465
      4          6           0        2.564163    2.171030    0.856224
      5          6           0        3.992150   -1.097587   -0.324299
      6          1           0        4.959133    0.718846    0.341040
      7         16           0        2.379190   -1.640228   -0.532409
      8          1           0        4.846701   -1.723464   -0.533661
      9          6           0        0.279359    0.035799    0.104086
     10         16           0       -0.544458    1.442303   -0.579377
     11          6           0       -2.088920    0.856889   -0.084537
     12          6           0       -1.972981   -0.381595    0.561900
     13          6           0       -0.637527   -0.855234    0.656374
     14          1           0       -0.366544   -1.840650    1.007815
     15         16           0       -3.469258   -1.245598    0.514294
     16          6           0       -4.244397    0.051287   -0.357072
     17          6           0       -3.382341    1.097525   -0.624772
     18          1           0       -5.249727   -0.045347   -0.739763
     19          1           0       -3.620731    1.883355   -1.330007
     20          1           0        3.530422    2.657967    1.000158
     21          1           0        2.042691    2.178442    1.815938
     22          1           0        1.994589    2.784155    0.150406
 ---------------------------------------------------------------------
 Rotational constants (GHZ):           1.2381082           0.2810479           0.2430045
 Standard basis: 6-311+G(d,p) (5D, 7F)
 There are   394 symmetry adapted cartesian basis functions of A   symmetry.
 There are   380 symmetry adapted basis functions of A   symmetry.
   380 basis functions,   610 primitive gaussians,   394 cartesian basis functions
    61 alpha electrons       61 beta electrons
       nuclear repulsion energy      1123.8516677719 Hartrees.
 NAtoms=   22 NActive=   22 NUniq=   22 SFac= 1.00D+00 NAtFMM=   60 NAOKFM=F Big=F
 Integral buffers will be    131072 words long.
 Raffenetti 2 integral format.
 Two-electron integral symmetry is turned on.
 Nuclear repulsion after empirical dispersion term =     1123.8392462099 Hartrees.
 One-electron integrals computed using PRISM.
 NBasis=   380 RedAO= T EigKep=  2.51D-06  NBF=   380
 NBsUse=   378 1.00D-06 EigRej=  9.87D-07 NBFU=   378
 Initial guess from the checkpoint file:  "/tmp/pbs.4762230[225].pbs/Gau-1233540.chk"
 B after Tr=     0.000000   -0.000000    0.000000
         Rot=    0.999981   -0.000776    0.001374   -0.005958 Ang=  -0.71 deg.
 ExpMin= 4.05D-02 ExpMax= 9.34D+04 ExpMxC= 3.17D+03 IAcc=3 IRadAn=         5 AccDes= 0.00D+00
 Harris functional with IExCor= 4639 and IRadAn=       5 diagonalized for initial guess.
 HarFok:  IExCor= 4639 AccDes= 0.00D+00 IRadAn=         5 IDoV= 1 UseB2=F ITyADJ=14
 ICtDFT=  3500011 ScaDFX=  1.000000  1.000000  1.000000  1.000000
 FoFCou: FMM=F IPFlag=           0 FMFlag=      100000 FMFlg1=           0
         NFxFlg=           0 DoJE=T BraDBF=F KetDBF=T FulRan=T
         wScrn=  0.000000 ICntrl=       500 IOpCl=  0 I1Cent=   200000004 NGrid=           0
         NMat0=    1 NMatS0=      1 NMatT0=    0 NMatD0=    1 NMtDS0=    0 NMtDT0=    0
 Petite list used in FoFCou.
 Requested convergence on RMS density matrix=1.00D-08 within 128 cycles.
 Requested convergence on MAX density matrix=1.00D-06.
 Requested convergence on             energy=1.00D-06.
 No special actions if energy rises.
 SCF Done:  E(RwB97XD) =  -1618.49455965     A.U. after   16 cycles
            NFock= 16  Conv=0.45D-08     -V/T= 2.0022
 Calling FoFJK, ICntrl=      2127 FMM=F ISym2X=0 I1Cent= 0 IOpClX= 0 NMat=1 NMatS=1 NMatT=0.
 ***** Axes restored to original set *****
 -------------------------------------------------------------------
 Center     Atomic                   Forces (Hartrees/Bohr)
 Number     Number              X              Y              Z
 -------------------------------------------------------------------
      1        6           0.000507245   -0.021702585    0.004969395
      2        6           0.010013045   -0.012041765    0.002456741
      3        6          -0.025852098    0.001978453    0.004016472
      4        6           0.002434907    0.003617488    0.000620046
      5        6           0.001919740    0.020111096   -0.005874279
      6        1          -0.000392853    0.001787963   -0.000324584
      7       16           0.002852942    0.007952903   -0.001643155
      8        1           0.001894437   -0.002817846    0.000382035
      9        6           0.022618122   -0.008567626   -0.015640411
     10       16          -0.008930092    0.002238389   -0.005525997
     11        6          -0.002321135   -0.018291191    0.000401775
     12        6           0.001664451    0.005666972    0.018408768
     13        6          -0.009716093    0.014513372    0.013287824
     14        1          -0.002731390    0.002484600   -0.003821850
     15       16           0.008497481    0.003662572   -0.004200642
     16        6          -0.014228015    0.016010263    0.010085264
     17        6           0.009099977   -0.019084291   -0.004129935
     18        1           0.000375947   -0.000802409   -0.005278638
     19        1           0.001429014    0.004017417   -0.005500074
     20        1          -0.000641163   -0.000836278   -0.000152766
     21        1           0.001976548    0.000260335   -0.000178754
     22        1          -0.000471016   -0.000157830   -0.002357235
 -------------------------------------------------------------------
 Cartesian Forces:  Max     0.025852098 RMS     0.009021336

 GradGradGradGradGradGradGradGradGradGradGradGradGradGradGradGradGradGrad
 Berny optimization.
 Using GEDIIS/GDIIS optimizer.
 FormGI is forming the generalized inverse of G from B-inverse, IUseBI=4.
 Internal  Forces:  Max     0.022993896 RMS     0.004687049
 Search for a local minimum.
 Step number   2 out of a maximum of  127
 All quantities printed in internal units (Hartrees-Bohrs-Radians)
 Mixed Optimization -- RFO/linear search
 Update second derivatives using D2CorX and points    1    2
 DE= -3.42D-02 DEPred=-3.36D-02 R= 1.02D+00
 TightC=F SS=  1.41D+00  RLast= 3.73D-01 DXNew= 5.0454D-01 1.1198D+00
 Trust test= 1.02D+00 RLast= 3.73D-01 DXMaxT set to 5.05D-01
 ITU=  1  0
 Use linear search instead of GDIIS.
     Eigenvalues ---    0.00935   0.00981   0.01049   0.01210   0.01241
     Eigenvalues ---    0.01276   0.01295   0.01383   0.01462   0.01478
     Eigenvalues ---    0.01500   0.01586   0.01592   0.01709   0.02021
     Eigenvalues ---    0.02305   0.07234   0.07370   0.15489   0.15744
     Eigenvalues ---    0.15856   0.15960   0.16000   0.16000   0.16000
     Eigenvalues ---    0.16019   0.18902   0.22464   0.22547   0.23466
     Eigenvalues ---    0.24275   0.24683   0.24968   0.24990   0.25094
     Eigenvalues ---    0.25814   0.26463   0.28359   0.30935   0.31002
     Eigenvalues ---    0.31414   0.33657   0.33810   0.34527   0.34599
     Eigenvalues ---    0.34935   0.35277   0.35698   0.35854   0.36006
     Eigenvalues ---    0.36088   0.36189   0.36203   0.37017   0.38228
     Eigenvalues ---    0.39002   0.39492   0.40452   0.429451000.00000
     Eigenvalues --- 1000.000001000.000001000.000001000.000001000.00000
     Eigenvalues --- 1000.000001000.000001000.000001000.000001000.00000
     Eigenvalues --- 1000.000001000.000001000.000001000.000001000.00000
     Eigenvalues --- 1000.000001000.000001000.000001000.000001000.00000
     Eigenvalues --- 1000.000001000.000001000.000001000.000001000.00000
     Eigenvalues --- 1000.000001000.000001000.000001000.000001000.00000
     Eigenvalues --- 1000.000001000.000001000.000001000.000001000.00000
     Eigenvalues --- 1000.000001000.000001000.000001000.000001000.00000
     Eigenvalues --- 1000.000001000.000001000.000001000.000001000.00000
     Eigenvalues --- 1000.000001000.000001000.000001000.000001000.00000
     Eigenvalues --- 1000.000001000.000001000.000001000.000001000.00000
     Eigenvalues --- 1000.000001000.00000
 RFO step:  Lambda=-7.17475153D-03 EMin= 9.34976586D-03
 Quartic linear search produced a step of  0.44645.
 Iteration  1 RMS(Cart)=  0.09599776 RMS(Int)=  0.00680354
 Iteration  2 RMS(Cart)=  0.00911819 RMS(Int)=  0.00231099
 Iteration  3 RMS(Cart)=  0.00004385 RMS(Int)=  0.00231065
 Iteration  4 RMS(Cart)=  0.00000004 RMS(Int)=  0.00231065
 Iteration  1 RMS(Cart)=  0.00003448 RMS(Int)=  0.00001431
 Iteration  2 RMS(Cart)=  0.00001890 RMS(Int)=  0.00001598
 Iteration  3 RMS(Cart)=  0.00001036 RMS(Int)=  0.00001807
 Iteration  4 RMS(Cart)=  0.00000568 RMS(Int)=  0.00001945
 Iteration  5 RMS(Cart)=  0.00000312 RMS(Int)=  0.00002026
 Iteration  6 RMS(Cart)=  0.00000171 RMS(Int)=  0.00002072
 Iteration  7 RMS(Cart)=  0.00000094 RMS(Int)=  0.00002098
 Variable       Old X    -DE/DX   Delta X   Delta X   Delta X     New X
                                 (Linear)    (Quad)   (Total)
    R1        2.68614   0.00041  -0.01475   0.02147   0.00674   2.69288
    R2        2.61146  -0.01768  -0.04574   0.00160  -0.04421   2.56726
    R3        2.04163   0.00142   0.00165   0.00313   0.00479   2.04642
    R4        2.63407  -0.01792  -0.05580   0.01124  -0.04447   2.58960
    R5        2.82887   0.00399   0.00824   0.00459   0.01283   2.84170
    R6        3.32869  -0.01051  -0.02995  -0.00852  -0.03842   3.29027
    R7        2.73191   0.00593  -0.00787   0.03321   0.02534   2.75726
    R8        2.06273  -0.00000  -0.00074   0.00106   0.00032   2.06305
    R9        2.06408   0.00082   0.00280  -0.00075   0.00205   2.06613
   R10        2.06881  -0.00180  -0.00338  -0.00257  -0.00595   2.06286
   R11        3.23988  -0.00312  -0.02091   0.01727  -0.00371   3.23617
   R12        2.04039  -0.00017  -0.00015  -0.00046  -0.00061   2.03978
   R13        3.34009  -0.00682  -0.01904   0.00314  -0.01853   3.32155
   R14        2.63184  -0.02299  -0.06049   0.00161  -0.06052   2.57133
   R15        3.25831   0.00251  -0.00508   0.01669   0.01226   3.27057
   R16        2.64910  -0.01260  -0.03304  -0.01045  -0.03881   2.61029
   R17        2.68760   0.00181  -0.00320   0.00709   0.00550   2.69310
   R18        2.68361   0.00079  -0.01062   0.01402   0.00480   2.68841
   R19        3.26634   0.00206  -0.00352   0.01332   0.00967   3.27601
   R20        2.04229   0.00073   0.00197   0.00002   0.00199   2.04428
   R21        3.29595  -0.00592  -0.01715   0.00525  -0.01406   3.28189
   R22        2.61125  -0.01998  -0.05283   0.00527  -0.04833   2.56293
   R23        2.04097  -0.00025  -0.00095   0.00038  -0.00057   2.04040
   R24        2.04555  -0.00078  -0.00301   0.00120  -0.00181   2.04374
    A1        1.98464   0.00058   0.00645  -0.00876  -0.00236   1.98228
    A2        2.16217  -0.00152  -0.00497  -0.00293  -0.00788   2.15429
    A3        2.13637   0.00093  -0.00147   0.01169   0.01023   2.14660
    A4        1.96073  -0.00154  -0.00498  -0.00202  -0.00698   1.95375
    A5        2.13473   0.00371   0.01593  -0.00365   0.01212   2.14685
    A6        2.18772  -0.00218  -0.01096   0.00557  -0.00554   2.18218
    A7        1.92353   0.00346   0.00854   0.00659   0.01527   1.93881
    A8        2.29106  -0.00438  -0.01243  -0.00528  -0.01780   2.27326
    A9        2.06835   0.00093   0.00385  -0.00118   0.00260   2.07095
   A10        1.93175  -0.00134  -0.00613   0.00161  -0.00451   1.92725
   A11        1.94204   0.00039   0.00355  -0.00471  -0.00115   1.94089
   A12        1.94624   0.00148   0.00577   0.00186   0.00764   1.95389
   A13        1.87941   0.00068   0.00237   0.00231   0.00469   1.88410
   A14        1.87101   0.00054   0.00221   0.00383   0.00605   1.87707
   A15        1.89051  -0.00178  -0.00802  -0.00469  -0.01271   1.87779
   A16        1.94474   0.00011  -0.00386   0.00658   0.00256   1.94730
   A17        2.20001   0.00342   0.01081   0.01054   0.02139   2.22140
   A18        2.13837  -0.00353  -0.00691  -0.01702  -0.02389   2.11448
   A19        1.61112  -0.00261  -0.00615  -0.00243  -0.00862   1.60250
   A20        2.11832  -0.00170  -0.00477  -0.00295  -0.00771   2.11060
   A21        2.23018  -0.00184  -0.00450  -0.00411  -0.00860   2.22158
   A22        1.93436   0.00356   0.00942   0.00737   0.01662   1.95097
   A23        1.60715  -0.00247  -0.00548  -0.00962  -0.01295   1.59419
   A24        1.93716  -0.00280  -0.01065   0.01014  -0.00305   1.93410
   A25        2.27597   0.00449   0.01657   0.04671   0.05246   2.32843
   A26        1.98216   0.00082   0.00736  -0.00307   0.00354   1.98570
   A27        1.98571   0.00054   0.00845  -0.00564   0.00174   1.98745
   A28        1.93619  -0.00268  -0.01325   0.01574  -0.00037   1.93582
   A29        2.27730   0.00464   0.01786   0.04419   0.05109   2.32839
   A30        1.95988   0.00119  -0.00166  -0.00179  -0.00193   1.95795
   A31        2.14986  -0.00182  -0.00500   0.00614  -0.00275   2.14710
   A32        2.16704   0.00100   0.00914   0.00584   0.01108   2.17812
   A33        1.59760  -0.00160   0.00195  -0.01818  -0.01328   1.58432
   A34        1.96332   0.00261   0.00120   0.01658   0.01633   1.97964
   A35        2.12254  -0.00450  -0.00553  -0.01876  -0.02898   2.09356
   A36        2.18928   0.00247   0.00837   0.01697   0.02058   2.20986
   A37        1.94514   0.00087   0.00272  -0.01040  -0.00592   1.93922
   A38        2.17803  -0.00025   0.00570   0.00860   0.00758   2.18561
   A39        2.13944   0.00041  -0.00110   0.02504   0.01731   2.15675
    D1        0.00205  -0.00009  -0.00213   0.00607   0.00383   0.00589
    D2        3.13928  -0.00059  -0.00417  -0.01682  -0.02120   3.11808
    D3       -3.13796   0.00019   0.00070   0.00778   0.00839  -3.12957
    D4       -0.00072  -0.00031  -0.00134  -0.01511  -0.01664  -0.01737
    D5        0.00156   0.00036   0.00369   0.00005   0.00370   0.00526
    D6       -3.12765  -0.00003   0.00114  -0.00898  -0.00791  -3.13556
    D7        3.14159   0.00009   0.00092  -0.00164  -0.00085   3.14074
    D8        0.01239  -0.00031  -0.00163  -0.01068  -0.01247  -0.00008
    D9       -0.00458  -0.00023  -0.00031  -0.00920  -0.00948  -0.01406
   D10        3.11246  -0.00007  -0.00230  -0.00245  -0.00475   3.10771
   D11        3.14153   0.00028   0.00180   0.01455   0.01611  -3.12555
   D12       -0.02461   0.00044  -0.00019   0.02130   0.02084  -0.00377
   D13        0.03681  -0.00022  -0.00043  -0.00784  -0.00823   0.02858
   D14       -2.05222  -0.00044  -0.00171  -0.00871  -0.01039  -2.06261
   D15        2.11804   0.00054   0.00211  -0.00074   0.00140   2.11944
   D16       -3.10972  -0.00078  -0.00273  -0.03382  -0.03659   3.13688
   D17        1.08443  -0.00101  -0.00401  -0.03470  -0.03874   1.04569
   D18       -1.02850  -0.00003  -0.00020  -0.02672  -0.02696  -1.05545
   D19        0.00466   0.00037   0.00206   0.00789   0.00988   0.01454
   D20       -3.11593   0.00032   0.00398   0.00220   0.00612  -3.10981
   D21        0.87235  -0.00071  -0.00000   0.00000   0.00000   0.87235
   D22       -2.29934   0.00058   0.00601   0.01488   0.02116  -2.27818
   D23       -2.29546  -0.00052  -0.00211   0.00729   0.00515  -2.29032
   D24        0.81604   0.00077   0.00391   0.02217   0.02631   0.84234
   D25       -0.00354  -0.00040  -0.00326  -0.00454  -0.00765  -0.01120
   D26        3.12617   0.00003  -0.00060   0.00434   0.00350   3.12967
   D27       -3.13954   0.00038   0.00266   0.00020   0.00259  -3.13695
   D28        0.02750  -0.00064  -0.00217  -0.01224  -0.01520   0.01230
   D29        3.13698  -0.00049  -0.00333   0.00082  -0.00206   3.13492
   D30       -0.12164   0.00302   0.01655   0.09375   0.11014  -0.01150
   D31       -0.03210   0.00063   0.00191   0.01429   0.01718  -0.01492
   D32        2.99247   0.00414   0.02179   0.10722   0.12938   3.12184
   D33       -0.01553   0.00059   0.00231   0.00681   0.00931  -0.00622
   D34       -2.68147  -0.00563  -0.02925  -0.12729  -0.15939  -2.84086
   D35        0.00004  -0.00021  -0.00131   0.00020  -0.00103  -0.00099
[...]
     16          6           0       -4.287645    0.177897   -0.096528
     17          6           0       -3.414694    1.106975   -0.568299
     18          1           0       -5.366295    0.222925   -0.115076
     19          1           0       -3.717378    2.034755   -1.032796
     20          1           0        3.123391    2.440314    1.732045
     21          1           0        1.391992    2.177729    1.482738
     22          1           0        2.366362    2.920967    0.212699
 ---------------------------------------------------------------------
 Rotational constants (GHZ):           1.2761369           0.2769742           0.2427259

 **********************************************************************

            Population analysis using the SCF Density.

 **********************************************************************

 Orbital symmetries:
       Occupied  (A) (A) (A) (A) (A) (A) (A) (A) (A) (A) (A) (A)
                 (A) (A) (A) (A) (A) (A) (A) (A) (A) (A) (A) (A)
                 (A) (A) (A) (A) (A) (A) (A) (A) (A) (A) (A) (A)
                 (A) (A) (A) (A) (A) (A) (A) (A) (A) (A) (A) (A)
                 (A) (A) (A) (A) (A) (A) (A) (A) (A) (A) (A) (A)
                 (A)
       Virtual   (A) (A) (A) (A) (A) (A) (A) (A) (A) (A) (A) (A)
                 (A) (A) (A) (A) (A) (A) (A) (A) (A) (A) (A) (A)
                 (A) (A) (A) (A) (A) (A) (A) (A) (A) (A) (A) (A)
                 (A) (A) (A) (A) (A) (A) (A) (A) (A) (A) (A) (A)
                 (A) (A) (A) (A) (A) (A) (A) (A) (A) (A) (A) (A)
                 (A) (A) (A) (A) (A) (A) (A) (A) (A) (A) (A) (A)
                 (A) (A) (A) (A) (A) (A) (A) (A) (A) (A) (A) (A)
                 (A) (A) (A) (A) (A) (A) (A) (A) (A) (A) (A) (A)
                 (A) (A) (A) (A) (A) (A) (A) (A) (A) (A) (A) (A)
                 (A) (A) (A) (A) (A) (A) (A) (A) (A) (A) (A) (A)
                 (A) (A) (A) (A) (A) (A) (A) (A) (A) (A) (A) (A)
                 (A) (A) (A) (A) (A) (A) (A) (A) (A) (A) (A) (A)
                 (A) (A) (A) (A) (A) (A) (A) (A) (A) (A) (A) (A)
                 (A) (A) (A) (A) (A) (A) (A) (A) (A) (A) (A) (A)
                 (A) (A) (A) (A) (A) (A) (A) (A) (A) (A) (A) (A)
                 (A) (A) (A) (A) (A) (A) (A) (A) (A) (A) (A) (A)
                 (A) (A) (A) (A) (A) (A) (A) (A) (A) (A) (A) (A)
                 (A) (A) (A) (A) (A) (A) (A) (A) (A) (A) (A) (A)
                 (A) (A) (A) (A) (A) (A) (A) (A) (A) (A) (A) (A)
                 (A) (A) (A) (A) (A) (A) (A) (A) (A) (A) (A) (A)
                 (A) (A) (A) (A) (A) (A) (A) (A) (A) (A) (A) (A)
                 (A) (A) (A) (A) (A) (A) (A) (A) (A) (A) (A) (A)
                 (A) (A) (A) (A) (A) (A) (A) (A) (A) (A) (A) (A)
                 (A) (A) (A) (A) (A) (A) (A) (A) (A) (A) (A) (A)
                 (A) (A) (A) (A) (A) (A) (A) (A) (A) (A) (A) (A)
                 (A) (A) (A) (A) (A) (A) (A) (A) (A) (A) (A) (A)
                 (A) (A) (A) (A) (A)
 The electronic state is 1-A.
 Alpha  occ. eigenvalues --  -89.05094 -89.05050 -89.04707 -10.33721 -10.32653
 Alpha  occ. eigenvalues --  -10.32438 -10.32375 -10.32359 -10.31701 -10.30554
 Alpha  occ. eigenvalues --  -10.30481 -10.30428 -10.29216 -10.28527  -8.09139
 Alpha  occ. eigenvalues --   -8.09097  -8.08790  -6.03988  -6.03951  -6.03618
 Alpha  occ. eigenvalues --   -6.03614  -6.03578  -6.03234  -6.03202  -6.03143
 Alpha  occ. eigenvalues --   -6.02897  -1.02241  -0.99675  -0.95305  -0.87573
 Alpha  occ. eigenvalues --   -0.87161  -0.85550  -0.81083  -0.80207  -0.77586
 Alpha  occ. eigenvalues --   -0.70585  -0.66833  -0.65989  -0.62798  -0.61071
 Alpha  occ. eigenvalues --   -0.58823  -0.58485  -0.52853  -0.52320  -0.52239
 Alpha  occ. eigenvalues --   -0.50580  -0.50092  -0.47982  -0.47500  -0.47089
 Alpha  occ. eigenvalues --   -0.46264  -0.45341  -0.44837  -0.42979  -0.42353
 Alpha  occ. eigenvalues --   -0.41925  -0.36998  -0.33384  -0.32614  -0.30833
 Alpha  occ. eigenvalues --   -0.28286
 Alpha virt. eigenvalues --    0.01218   0.05086   0.05550   0.05931   0.06531
 Alpha virt. eigenvalues --    0.06740   0.07194   0.07243   0.08159   0.08728
 Alpha virt. eigenvalues --    0.09095   0.09460   0.09657   0.09816   0.10675
 Alpha virt. eigenvalues --    0.10860   0.11059   0.11613   0.12214   0.12582
 Alpha virt. eigenvalues --    0.12876   0.13170   0.13767   0.14169   0.14373
 Alpha virt. eigenvalues --    0.14971   0.15607   0.15761   0.16516   0.17360
 Alpha virt. eigenvalues --    0.17542   0.17803   0.18729   0.18906   0.19488
 Alpha virt. eigenvalues --    0.19802   0.20027   0.20489   0.20988   0.21663
 Alpha virt. eigenvalues --    0.21848   0.22299   0.22595   0.23208   0.23436
 Alpha virt. eigenvalues --    0.23860   0.24209   0.24456   0.24702   0.24882
 Alpha virt. eigenvalues --    0.24996   0.25769   0.26462   0.26907   0.26992
 Alpha virt. eigenvalues --    0.27609   0.27733   0.28252   0.28510   0.28993
 Alpha virt. eigenvalues --    0.29590   0.29785   0.30056   0.31038   0.31143
 Alpha virt. eigenvalues --    0.31538   0.32293   0.32810   0.33328   0.33895
 Alpha virt. eigenvalues --    0.35370   0.36203   0.36562   0.37004   0.37930
 Alpha virt. eigenvalues --    0.38265   0.40270   0.40761   0.40979   0.41781
 Alpha virt. eigenvalues --    0.42403   0.43202   0.43594   0.45429   0.46201
 Alpha virt. eigenvalues --    0.47573   0.49701   0.50621   0.51026   0.52488
 Alpha virt. eigenvalues --    0.53007   0.54578   0.55066   0.57428   0.58152
 Alpha virt. eigenvalues --    0.58890   0.60226   0.61764   0.63330   0.63558
 Alpha virt. eigenvalues --    0.64522   0.64870   0.65905   0.66572   0.67221
 Alpha virt. eigenvalues --    0.67520   0.69242   0.70075   0.70504   0.71318
 Alpha virt. eigenvalues --    0.71851   0.73237   0.74193   0.74589   0.75403
 Alpha virt. eigenvalues --    0.77369   0.77533   0.78664   0.79349   0.80115
 Alpha virt. eigenvalues --    0.81001   0.81476   0.82475   0.83280   0.83843
 Alpha virt. eigenvalues --    0.84988   0.85445   0.85874   0.86689   0.87105
 Alpha virt. eigenvalues --    0.88115   0.89437   0.90640   0.90793   0.91498
 Alpha virt. eigenvalues --    0.91635   0.92417   0.93219   0.93983   0.95458
 Alpha virt. eigenvalues --    0.96530   0.97520   0.98221   0.98605   1.00959
 Alpha virt. eigenvalues --    1.02614   1.02941   1.04065   1.05249   1.06125
 Alpha virt. eigenvalues --    1.06258   1.07070   1.10544   1.11513   1.12383
 Alpha virt. eigenvalues --    1.12482   1.14063   1.14954   1.15798   1.16972
 Alpha virt. eigenvalues --    1.17144   1.19974   1.20903   1.22711   1.24655
 Alpha virt. eigenvalues --    1.27051   1.29633   1.30581   1.35869   1.42213
 Alpha virt. eigenvalues --    1.43113   1.44406   1.45146   1.46593   1.47376
 Alpha virt. eigenvalues --    1.51753   1.55926   1.56338   1.59951   1.62534
 Alpha virt. eigenvalues --    1.63811   1.64730   1.65651   1.67650   1.68038
 Alpha virt. eigenvalues --    1.68701   1.69081   1.69660   1.70919   1.73620
 Alpha virt. eigenvalues --    1.74822   1.77059   1.77919   1.80285   1.80838
 Alpha virt. eigenvalues --    1.82074   1.83694   1.83887   1.84787   1.86124
 Alpha virt. eigenvalues --    1.86745   1.89641   1.90645   1.92669   1.93469
 Alpha virt. eigenvalues --    1.95129   1.96759   1.98235   1.99788   2.00876
 Alpha virt. eigenvalues --    2.01991   2.04817   2.05791   2.07831   2.09214
 Alpha virt. eigenvalues --    2.11185   2.11505   2.13474   2.15344   2.16228
 Alpha virt. eigenvalues --    2.17466   2.18399   2.19808   2.20619   2.21496
 Alpha virt. eigenvalues --    2.22647   2.24147   2.25060   2.27576   2.28220
 Alpha virt. eigenvalues --    2.30095   2.34823   2.40100   2.42369   2.47036
 Alpha virt. eigenvalues --    2.50657   2.51970   2.53361   2.54751   2.57878
 Alpha virt. eigenvalues --    2.62222   2.63370   2.65672   2.69166   2.70740
 Alpha virt. eigenvalues --    2.72082   2.73629   2.76244   2.79722   2.81000
 Alpha virt. eigenvalues --    2.81567   2.82376   2.83674   2.84035   2.84808
 Alpha virt. eigenvalues --    2.87012   2.88977   2.94265   2.94720   2.99645
 Alpha virt. eigenvalues --    3.00343   3.02022   3.05486   3.06286   3.13173
 Alpha virt. eigenvalues --    3.14453   3.16657   3.17495   3.23240   3.25494
 Alpha virt. eigenvalues --    3.28644   3.32779   3.40564   3.40974   3.44123
 Alpha virt. eigenvalues --    3.45962   3.53608   3.54957   3.58199   3.63909
 Alpha virt. eigenvalues --    3.67873   3.80662   3.90692   3.92838   4.04898
 Alpha virt. eigenvalues --    4.08021   4.16530   4.23535   4.43960   4.46516
 Alpha virt. eigenvalues --    4.62862   8.10664   8.12167   8.12914  17.42226
 Alpha virt. eigenvalues --   17.43776  17.45103  17.59801  17.61553  17.65979
 Alpha virt. eigenvalues --   17.66507  17.69193  17.71534  23.60746  23.77206
 Alpha virt. eigenvalues --   23.90834  23.94579  23.98128  24.09156  24.17500
 Alpha virt. eigenvalues --   24.23128  24.28152  24.29982  24.30277 189.35806
 Alpha virt. eigenvalues --  189.37515 189.38739
          Condensed to atoms (all electrons):
               1          2          3          4          5          6
     1  C   11.418807  -4.320327   1.078162  -1.489655  -0.473444   0.353060
     2  C   -4.320327  17.522047  -4.503794  -0.300964   1.564734  -0.025850
     3  C    1.078162  -4.503794  11.141079  -0.319566  -0.933427   0.019535
     4  C   -1.489655  -0.300964  -0.319566   7.863376  -0.144833   0.008246
     5  C   -0.473444   1.564734  -0.933427  -0.144833   5.998304  -0.005916
     6  H    0.353060  -0.025850   0.019535   0.008246  -0.005916   0.498068
     7  S   -1.201692   0.173168  -0.961741   0.787769   0.163959   0.008302
     8  H    0.048940  -0.050092   0.024872  -0.000958   0.375497  -0.004120
     9  C    0.344645  -1.974539   1.229106  -0.441338  -0.246070  -0.002883
    10  S   -0.230865   1.579741   0.073782   0.109670   0.117807   0.000609
    11  C    0.166547  -0.742742  -0.402692  -0.079243  -0.065904  -0.000324
    12  C   -0.594400   1.593589   0.741452   0.406772   0.172113   0.000123
    13  C    0.871188  -3.684782  -1.586720  -0.563914  -0.355741  -0.000715
    14  H   -0.006951   0.025436   0.038894   0.002873   0.004625   0.000002
    15  S   -0.004617  -0.035138   0.002794   0.002369   0.000241  -0.000001
    16  C   -0.007635   0.061341   0.037556   0.008668   0.002875   0.000001
    17  C    0.062862  -0.502881  -0.127843  -0.109131  -0.022197  -0.000026
    18  H    0.000001  -0.000043  -0.000303  -0.000004  -0.000001   0.000000
    19  H    0.000001   0.000292  -0.000442   0.000021   0.000004   0.000000
    20  H    0.068934  -0.050506  -0.046308   0.392987   0.020603   0.000476
    21  H   -0.051791  -0.082791   0.060900   0.424275  -0.003504   0.000102
    22  H    0.009086   0.024357  -0.035910   0.363991   0.001358   0.000209
               7          8          9         10         11         12
     1  C   -1.201692   0.048940   0.344645  -0.230865   0.166547  -0.594400
     2  C    0.173168  -0.050092  -1.974539   1.579741  -0.742742   1.593589
     3  C   -0.961741   0.024872   1.229106   0.073782  -0.402692   0.741452
     4  C    0.787769  -0.000958  -0.441338   0.109670  -0.079243   0.406772
     5  C    0.163959   0.375497  -0.246070   0.117807  -0.065904   0.172113
     6  H    0.008302  -0.004120  -0.002883   0.000609  -0.000324   0.000123
     7  S   17.560569  -0.024956  -0.279739  -0.058133  -0.012217   0.302411
     8  H   -0.024956   0.448916  -0.002945  -0.000123   0.000019  -0.000651
     9  C   -0.279739  -0.002945  10.620082   0.070621  -0.751603  -1.658882
    10  S   -0.058133  -0.000123   0.070621  18.242833  -0.186968   1.522891
    11  C   -0.012217   0.000019  -0.751603  -0.186968  18.420477  -4.518767
    12  C    0.302411  -0.000651  -1.658882   1.522891  -4.518767  17.616996
    13  C   -0.139845  -0.000733  -0.658299  -3.523128  -0.352532  -8.041949
    14  H   -0.002891  -0.000004  -0.003989   0.012254  -0.053715   0.109619
    15  S    0.002878   0.000000  -0.718112   0.154622   0.370957  -0.351723
    16  C   -0.001888  -0.000001  -0.028158   0.241127   1.572050  -0.331766
    17  C    0.013935   0.000002  -0.156836  -1.568535  -7.736072  -0.283010
    18  H    0.000010   0.000000   0.002857  -0.001189  -0.013897   0.029145
    19  H   -0.000016   0.000000  -0.005142   0.014277   0.030559  -0.050091
    20  H   -0.003306  -0.000013  -0.014298   0.003550   0.000024   0.000158
    21  H    0.004198   0.000009   0.032947   0.014633  -0.008476  -0.008474
    22  H   -0.000533  -0.000004  -0.000341  -0.003554  -0.006055   0.005670
              13         14         15         16         17         18
     1  C    0.871188  -0.006951  -0.004617  -0.007635   0.062862   0.000001
     2  C   -3.684782   0.025436  -0.035138   0.061341  -0.502881  -0.000043
     3  C   -1.586720   0.038894   0.002794   0.037556  -0.127843  -0.000303
     4  C   -0.563914   0.002873   0.002369   0.008668  -0.109131  -0.000004
     5  C   -0.355741   0.004625   0.000241   0.002875  -0.022197  -0.000001
     6  H   -0.000715   0.000002  -0.000001   0.000001  -0.000026   0.000000
     7  S   -0.139845  -0.002891   0.002878  -0.001888   0.013935   0.000010
     8  H   -0.000733  -0.000004   0.000000  -0.000001   0.000002   0.000000
     9  C   -0.658299  -0.003989  -0.718112  -0.028158  -0.156836   0.002857
    10  S   -3.523128   0.012254   0.154622   0.241127  -1.568535  -0.001189
    11  C   -0.352532  -0.053715   0.370957   1.572050  -7.736072  -0.013897
    12  C   -8.041949   0.109619  -0.351723  -0.331766  -0.283010   0.029145
    13  C   21.051287   0.218509  -0.640255  -0.869480   3.600554   0.009590
    14  H    0.218509   0.472529   0.007841   0.001758   0.000387  -0.000004
    15  S   -0.640255   0.007841  17.504779   0.486074  -0.314410  -0.043306
    16  C   -0.869480   0.001758   0.486074   5.850096  -1.209364   0.371533
    17  C    3.600554   0.000387  -0.314410  -1.209364  13.950793   0.013166
    18  H    0.009590  -0.000004  -0.043306   0.371533   0.013166   0.442695
    19  H   -0.003799   0.000003   0.007965   0.030953   0.335789  -0.003669
    20  H   -0.007206  -0.000003  -0.000036   0.000034  -0.000116   0.000000
    21  H   -0.016660  -0.000025  -0.000179  -0.000358   0.001689  -0.000000
    22  H    0.005192   0.000010   0.000086  -0.000000  -0.000653  -0.000000
              19         20         21         22
     1  C    0.000001   0.068934  -0.051791   0.009086
     2  C    0.000292  -0.050506  -0.082791   0.024357
     3  C   -0.000442  -0.046308   0.060900  -0.035910
     4  C    0.000021   0.392987   0.424275   0.363991
     5  C    0.000004   0.020603  -0.003504   0.001358
     6  H    0.000000   0.000476   0.000102   0.000209
     7  S   -0.000016  -0.003306   0.004198  -0.000533
     8  H    0.000000  -0.000013   0.000009  -0.000004
     9  C   -0.005142  -0.014298   0.032947  -0.000341
    10  S    0.014277   0.003550   0.014633  -0.003554
    11  C    0.030559   0.000024  -0.008476  -0.006055
    12  C   -0.050091   0.000158  -0.008474   0.005670
    13  C   -0.003799  -0.007206  -0.016660   0.005192
    14  H    0.000003  -0.000003  -0.000025   0.000010
    15  S    0.007965  -0.000036  -0.000179   0.000086
    16  C    0.030953   0.000034  -0.000358  -0.000000
    17  C    0.335789  -0.000116   0.001689  -0.000653
    18  H   -0.003669   0.000000  -0.000000  -0.000000
    19  H    0.481099   0.000000  -0.000002   0.000000
    20  H    0.000000   0.522995  -0.022728  -0.025208
    21  H   -0.000002  -0.022728   0.500537  -0.026037
    22  H    0.000000  -0.025208  -0.026037   0.492141
 Mulliken charges:
               1
     1  C   -0.040856
     2  C   -0.270257
     3  C    0.470613
     4  C   -0.921410
     5  C   -0.171083
     6  H    0.151101
     7  S   -0.330241
     8  H    0.186345
     9  C    0.642915
    10  S   -0.585921
    11  C    0.370572
    12  C   -0.661225
    13  C    0.689437
    14  H    0.172842
    15  S   -0.432829
    16  C   -0.215415
    17  C    0.051896
    18  H    0.193417
    19  H    0.162198
    20  H    0.159967
    21  H    0.181734
    22  H    0.196196
 Sum of Mulliken charges =  -0.00000
 Mulliken charges with hydrogens summed into heavy atoms:
               1
     1  C    0.110245
     2  C   -0.270257
     3  C    0.470613
     4  C   -0.383512
     5  C    0.015263
     7  S   -0.330241
     9  C    0.642915
    10  S   -0.585921
    11  C    0.370572
    12  C   -0.661225
    13  C    0.862279
    15  S   -0.432829
    16  C   -0.021999
    17  C    0.214094
 Electronic spatial extent (au):  <R**2>=           4319.1986
 Charge=              0.0000 electrons
 Dipole moment (field-independent basis, Debye):
    X=              0.3313    Y=              0.8597    Z=              0.3859  Tot=              0.9989
 Quadrupole moment (field-independent basis, Debye-Ang):
   XX=            -86.4638   YY=            -98.3146   ZZ=           -106.7679
   XY=             -2.0233   XZ=              2.4533   YZ=             -0.9771
 Traceless Quadrupole moment (field-independent basis, Debye-Ang):
   XX=             10.7183   YY=             -1.1325   ZZ=             -9.5858
   XY=             -2.0233   XZ=              2.4533   YZ=             -0.9771
 Octapole moment (field-independent basis, Debye-Ang**2):
  XXX=             -3.3437  YYY=              2.7139  ZZZ=              1.2448  XYY=              6.7136
  XXY=              9.4473  XXZ=             -4.7141  XZZ=              0.6864  YZZ=              2.1565
  YYZ=             -0.7881  XYZ=             14.8544
 Hexadecapole moment (field-independent basis, Debye-Ang**3):
 XXXX=          -4103.1818 YYYY=           -971.0325 ZZZZ=           -327.1697 XXXY=            -81.2452
 XXXZ=             24.2429 YYYX=            -15.7433 YYYZ=            -12.8932 ZZZX=              0.3346
 ZZZY=              0.9706 XXYY=           -903.2057 XXZZ=           -896.2758 YYZZ=           -211.2561
 XXYZ=             10.2027 YYXZ=              7.0161 ZZXY=              3.0986
 N-N= 1.126255684885D+03 E-N=-6.076994375142D+03  KE= 1.615205014742D+03
 Unable to Open any file for archive entry.
 1\1\GINC-CX3-6-16\FOpt\RwB97XD\6-311+G(d,p)\C11H8S3\NS5018\26-Oct-2021
 \0\\# opt=modredundant wb97xd/6-311+g(d,p)\\pBTTT_50.pdb\\0,1\C,-4.221
 3152506,-1.3413120265,-0.277370036\C,-2.8644431526,-1.0301064972,-0.59
 49581053\C,-2.0625801042,-2.1428899051,-0.5438483223\C,-2.4120047856,0
 .3536512728,-0.9641956051\C,-4.4268129344,-2.6558327468,0.0036498737\H
 ,-5.0128480934,-0.6023480082,-0.2756320419\S,-2.9687870903,-3.55690128
 84,-0.0937925645\H,-5.3542166899,-3.1456744326,0.2596034474\C,-0.62886
 77446,-2.2688842918,-0.7923624836\S,0.5113117133,-1.1890909702,-0.0087
 056982\C,1.847134682,-1.9973303349,-0.7538551838\C,1.410657302,-3.0455
 377287,-1.5402438296\C,-0.0016842275,-3.2036022749,-1.5659925969\H,-0.
 5370978182,-3.952207723,-2.1337186292\S,2.7467181997,-3.8500474599,-2.
 2922120213\C,3.8647779341,-2.7586633375,-1.5331847673\C,3.2615611526,-
 1.8266708138,-0.7487631649\H,4.9224800211,-2.8768900339,-1.7152455099\
 H,3.7976219121,-1.0667455708,-0.1980326254\H,-3.2121595786,0.888239592
 3,-1.4809775166\H,-1.5394634194,0.329781402,-1.6190358875\H,-2.1459820
 277,0.9350631771,-0.0761267317\\Version=ES64L-G16RevC.01\State=1-A\HF=
 -1618.5091088\RMSD=5.562e-09\RMSF=1.794e-04\Dipole=-0.0898728,0.377328
 7,-0.0630745\Quadrupole=8.4292642,-1.5139347,-6.9153294,0.0110882,-0.6
 25301,1.626222\PG=C01 [X(C11H8S3)]\\@
 The archive entry for this job was punched.


 THE REAL VOYAGE OF DISCOVERY CONSISTS NOT IN SEEKING NEW LANDSCAPES 
 BUT IN HAVING NEW EYES.
                                                    -- MARCEL PROUST
 Job cpu time:       0 days  6 hours  6 minutes 45.0 seconds.
 Elapsed time:       0 days  0 hours 46 minutes 24.0 seconds.
 File lengths (MBytes):  RWF=     91 Int=      0 D2E=      0 Chk=     11 Scr=      1
 Normal termination of Gaussian 16 at Tue Oct 26 02:10:57 2021.
