 Entering Gaussian System, Link 0=g16
 Input=pBTTT_-120.gjf
 Output=pBTTT_-120.log
 Initial command:
 /apps/gaussian/g16-c01-avx/g16/l1.exe "/tmp/pbs.4762230[55].pbs/Gau-1529331.inp" -scrdir="/tmp/pbs.4762230[55].pbs/"
 Entering Link 1 = /apps/gaussian/g16-c01-avx/g16/l1.exe PID=   1529332.
  
 Copyright (c) 1988-2019, Gaussian, Inc.  All Rights Reserved.
  
 This is part of the Gaussian(R) 16 program.  It is based on
 the Gaussian(R) 09 system (copyright 2009, Gaussian, Inc.),
 the Gaussian(R) 03 system (copyright 2003, Gaussian, Inc.),
 the Gaussian(R) 98 system (copyright 1998, Gaussian, Inc.),
 the Gaussian(R) 94 system (copyright 1995, Gaussian, Inc.),
 the Gaussian 92(TM) system (copyright 1992, Gaussian, Inc.),
 the Gaussian 90(TM) system (copyright 1990, Gaussian, Inc.),
 the Gaussian 88(TM) system (copyright 1988, Gaussian, Inc.),
 the Gaussian 86(TM) system (copyright 1986, Carnegie Mellon
 University), and the Gaussian 82(TM) system (copyright 1983,
 Carnegie Mellon University). Gaussian is a federally registered
 trademark of Gaussian, Inc.
  
 This software contains proprietary and confidential information,
 including trade secrets, belonging to Gaussian, Inc.
  
 This software is provided under written license and may be
 used, copied, transmitted, or stored only in accord with that
 written license.
  
 The following legend is applicable only to US Government
 contracts under FAR:
  
                    RESTRICTED RIGHTS LEGEND
  
 Use, reproduction and disclosure by the US Government is
 subject to restrictions as set forth in subparagraphs (a)
 and (c) of the Commercial Computer Software - Restricted
 Rights clause in FAR 52.227-19.
  
 Gaussian, Inc.
 340 Quinnipiac St., Bldg. 40, Wallingford CT 06492
  
  
 ---------------------------------------------------------------
 Warning -- This program may not be used in any manner that
 competes with the business of Gaussian, Inc. or will provide
 assistance to any competitor of Gaussian, Inc.  The licensee
 of this program is prohibited from giving any competitor of
 Gaussian, Inc. access to this program.  By using this program,
 the user acknowledges that Gaussian, Inc. is engaged in the
 business of creating and licensing software in the field of
 computational chemistry and represents and warrants to the
 licensee that it is not a competitor of Gaussian, Inc. and that
 it will not use this program in any manner prohibited above.
 ---------------------------------------------------------------
  

 Cite this work as:
 Gaussian 16, Revision C.01,
 M. J. Frisch, G. W. Trucks, H. B. Schlegel, G. E. Scuseria, 
 M. A. Robb, J. R. Cheeseman, G. Scalmani, V. Barone, 
 G. A. Petersson, H. Nakatsuji, X. Li, M. Caricato, A. V. Marenich, 
 J. Bloino, B. G. Janesko, R. Gomperts, B. Mennucci, H. P. Hratchian, 
 J. V. Ortiz, A. F. Izmaylov, J. L. Sonnenberg, D. Williams-Young, 
 F. Ding, F. Lipparini, F. Egidi, J. Goings, B. Peng, A. Petrone, 
 T. Henderson, D. Ranasinghe, V. G. Zakrzewski, J. Gao, N. Rega, 
 G. Zheng, W. Liang, M. Hada, M. Ehara, K. Toyota, R. Fukuda, 
 J. Hasegawa, M. Ishida, T. Nakajima, Y. Honda, O. Kitao, H. Nakai, 
 T. Vreven, K. Throssell, J. A. Montgomery, Jr., J. E. Peralta, 
 F. Ogliaro, M. J. Bearpark, J. J. Heyd, E. N. Brothers, K. N. Kudin, 
 V. N. Staroverov, T. A. Keith, R. Kobayashi, J. Normand, 
 K. Raghavachari, A. P. Rendell, J. C. Burant, S. S. Iyengar, 
 J. Tomasi, M. Cossi, J. M. Millam, M. Klene, C. Adamo, R. Cammi, 
 J. W. Ochterski, R. L. Martin, K. Morokuma, O. Farkas, 
 J. B. Foresman, and D. J. Fox, Gaussian, Inc., Wallingford CT, 2019.
 
 ******************************************
 Gaussian 16:  ES64L-G16RevC.01  3-Jul-2019
                26-Oct-2021 
 ******************************************
 %mem=100GB
 %nprocshared=8
 Will use up to    8 processors via shared memory.
 --------------------------------------
 # opt=modredundant wb97xd/6-311+g(d,p)
 --------------------------------------
 1/18=120,19=15,26=3,38=1/1,3;
 2/9=110,12=2,17=6,18=5,40=1/2;
 3/5=4,6=6,7=111,11=2,25=1,30=1,71=1,74=-58/1,2,3;
 4//1;
 5/5=2,38=5/2;
 6/7=2,8=2,9=2,10=2,28=1/1;
 7//1,2,3,16;
 1/18=20,19=15,26=3/3(2);
 2/9=110/2;
 99//99;
 2/9=110/2;
 3/5=4,6=6,7=111,11=2,25=1,30=1,71=1,74=-58/1,2,3;
 4/5=5,16=3,69=1/1;
 5/5=2,38=5/2;
 7//1,2,3,16;
 1/18=20,19=15,26=3/3(-5);
 2/9=110/2;
 6/7=2,8=2,9=2,10=2,19=2,28=1/1;
 99/9=1/99;
 --------------
 pBTTT_-120.pdb
 --------------
 Symbolic Z-matrix:
 Charge =  0 Multiplicity = 1
 C                    -4.25     -1.36     -0.21 
 C                    -2.93     -0.95     -0.61 
 C                    -1.97     -2.05     -0.62 
 C                    -2.66      0.47     -0.96 
 C                    -4.33     -2.76      0.1 
 H                    -5.1      -0.7      -0.14 
 S                    -2.8      -3.56     -0.11 
 H                    -5.23     -3.27      0.41 
 C                    -0.56     -2.13     -0.97 
 S                     0.033    -3.196    -2.281 
 C                     1.677    -2.71     -2.046 
 C                     1.814    -1.723    -1.006 
 C                     0.561    -1.377    -0.404 
 H                     0.445    -0.545     0.273 
 S                     3.215    -0.725    -1.213 
 C                     3.669    -1.598    -2.679 
 C                     2.722    -2.636    -3.014 
 H                     4.457    -1.256    -3.335 
 H                     2.672    -3.089    -4. 
 H                    -3.55      1.09     -0.83 
 H                    -2.35      0.56     -2. 
 H                    -1.88      0.89     -0.31 
 
 The following ModRedundant input section has been read:
 D       2       3       9      10 F                                           
 

 GradGradGradGradGradGradGradGradGradGradGradGradGradGradGradGradGradGrad
 Berny optimization.
 Initialization pass.
                           ----------------------------
                           !    Initial Parameters    !
                           ! (Angstroms and Degrees)  !
 --------------------------                            --------------------------
 ! Name  Definition              Value          Derivative Info.                !
 --------------------------------------------------------------------------------
 ! R1    R(1,2)                  1.4389         estimate D2E/DX2                !
 ! R2    R(1,5)                  1.4361         estimate D2E/DX2                !
 ! R3    R(1,6)                  1.0784         estimate D2E/DX2                !
 ! R4    R(2,3)                  1.46           estimate D2E/DX2                !
 ! R5    R(2,4)                  1.4872         estimate D2E/DX2                !
 ! R6    R(3,7)                  1.797          estimate D2E/DX2                !
 ! R7    R(3,9)                  1.455          estimate D2E/DX2                !
 ! R8    R(4,20)                 1.0924         estimate D2E/DX2                !
 ! R9    R(4,21)                 1.0889         estimate D2E/DX2                !
 ! R10   R(4,22)                 1.0988         estimate D2E/DX2                !
 ! R11   R(5,7)                  1.7393         estimate D2E/DX2                !
 ! R12   R(5,8)                  1.0799         estimate D2E/DX2                !
 ! R13   R(9,10)                 1.7907         estimate D2E/DX2                !
 ! R14   R(9,13)                 1.4642         estimate D2E/DX2                !
 ! R15   R(10,11)                1.7304         estimate D2E/DX2                !
 ! R16   R(11,12)                1.4403         estimate D2E/DX2                !
 ! R17   R(11,17)                1.4264         estimate D2E/DX2                !
 ! R18   R(12,13)                1.4325         estimate D2E/DX2                !
 ! R19   R(12,15)                1.7325         estimate D2E/DX2                !
 ! R20   R(13,14)                1.0789         estimate D2E/DX2                !
 ! R21   R(15,16)                1.7656         estimate D2E/DX2                !
 ! R22   R(16,17)                1.4445         estimate D2E/DX2                !
 ! R23   R(16,18)                1.0809         estimate D2E/DX2                !
 ! R24   R(17,19)                1.0862         estimate D2E/DX2                !
 ! A1    A(2,1,5)              112.8843         estimate D2E/DX2                !
 ! A2    A(2,1,6)              124.5209         estimate D2E/DX2                !
 ! A3    A(5,1,6)              122.5942         estimate D2E/DX2                !
 ! A4    A(1,2,3)              112.9799         estimate D2E/DX2                !
 ! A5    A(1,2,4)              120.2665         estimate D2E/DX2                !
 ! A6    A(3,2,4)              126.7536         estimate D2E/DX2                !
 ! A7    A(2,3,7)              109.1138         estimate D2E/DX2                !
 ! A8    A(2,3,9)              132.8639         estimate D2E/DX2                !
 ! A9    A(7,3,9)              118.0132         estimate D2E/DX2                !
 ! A10   A(2,4,20)             111.468          estimate D2E/DX2                !
 ! A11   A(2,4,21)             110.8154         estimate D2E/DX2                !
 ! A12   A(2,4,22)             110.7706         estimate D2E/DX2                !
 ! A13   A(20,4,21)            107.3779         estimate D2E/DX2                !
 ! A14   A(20,4,22)            106.918          estimate D2E/DX2                !
 ! A15   A(21,4,22)            109.3476         estimate D2E/DX2                !
 ! A16   A(1,5,7)              111.9209         estimate D2E/DX2                !
 ! A17   A(1,5,8)              124.6643         estimate D2E/DX2                !
 ! A18   A(7,5,8)              123.4062         estimate D2E/DX2                !
 ! A19   A(3,7,5)               93.0997         estimate D2E/DX2                !
 ! A20   A(3,9,10)             121.9884         estimate D2E/DX2                !
 ! A21   A(3,9,13)             128.3636         estimate D2E/DX2                !
 ! A22   A(10,9,13)            109.6091         estimate D2E/DX2                !
 ! A23   A(9,10,11)             92.7512         estimate D2E/DX2                !
 ! A24   A(10,11,12)           112.3894         estimate D2E/DX2                !
 ! A25   A(10,11,17)           128.2044         estimate D2E/DX2                !
 ! A26   A(12,11,17)           112.6304         estimate D2E/DX2                !
 ! A27   A(11,12,13)           112.6904         estimate D2E/DX2                !
 ! A28   A(11,12,15)           112.6674         estimate D2E/DX2                !
 ! A29   A(13,12,15)           128.1981         estimate D2E/DX2                !
 ! A30   A(9,13,12)            112.5189         estimate D2E/DX2                !
 ! A31   A(9,13,14)            123.8362         estimate D2E/DX2                !
 ! A32   A(12,13,14)           122.9563         estimate D2E/DX2                !
 ! A33   A(12,15,16)            91.2787         estimate D2E/DX2                !
 ! A34   A(15,16,17)           112.2901         estimate D2E/DX2                !
 ! A35   A(15,16,18)           122.3405         estimate D2E/DX2                !
 ! A36   A(17,16,18)           124.374          estimate D2E/DX2                !
 ! A37   A(11,17,16)           111.1129         estimate D2E/DX2                !
 ! A38   A(11,17,19)           124.1017         estimate D2E/DX2                !
 ! A39   A(16,17,19)           122.7096         estimate D2E/DX2                !
 ! D1    D(5,1,2,3)              0.3915         estimate D2E/DX2                !
 ! D2    D(5,1,2,4)           -179.5973         estimate D2E/DX2                !
 ! D3    D(6,1,2,3)           -179.8811         estimate D2E/DX2                !
 ! D4    D(6,1,2,4)              0.13           estimate D2E/DX2                !
 ! D5    D(2,1,5,7)             -0.3845         estimate D2E/DX2                !
 ! D6    D(2,1,5,8)           -179.3471         estimate D2E/DX2                !
 ! D7    D(6,1,5,7)            179.8822         estimate D2E/DX2                !
 ! D8    D(6,1,5,8)              0.9196         estimate D2E/DX2                !
 ! D9    D(1,2,3,7)             -0.2224         estimate D2E/DX2                !
 ! D10   D(1,2,3,9)            178.6265         estimate D2E/DX2                !
 ! D11   D(4,2,3,7)            179.7656         estimate D2E/DX2                !
 ! D12   D(4,2,3,9)             -1.3855         estimate D2E/DX2                !
 ! D13   D(1,2,4,20)             2.1641         estimate D2E/DX2                !
 ! D14   D(1,2,4,21)          -117.3645         estimate D2E/DX2                !
 ! D15   D(1,2,4,22)           121.0843         estimate D2E/DX2                !
 ! D16   D(3,2,4,20)          -177.8231         estimate D2E/DX2                !
 ! D17   D(3,2,4,21)            62.6483         estimate D2E/DX2                !
 ! D18   D(3,2,4,22)           -58.9029         estimate D2E/DX2                !
 ! D19   D(2,3,7,5)              0.0033         estimate D2E/DX2                !
 ! D20   D(9,3,7,5)           -179.041          estimate D2E/DX2                !
 ! D21   D(2,3,9,10)          -120.0044         Frozen                          !
 ! D22   D(2,3,9,13)            57.4861         estimate D2E/DX2                !
 ! D23   D(7,3,9,10)            58.7635         estimate D2E/DX2                !
 ! D24   D(7,3,9,13)          -123.7459         estimate D2E/DX2                !
 ! D25   D(1,5,7,3)              0.2153         estimate D2E/DX2                !
 ! D26   D(8,5,7,3)            179.1932         estimate D2E/DX2                !
 ! D27   D(3,9,10,11)          179.7828         estimate D2E/DX2                !
 ! D28   D(13,9,10,11)           1.8713         estimate D2E/DX2                !
 ! D29   D(3,9,13,12)         -179.7985         estimate D2E/DX2                !
 ! D30   D(3,9,13,14)           -9.0795         estimate D2E/DX2                !
 ! D31   D(10,9,13,12)          -2.0578         estimate D2E/DX2                !
 ! D32   D(10,9,13,14)         168.6612         estimate D2E/DX2                !
 ! D33   D(9,10,11,12)          -1.2443         estimate D2E/DX2                !
 ! D34   D(9,10,11,17)        -149.8736         estimate D2E/DX2                !
 ! D35   D(10,11,12,13)          0.2561         estimate D2E/DX2                !
 ! D36   D(10,11,12,15)       -154.0319         estimate D2E/DX2                !
 ! D37   D(17,11,12,13)        153.9482         estimate D2E/DX2                !
 ! D38   D(17,11,12,15)         -0.3398         estimate D2E/DX2                !
 ! D39   D(10,11,17,16)        149.78           estimate D2E/DX2                !
 ! D40   D(10,11,17,19)        -14.1667         estimate D2E/DX2                !
 ! D41   D(12,11,17,16)          1.2117         estimate D2E/DX2                !
 ! D42   D(12,11,17,19)       -162.735          estimate D2E/DX2                !
 ! D43   D(11,12,13,9)           1.1985         estimate D2E/DX2                !
 ! D44   D(11,12,13,14)       -169.6148         estimate D2E/DX2                !
 ! D45   D(15,12,13,9)         150.5737         estimate D2E/DX2                !
 ! D46   D(15,12,13,14)        -20.2396         estimate D2E/DX2                !
 ! D47   D(11,12,15,16)         -0.4793         estimate D2E/DX2                !
 ! D48   D(13,12,15,16)       -149.8602         estimate D2E/DX2                !
 ! D49   D(12,15,16,17)          1.1749         estimate D2E/DX2                !
 ! D50   D(12,15,16,18)        170.2168         estimate D2E/DX2                !
 ! D51   D(15,16,17,11)         -1.567          estimate D2E/DX2                !
 ! D52   D(15,16,17,19)        162.6416         estimate D2E/DX2                !
 ! D53   D(18,16,17,11)       -170.3465         estimate D2E/DX2                !
 ! D54   D(18,16,17,19)         -6.1378         estimate D2E/DX2                !
 --------------------------------------------------------------------------------
 Trust Radius=3.00D-01 FncErr=1.00D-07 GrdErr=1.00D-06 EigMax=2.50D+02 EigMin=1.00D-04
 Number of steps in this run=    127 maximum allowed number of steps=    132.
 GradGradGradGradGradGradGradGradGradGradGradGradGradGradGradGradGradGrad

                          Input orientation:                          
 ---------------------------------------------------------------------
 Center     Atomic      Atomic             Coordinates (Angstroms)
 Number     Number       Type             X           Y           Z
 ---------------------------------------------------------------------
      1          6           0       -4.250000   -1.360000   -0.210000
      2          6           0       -2.930000   -0.950000   -0.610000
      3          6           0       -1.970000   -2.050000   -0.620000
      4          6           0       -2.660000    0.470000   -0.960000
      5          6           0       -4.330000   -2.760000    0.100000
      6          1           0       -5.100000   -0.700000   -0.140000
      7         16           0       -2.800000   -3.560000   -0.110000
      8          1           0       -5.230000   -3.270000    0.410000
      9          6           0       -0.560000   -2.130000   -0.970000
     10         16           0        0.033000   -3.196000   -2.281000
     11          6           0        1.677000   -2.710000   -2.046000
     12          6           0        1.814000   -1.723000   -1.006000
     13          6           0        0.561000   -1.377000   -0.404000
     14          1           0        0.445000   -0.545000    0.273000
     15         16           0        3.215000   -0.725000   -1.213000
     16          6           0        3.669000   -1.598000   -2.679000
     17          6           0        2.722000   -2.636000   -3.014000
     18          1           0        4.457000   -1.256000   -3.335000
     19          1           0        2.672000   -3.089000   -4.000000
     20          1           0       -3.550000    1.090000   -0.830000
     21          1           0       -2.350000    0.560000   -2.000000
     22          1           0       -1.880000    0.890000   -0.310000
 ---------------------------------------------------------------------
                    Distance matrix (angstroms):
                    1          2          3          4          5
     1  C    0.000000
     2  C    1.438923   0.000000
     3  C    2.417147   1.460034   0.000000
     4  C    2.537617   1.487212   2.634787   0.000000
     5  C    1.436141   2.395871   2.567509   3.787532   0.000000
     6  H    1.078425   2.234346   3.442354   2.827525   2.212261
     7  S    2.636759   2.660639   1.796970   4.121044   1.739253
     8  H    2.234480   3.422397   3.630000   4.740190   1.079907
     9  C    3.845335   2.671872   1.454991   3.342170   3.969219
    10  S    5.099414   4.076288   2.843281   4.736755   4.989492
    11  C    6.350018   5.136550   3.971106   5.486471   6.379018
    12  C    6.126784   4.822850   3.817667   4.982774   6.328297
    13  C    4.814940   3.523045   2.627841   3.754382   5.107699
    14  H    4.789628   3.512028   2.982398   3.491638   5.266572
    15  S    7.558800   6.178613   5.384375   6.000638   7.924154
    16  C    8.298383   6.946040   6.020142   6.876614   8.547344
    17  C    7.622295   6.369216   5.299952   6.544622   7.709934
    18  H    9.251394   7.879532   7.021965   7.698791   9.553670
    19  H    8.078838   6.888383   5.835416   7.094949   8.120729
    20  H    2.622384   2.143455   3.521378   1.092428   4.036806
    21  H    3.240447   2.132745   2.976726   1.088944   4.399182
    22  H    3.269465   2.139650   2.957668   1.098772   4.415099
                    6          7          8          9         10
     6  H    0.000000
     7  S    3.670218   0.000000
     8  H    2.631406   2.501879   0.000000
     9  C    4.831708   2.793224   5.001290   0.000000
    10  S    6.096030   3.587705   5.911525   1.790733   0.000000
    11  C    7.321248   4.951174   7.352019   2.549185   1.730363
    12  C    7.042718   5.046423   7.349571   2.408905   2.639567
    13  C    5.707447   4.018488   6.146684   1.464242   2.666585
    14  H    5.562519   4.446003   6.296826   2.251066   3.704114
    15  S    8.383983   6.740479   8.968232   4.035307   4.167924
    16  C    9.173237   7.231678   9.567116   4.592183   3.991554
    17  C    8.555212   6.307097   8.681016   3.899423   2.842817
    18  H   10.092245   8.268802  10.579187   5.614926   4.944319
    19  H    9.000606   6.730284   9.051103   4.532814   3.151306
    20  H    2.466313   4.764808   4.834211   4.396374   5.771749
    21  H    3.551014   4.555107   5.363898   3.391327   4.457038
    22  H    3.595191   4.548505   5.389480   3.361309   4.923394
                   11         12         13         14         15
    11  C    0.000000
    12  C    1.440326   0.000000
    13  C    2.391340   1.432525   0.000000
    14  H    3.403353   2.213072   1.078892   0.000000
    15  S    2.645668   1.732528   2.850141   3.148570   0.000000
    16  C    2.367551   2.501116   3.857996   4.496364   1.765616
    17  C    1.426368   2.385392   3.614845   4.512358   2.671810
    18  H    3.391760   3.553559   4.876907   5.442364   2.515434
    19  H    2.225260   3.400905   4.507603   5.448853   3.694687
    20  H    6.575727   6.059409   4.813303   4.455318   7.014709
    21  H    5.187653   4.851703   3.843580   3.768233   5.765398
    22  H    5.350322   4.577971   3.332657   2.793696   5.420577
                   16         17         18         19         20
    16  C    0.000000
    17  C    1.444465   0.000000
    18  H    1.080853   2.240015   0.000000
    19  H    2.227584   1.086234   2.643547   0.000000
    20  H    7.922001   7.615177   8.711532   8.137950   0.000000
    21  H    6.430114   6.080115   7.170448   6.521939   1.757783
    22  H    6.526385   6.397085   7.342582   7.083025   1.760483
                   21         22
    21  H    0.000000
    22  H    1.784909   0.000000
 Stoichiometry    C11H8S3
 Framework group  C1[X(C11H8S3)]
 Deg. of freedom    60
 Full point group                 C1      NOp   1
 Largest Abelian subgroup         C1      NOp   1
 Largest concise Abelian subgroup C1      NOp   1
                         Standard orientation:                         
 ---------------------------------------------------------------------
 Center     Atomic      Atomic             Coordinates (Angstroms)
 Number     Number       Type             X           Y           Z
 ---------------------------------------------------------------------
      1          6           0        3.977714    0.827995    0.294976
      2          6           0        2.574211    1.126629    0.402200
      3          6           0        1.722597    0.046880   -0.088308
      4          6           0        2.125588    2.427156    0.967147
      5          6           0        4.231588   -0.463512   -0.279531
      6          1           0        4.769216    1.492357    0.603438
      7         16           0        2.758371   -1.300841   -0.671335
      8          1           0        5.214031   -0.882955   -0.437873
      9          6           0        0.279030   -0.120696   -0.159251
     10         16           0       -0.562479   -1.462170    0.676833
     11          6           0       -2.116701   -0.946647    0.117558
     12          6           0       -2.043529    0.250958   -0.679263
     13          6           0       -0.703245    0.734003   -0.829049
     14          1           0       -0.471041    1.699491   -1.250860
     15         16           0       -3.514609    1.165567   -0.646613
     16          6           0       -4.276106   -0.022489    0.414540
     17          6           0       -3.381339   -1.103039    0.758461
     18          1           0       -5.229908    0.155096    0.890952
     19          1           0       -3.560593   -1.769049    1.597630
     20          1           0        2.974048    3.066566    1.221451
     21          1           0        1.548538    2.274942    1.877995
     22          1           0        1.516333    2.979223    0.238223
 ---------------------------------------------------------------------
 Rotational constants (GHZ):           1.2066153           0.2679896           0.2381545
 Standard basis: 6-311+G(d,p) (5D, 7F)
 There are   394 symmetry adapted cartesian basis functions of A   symmetry.
 There are   380 symmetry adapted basis functions of A   symmetry.
   380 basis functions,   610 primitive gaussians,   394 cartesian basis functions
    61 alpha electrons       61 beta electrons
       nuclear repulsion energy      1105.1509134500 Hartrees.
 NAtoms=   22 NActive=   22 NUniq=   22 SFac= 1.00D+00 NAtFMM=   60 NAOKFM=F Big=F
 Integral buffers will be    131072 words long.
 Raffenetti 2 integral format.
 Two-electron integral symmetry is turned on.
 Nuclear repulsion after empirical dispersion term =     1105.1386968926 Hartrees.
 One-electron integrals computed using PRISM.
 NBasis=   380 RedAO= T EigKep=  1.25D-06  NBF=   380
 NBsUse=   379 1.00D-06 EigRej=  4.06D-07 NBFU=   379
 ExpMin= 4.05D-02 ExpMax= 9.34D+04 ExpMxC= 3.17D+03 IAcc=3 IRadAn=         5 AccDes= 0.00D+00
 Harris functional with IExCor= 4639 and IRadAn=       5 diagonalized for initial guess.
 HarFok:  IExCor= 4639 AccDes= 0.00D+00 IRadAn=         5 IDoV= 1 UseB2=F ITyADJ=14
 ICtDFT=  3500011 ScaDFX=  1.000000  1.000000  1.000000  1.000000
 FoFCou: FMM=F IPFlag=           0 FMFlag=      100000 FMFlg1=           0
         NFxFlg=           0 DoJE=T BraDBF=F KetDBF=T FulRan=T
         wScrn=  0.000000 ICntrl=       500 IOpCl=  0 I1Cent=   200000004 NGrid=           0
         NMat0=    1 NMatS0=      1 NMatT0=    0 NMatD0=    1 NMtDS0=    0 NMtDT0=    0
 Petite list used in FoFCou.
 Requested convergence on RMS density matrix=1.00D-08 within 128 cycles.
 Requested convergence on MAX density matrix=1.00D-06.
 Requested convergence on             energy=1.00D-06.
 No special actions if energy rises.
 SCF Done:  E(RwB97XD) =  -1618.45898263     A.U. after   18 cycles
            NFock= 18  Conv=0.64D-08     -V/T= 2.0028

 **********************************************************************

            Population analysis using the SCF Density.

 **********************************************************************

 Orbital symmetries:
       Occupied  (A) (A) (A) (A) (A) (A) (A) (A) (A) (A) (A) (A)
                 (A) (A) (A) (A) (A) (A) (A) (A) (A) (A) (A) (A)
                 (A) (A) (A) (A) (A) (A) (A) (A) (A) (A) (A) (A)
                 (A) (A) (A) (A) (A) (A) (A) (A) (A) (A) (A) (A)
                 (A) (A) (A) (A) (A) (A) (A) (A) (A) (A) (A) (A)
                 (A)
       Virtual   (A) (A) (A) (A) (A) (A) (A) (A) (A) (A) (A) (A)
                 (A) (A) (A) (A) (A) (A) (A) (A) (A) (A) (A) (A)
                 (A) (A) (A) (A) (A) (A) (A) (A) (A) (A) (A) (A)
                 (A) (A) (A) (A) (A) (A) (A) (A) (A) (A) (A) (A)
                 (A) (A) (A) (A) (A) (A) (A) (A) (A) (A) (A) (A)
                 (A) (A) (A) (A) (A) (A) (A) (A) (A) (A) (A) (A)
                 (A) (A) (A) (A) (A) (A) (A) (A) (A) (A) (A) (A)
                 (A) (A) (A) (A) (A) (A) (A) (A) (A) (A) (A) (A)
                 (A) (A) (A) (A) (A) (A) (A) (A) (A) (A) (A) (A)
                 (A) (A) (A) (A) (A) (A) (A) (A) (A) (A) (A) (A)
                 (A) (A) (A) (A) (A) (A) (A) (A) (A) (A) (A) (A)
                 (A) (A) (A) (A) (A) (A) (A) (A) (A) (A) (A) (A)
                 (A) (A) (A) (A) (A) (A) (A) (A) (A) (A) (A) (A)
                 (A) (A) (A) (A) (A) (A) (A) (A) (A) (A) (A) (A)
                 (A) (A) (A) (A) (A) (A) (A) (A) (A) (A) (A) (A)
                 (A) (A) (A) (A) (A) (A) (A) (A) (A) (A) (A) (A)
                 (A) (A) (A) (A) (A) (A) (A) (A) (A) (A) (A) (A)
                 (A) (A) (A) (A) (A) (A) (A) (A) (A) (A) (A) (A)
                 (A) (A) (A) (A) (A) (A) (A) (A) (A) (A) (A) (A)
                 (A) (A) (A) (A) (A) (A) (A) (A) (A) (A) (A) (A)
                 (A) (A) (A) (A) (A) (A) (A) (A) (A) (A) (A) (A)
                 (A) (A) (A) (A) (A) (A) (A) (A) (A) (A) (A) (A)
                 (A) (A) (A) (A) (A) (A) (A) (A) (A) (A) (A) (A)
                 (A) (A) (A) (A) (A) (A) (A) (A) (A) (A) (A) (A)
                 (A) (A) (A) (A) (A) (A) (A) (A) (A) (A) (A) (A)
                 (A) (A) (A) (A) (A) (A) (A) (A) (A) (A) (A) (A)
                 (A) (A) (A) (A) (A) (A)
 The electronic state is 1-A.
 Alpha  occ. eigenvalues --  -89.05936 -89.05649 -89.05445 -10.35259 -10.34164
 Alpha  occ. eigenvalues --  -10.33736 -10.33534 -10.33488 -10.32860 -10.32028
 Alpha  occ. eigenvalues --  -10.31943 -10.31795 -10.30312 -10.28843  -8.09881
 Alpha  occ. eigenvalues --   -8.09589  -8.09324  -6.04733  -6.04446  -6.04369
 Alpha  occ. eigenvalues --   -6.04155  -6.04077  -6.03948  -6.03778  -6.03645
 Alpha  occ. eigenvalues --   -6.03458  -1.00774  -0.97526  -0.93536  -0.87534
 Alpha  occ. eigenvalues --   -0.87173  -0.84672  -0.80622  -0.79276  -0.76743
 Alpha  occ. eigenvalues --   -0.70336  -0.66807  -0.65692  -0.62535  -0.60684
 Alpha  occ. eigenvalues --   -0.57980  -0.57784  -0.52859  -0.52127  -0.51586
 Alpha  occ. eigenvalues --   -0.50259  -0.49720  -0.47803  -0.47585  -0.47371
 Alpha  occ. eigenvalues --   -0.45816  -0.45068  -0.44454  -0.42933  -0.42367
 Alpha  occ. eigenvalues --   -0.41240  -0.37041  -0.32839  -0.32093  -0.30674
 Alpha  occ. eigenvalues --   -0.27215
 Alpha virt. eigenvalues --   -0.00284   0.02387   0.04990   0.05630   0.06028
 Alpha virt. eigenvalues --    0.06459   0.06803   0.06943   0.07621   0.08428
 Alpha virt. eigenvalues --    0.08672   0.09000   0.09493   0.09663   0.10047
 Alpha virt. eigenvalues --    0.10554   0.10881   0.11348   0.11548   0.11933
 Alpha virt. eigenvalues --    0.12422   0.12909   0.13449   0.13723   0.14288
 Alpha virt. eigenvalues --    0.14842   0.14925   0.15917   0.16401   0.16987
 Alpha virt. eigenvalues --    0.17352   0.17389   0.18185   0.18462   0.18771
 Alpha virt. eigenvalues --    0.19140   0.19972   0.20115   0.20681   0.21050
 Alpha virt. eigenvalues --    0.21461   0.21843   0.22228   0.22580   0.22952
 Alpha virt. eigenvalues --    0.23433   0.23690   0.24093   0.24442   0.24845
 Alpha virt. eigenvalues --    0.25266   0.25329   0.25823   0.26317   0.26854
 Alpha virt. eigenvalues --    0.27097   0.27643   0.27758   0.28085   0.28428
 Alpha virt. eigenvalues --    0.28502   0.29020   0.29684   0.30136   0.30478
 Alpha virt. eigenvalues --    0.30860   0.31634   0.31916   0.32247   0.32859
 Alpha virt. eigenvalues --    0.33649   0.34789   0.35058   0.35494   0.36087
 Alpha virt. eigenvalues --    0.36583   0.38056   0.38780   0.39054   0.40458
 Alpha virt. eigenvalues --    0.41092   0.41890   0.42951   0.43657   0.44118
 Alpha virt. eigenvalues --    0.44822   0.45863   0.47431   0.48527   0.49813
 Alpha virt. eigenvalues --    0.50531   0.51233   0.51674   0.53553   0.54982
 Alpha virt. eigenvalues --    0.57642   0.58795   0.60991   0.61311   0.62704
 Alpha virt. eigenvalues --    0.62901   0.63671   0.64221   0.65162   0.65489
 Alpha virt. eigenvalues --    0.66838   0.67158   0.68793   0.69313   0.70092
 Alpha virt. eigenvalues --    0.70496   0.70790   0.71760   0.72685   0.73454
 Alpha virt. eigenvalues --    0.74370   0.75281   0.75986   0.76604   0.76954
 Alpha virt. eigenvalues --    0.78199   0.78967   0.79354   0.79813   0.81140
 Alpha virt. eigenvalues --    0.81582   0.82166   0.83251   0.83962   0.84768
 Alpha virt. eigenvalues --    0.85640   0.85843   0.86685   0.87285   0.88719
 Alpha virt. eigenvalues --    0.89940   0.90670   0.91210   0.91983   0.92878
 Alpha virt. eigenvalues --    0.94060   0.95054   0.96523   0.97633   0.98194
 Alpha virt. eigenvalues --    0.99601   1.00395   1.01083   1.02229   1.03191
 Alpha virt. eigenvalues --    1.04057   1.04905   1.05605   1.06610   1.07673
 Alpha virt. eigenvalues --    1.08534   1.09594   1.09940   1.10996   1.12985
 Alpha virt. eigenvalues --    1.13888   1.15629   1.15766   1.19064   1.23481
 Alpha virt. eigenvalues --    1.25095   1.28561   1.29670   1.33177   1.36814
 Alpha virt. eigenvalues --    1.42698   1.43871   1.45160   1.45830   1.48141
 Alpha virt. eigenvalues --    1.48842   1.52363   1.54418   1.54711   1.58687
 Alpha virt. eigenvalues --    1.58794   1.60489   1.61583   1.63595   1.64709
 Alpha virt. eigenvalues --    1.65203   1.66098   1.68366   1.69328   1.70189
 Alpha virt. eigenvalues --    1.71473   1.72950   1.74612   1.74947   1.76702
 Alpha virt. eigenvalues --    1.78207   1.79179   1.80010   1.80506   1.82832
 Alpha virt. eigenvalues --    1.84788   1.85343   1.87572   1.88423   1.89121
 Alpha virt. eigenvalues --    1.90039   1.92020   1.94275   1.95506   1.96427
 Alpha virt. eigenvalues --    1.98018   1.98849   2.01916   2.02980   2.03642
 Alpha virt. eigenvalues --    2.06457   2.06784   2.08172   2.09230   2.10179
 Alpha virt. eigenvalues --    2.11914   2.12817   2.14598   2.16936   2.17535
 Alpha virt. eigenvalues --    2.18460   2.18929   2.21235   2.22724   2.23985
 Alpha virt. eigenvalues --    2.26889   2.27658   2.33448   2.34683   2.37025
 Alpha virt. eigenvalues --    2.42115   2.45075   2.46143   2.48575   2.52686
 Alpha virt. eigenvalues --    2.53962   2.55978   2.58710   2.60903   2.63504
 Alpha virt. eigenvalues --    2.64382   2.69281   2.70480   2.73414   2.75461
 Alpha virt. eigenvalues --    2.78277   2.79633   2.81515   2.82282   2.82448
 Alpha virt. eigenvalues --    2.83505   2.84962   2.88274   2.89344   2.94040
 Alpha virt. eigenvalues --    2.94394   2.98070   3.00718   3.03199   3.05465
 Alpha virt. eigenvalues --    3.07855   3.10184   3.10571   3.11774   3.13570
 Alpha virt. eigenvalues --    3.16074   3.19663   3.27250   3.32499   3.34491
 Alpha virt. eigenvalues --    3.37143   3.41961   3.45714   3.49209   3.50886
 Alpha virt. eigenvalues --    3.57778   3.67356   3.75496   3.90310   3.91599
 Alpha virt. eigenvalues --    4.01258   4.05580   4.14922   4.20568   4.40724
 Alpha virt. eigenvalues --    4.43674   4.55925   8.05426   8.07238   8.08975
 Alpha virt. eigenvalues --   17.42647  17.43685  17.44736  17.55967  17.57827
 Alpha virt. eigenvalues --   17.60478  17.62953  17.64207  17.66738  23.61677
 Alpha virt. eigenvalues --   23.74946  23.86626  23.90825  23.95136  23.99222
 Alpha virt. eigenvalues --   24.01640  24.07024  24.09017  24.09294  24.12005
 Alpha virt. eigenvalues --  189.29787 189.31959 189.34276
          Condensed to atoms (all electrons):
               1          2          3          4          5          6
     1  C   11.687587  -7.599059   7.028196  -1.994764  -0.912959   0.329032
     2  C   -7.599059  25.793202 -19.438339   1.943573   2.336354   0.029702
     3  C    7.028196 -19.438339  30.302616  -5.105969  -2.463719  -0.033923
     4  C   -1.994764   1.943573  -5.105969   9.406790   0.287842   0.013079
     5  C   -0.912959   2.336354  -2.463719   0.287842   6.025066   0.010497
     6  H    0.329032   0.029702  -0.033923   0.013079   0.010497   0.491295
     7  S   -1.252305   0.506970  -1.672161   0.768416  -0.012213   0.003911
     8  H    0.027685  -0.039454   0.019195   0.001767   0.381977  -0.003279
     9  C   -0.670889   0.161531  -0.118041  -0.047999   0.209744  -0.000613
    10  S    0.096802  -0.233163   0.453761   0.024027   0.001304  -0.000043
    11  C   -0.083836   0.657519  -1.035324   0.080170   0.043405   0.000050
    12  C   -0.097879  -0.543821   0.820954   0.003455  -0.016497   0.000111
    13  C   -0.141755   1.634320  -2.488501   0.224674   0.047893  -0.000081
    14  H    0.006230  -0.016269   0.065279  -0.017050  -0.000503  -0.000001
    15  S   -0.019713   0.052443  -0.089242   0.010712   0.002646   0.000002
    16  C    0.001733  -0.027929   0.020034  -0.010578  -0.000561  -0.000000
    17  C   -0.006813   0.312706  -0.275845   0.035870   0.008388   0.000008
    18  H    0.000003  -0.000042  -0.000167  -0.000036  -0.000000   0.000000
    19  H    0.000046  -0.000546  -0.000217  -0.000139  -0.000016  -0.000000
    20  H    0.045740  -0.120098  -0.028440   0.463838   0.011736   0.001355
    21  H   -0.030339   0.041936  -0.061300   0.409392   0.004572   0.000129
    22  H   -0.012737  -0.018467   0.119063   0.258216  -0.006544   0.000150
               7          8          9         10         11         12
     1  C   -1.252305   0.027685  -0.670889   0.096802  -0.083836  -0.097879
     2  C    0.506970  -0.039454   0.161531  -0.233163   0.657519  -0.543821
     3  C   -1.672161   0.019195  -0.118041   0.453761  -1.035324   0.820954
     4  C    0.768416   0.001767  -0.047999   0.024027   0.080170   0.003455
     5  C   -0.012213   0.381977   0.209744   0.001304   0.043405  -0.016497
     6  H    0.003911  -0.003279  -0.000613  -0.000043   0.000050   0.000111
     7  S   18.001752  -0.016879   0.012963   0.069098  -0.055215   0.170377
     8  H   -0.016879   0.445141  -0.006837  -0.000519  -0.000156   0.000027
     9  C    0.012963  -0.006837   8.917115   0.139415  -1.121224   1.161817
    10  S    0.069098  -0.000519   0.139415  17.304301  -1.186941   0.938477
    11  C   -0.055215  -0.000156  -1.121224  -1.186941  13.151273  -4.359187
    12  C    0.170377   0.000027   1.161817   0.938477  -4.359187  12.682027
    13  C   -0.066045   0.000121  -2.310008  -1.497287   1.285784  -3.398725
    14  H   -0.004453   0.000000   0.092528   0.011687  -0.038779   0.060709
    15  S    0.004903  -0.000000  -0.375070   0.164744   0.829516  -0.920966
    16  C   -0.001940  -0.000000   0.116037  -0.053545   0.821187  -0.474736
    17  C   -0.063287  -0.000012  -0.542222   0.157467  -3.234500  -0.155872
    18  H    0.000016  -0.000000  -0.001427  -0.000199  -0.011752   0.011618
    19  H    0.000096   0.000000   0.007795   0.008185   0.026756  -0.027282
    20  H    0.000144  -0.000020   0.000188   0.000117   0.000219  -0.000835
    21  H   -0.001220   0.000005   0.020825  -0.000507  -0.003518  -0.000762
    22  H    0.001292   0.000007  -0.025261  -0.001662  -0.000172   0.012534
              13         14         15         16         17         18
     1  C   -0.141755   0.006230  -0.019713   0.001733  -0.006813   0.000003
     2  C    1.634320  -0.016269   0.052443  -0.027929   0.312706  -0.000042
     3  C   -2.488501   0.065279  -0.089242   0.020034  -0.275845  -0.000167
     4  C    0.224674  -0.017050   0.010712  -0.010578   0.035870  -0.000036
     5  C    0.047893  -0.000503   0.002646  -0.000561   0.008388  -0.000000
     6  H   -0.000081  -0.000001   0.000002  -0.000000   0.000008   0.000000
     7  S   -0.066045  -0.004453   0.004903  -0.001940  -0.063287   0.000016
     8  H    0.000121   0.000000  -0.000000  -0.000000  -0.000012  -0.000000
     9  C   -2.310008   0.092528  -0.375070   0.116037  -0.542222  -0.001427
    10  S   -1.497287   0.011687   0.164744  -0.053545   0.157467  -0.000199
    11  C    1.285784  -0.038779   0.829516   0.821187  -3.234500  -0.011752
    12  C   -3.398725   0.060709  -0.920966  -0.474736  -0.155872   0.011618
    13  C   11.768023   0.210903  -0.040238  -0.276512   1.005500   0.015099
    14  H    0.210903   0.479325  -0.002202   0.003359  -0.015562  -0.000006
    15  S   -0.040238  -0.002202  16.584799   0.469273  -0.438431  -0.026680
    16  C   -0.276512   0.003359   0.469273   5.637335  -0.256939   0.374984
    17  C    1.005500  -0.015562  -0.438431  -0.256939   9.388028   0.001085
    18  H    0.015099  -0.000006  -0.026680   0.374984   0.001085   0.438455
    19  H   -0.001035   0.000007  -0.001851   0.015196   0.331182  -0.002651
    20  H   -0.001836  -0.000008  -0.000038   0.000001   0.000019  -0.000000
    21  H   -0.013030   0.000183   0.000415  -0.000244   0.000222  -0.000000
    22  H    0.031379  -0.000229   0.000575   0.000332  -0.001423   0.000000
              19         20         21         22
     1  C    0.000046   0.045740  -0.030339  -0.012737
     2  C   -0.000546  -0.120098   0.041936  -0.018467
     3  C   -0.000217  -0.028440  -0.061300   0.119063
     4  C   -0.000139   0.463838   0.409392   0.258216
     5  C   -0.000016   0.011736   0.004572  -0.006544
     6  H   -0.000000   0.001355   0.000129   0.000150
     7  S    0.000096   0.000144  -0.001220   0.001292
     8  H    0.000000  -0.000020   0.000005   0.000007
     9  C    0.007795   0.000188   0.020825  -0.025261
    10  S    0.008185   0.000117  -0.000507  -0.001662
    11  C    0.026756   0.000219  -0.003518  -0.000172
    12  C   -0.027282  -0.000835  -0.000762   0.012534
    13  C   -0.001035  -0.001836  -0.013030   0.031379
    14  H    0.000007  -0.000008   0.000183  -0.000229
    15  S   -0.001851  -0.000038   0.000415   0.000575
    16  C    0.015196   0.000001  -0.000244   0.000332
    17  C    0.331182   0.000019   0.000222  -0.001423
    18  H   -0.002651  -0.000000  -0.000000   0.000000
    19  H    0.474524   0.000000  -0.000000   0.000000
    20  H    0.000000   0.515868  -0.023276  -0.025504
    21  H   -0.000000  -0.023276   0.490751  -0.024454
    22  H    0.000000  -0.025504  -0.024454   0.524410
 Mulliken charges:
               1
     1  C   -0.400006
     2  C    0.566927
     3  C   -0.017909
     4  C   -0.755286
     5  C    0.041589
     6  H    0.158621
     7  S   -0.394222
     8  H    0.191232
     9  C    0.379632
    10  S   -0.395520
    11  C    0.234725
    12  C    0.134456
    13  C    0.011358
    14  H    0.164852
    15  S   -0.205595
    16  C   -0.356484
    17  C   -0.249568
    18  H    0.201700
    19  H    0.169951
    20  H    0.160831
    21  H    0.190220
    22  H    0.168495
 Sum of Mulliken charges =  -0.00000
 Mulliken charges with hydrogens summed into heavy atoms:
               1
     1  C   -0.241385
     2  C    0.566927
     3  C   -0.017909
     4  C   -0.235739
     5  C    0.232820
     7  S   -0.394222
     9  C    0.379632
    10  S   -0.395520
    11  C    0.234725
    12  C    0.134456
    13  C    0.176210
    15  S   -0.205595
    16  C   -0.154784
    17  C   -0.079617
 Electronic spatial extent (au):  <R**2>=           4433.2406
 Charge=             -0.0000 electrons
 Dipole moment (field-independent basis, Debye):
    X=              0.3803    Y=              1.5608    Z=              1.3689  Tot=              2.1106
 Quadrupole moment (field-independent basis, Debye-Ang):
   XX=            -89.1259   YY=            -99.4698   ZZ=           -105.6470
   XY=              1.7507   XZ=             -4.2088   YZ=             -1.2980
 Traceless Quadrupole moment (field-independent basis, Debye-Ang):
   XX=              8.9550   YY=             -1.3889   ZZ=             -7.5661
   XY=              1.7507   XZ=             -4.2088   YZ=             -1.2980
 Octapole moment (field-independent basis, Debye-Ang**2):
  XXX=             20.6762  YYY=             10.4807  ZZZ=              6.3040  XYY=              9.2542
  XXY=              5.4304  XXZ=             28.3479  XZZ=             -7.5503  YZZ=              0.1167
  YYZ=              3.9692  XYZ=             16.9318
 Hexadecapole moment (field-independent basis, Debye-Ang**3):
 XXXX=          -4285.6793 YYYY=           -991.6614 ZZZZ=           -385.8093 XXXY=            -63.8603
 XXXZ=           -131.8383 YYYX=              8.3368 YYYZ=             -8.9235 ZZZX=             -9.7724
 ZZZY=             -6.2172 XXYY=           -942.0692 XXZZ=           -902.7287 YYZZ=           -218.3825
 XXYZ=             17.6332 YYXZ=             -2.6702 ZZXY=              8.6378
 N-N= 1.105138696893D+03 E-N=-6.033459044831D+03  KE= 1.613976292080D+03
 Calling FoFJK, ICntrl=      2127 FMM=F ISym2X=0 I1Cent= 0 IOpClX= 0 NMat=1 NMatS=1 NMatT=0.
 ***** Axes restored to original set *****
 -------------------------------------------------------------------
 Center     Atomic                   Forces (Hartrees/Bohr)
 Number     Number              X              Y              Z
 -------------------------------------------------------------------
      1        6           0.023963847   -0.062604689    0.009002365
      2        6           0.016365439   -0.049123159    0.007208566
      3        6          -0.054249312    0.017509607    0.007831214
      4        6           0.009362141    0.006461006    0.001935381
      5        6           0.014707807    0.052560216   -0.016136780
      6        1          -0.000915090    0.002017145   -0.000184200
      7       16          -0.007338710    0.029422152   -0.004012944
      8        1           0.002739053   -0.004352403    0.000316629
      9        6           0.060344711    0.034072933    0.016073655
     10       16          -0.004566668    0.005531872    0.020843023
     11        6           0.008735094    0.036436105    0.011899584
     12        6          -0.030329313   -0.013918498   -0.026667628
     13        6          -0.039151941   -0.037403367   -0.032431594
     14        1          -0.004107228   -0.003060626    0.005829670
     15       16           0.008087762   -0.017867846   -0.014027937
     16        6          -0.050197590   -0.040215832   -0.008526379
     17        6           0.033493432    0.050400828    0.016235113
     18        1           0.004104934   -0.000894269    0.005924723
     19        1           0.006311626   -0.004077648    0.005506302
     20        1          -0.000620802   -0.002471709    0.000393591
     21        1           0.004096046    0.001772513   -0.001935304
     22        1          -0.000835238   -0.000194333   -0.005077050
 -------------------------------------------------------------------
 Cartesian Forces:  Max     0.062604689 RMS     0.023623337

 GradGradGradGradGradGradGradGradGradGradGradGradGradGradGradGradGradGrad
 Berny optimization.
 FormGI is forming the generalized inverse of G from B-inverse, IUseBI=4.
 Internal  Forces:  Max     0.071733464 RMS     0.014229343
 Search for a local minimum.
 Step number   1 out of a maximum of  127
 All quantities printed in internal units (Hartrees-Bohrs-Radians)
 Mixed Optimization -- RFO/linear search
 Second derivative matrix not updated -- first step.
 ITU=  0
     Eigenvalues ---    0.00935   0.00982   0.01055   0.01215   0.01241
     Eigenvalues ---    0.01277   0.01299   0.01425   0.01457   0.01495
     Eigenvalues ---    0.01498   0.01592   0.01597   0.01769   0.02200
     Eigenvalues ---    0.02653   0.07307   0.07353   0.15087   0.15681
     Eigenvalues ---    0.15734   0.15997   0.16000   0.16000   0.16000
     Eigenvalues ---    0.16000   0.17998   0.22443   0.22545   0.23321
     Eigenvalues ---    0.23977   0.24718   0.24979   0.24995   0.25000
     Eigenvalues ---    0.26147   0.26520   0.28353   0.30920   0.31302
     Eigenvalues ---    0.31546   0.33757   0.33818   0.34533   0.34849
     Eigenvalues ---    0.34935   0.35251   0.35877   0.35891   0.36006
     Eigenvalues ---    0.36128   0.36185   0.36365   0.37598   0.38341
     Eigenvalues ---    0.38438   0.39458   0.39711   0.405931000.00000
     Eigenvalues --- 1000.000001000.000001000.000001000.000001000.00000
     Eigenvalues --- 1000.000001000.000001000.000001000.000001000.00000
     Eigenvalues --- 1000.000001000.000001000.000001000.000001000.00000
     Eigenvalues --- 1000.000001000.000001000.000001000.000001000.00000
     Eigenvalues --- 1000.000001000.000001000.000001000.000001000.00000
     Eigenvalues --- 1000.000001000.000001000.000001000.000001000.00000
     Eigenvalues --- 1000.000001000.000001000.000001000.000001000.00000
     Eigenvalues --- 1000.000001000.000001000.000001000.000001000.00000
     Eigenvalues --- 1000.000001000.000001000.000001000.000001000.00000
     Eigenvalues --- 1000.000001000.000001000.000001000.000001000.00000
     Eigenvalues --- 1000.000001000.000001000.000001000.000001000.00000
     Eigenvalues --- 1000.000001000.00000
 RFO step:  Lambda=-6.18182823D-02 EMin= 9.35106172D-03
 Linear search not attempted -- first point.
 Maximum step size (   0.300) exceeded in Quadratic search.
    -- Step size scaled by   0.806
 Iteration  1 RMS(Cart)=  0.07310159 RMS(Int)=  0.00148881
 Iteration  2 RMS(Cart)=  0.00242363 RMS(Int)=  0.00046515
 Iteration  3 RMS(Cart)=  0.00000279 RMS(Int)=  0.00046515
 Iteration  4 RMS(Cart)=  0.00000000 RMS(Int)=  0.00046515
 Iteration  1 RMS(Cart)=  0.00001013 RMS(Int)=  0.00000381
 Iteration  2 RMS(Cart)=  0.00000553 RMS(Int)=  0.00000425
 Iteration  3 RMS(Cart)=  0.00000302 RMS(Int)=  0.00000480
 Iteration  4 RMS(Cart)=  0.00000165 RMS(Int)=  0.00000517
 Iteration  5 RMS(Cart)=  0.00000090 RMS(Int)=  0.00000538
 Variable       Old X    -DE/DX   Delta X   Delta X   Delta X     New X
                                 (Linear)    (Quad)   (Total)
    R1        2.71917  -0.01744   0.00000  -0.03265  -0.03261   2.68656
    R2        2.71391  -0.05724   0.00000  -0.10071  -0.10077   2.61314
    R3        2.03793   0.00194   0.00000   0.00370   0.00370   2.04162
    R4        2.75906  -0.06747   0.00000  -0.12660  -0.12650   2.63256
    R5        2.81042   0.00860   0.00000   0.01735   0.01735   2.82777
    R6        3.39578  -0.02653   0.00000  -0.06329  -0.06326   3.33252
    R7        2.74954  -0.00770   0.00000  -0.01418  -0.01418   2.73535
    R8        2.06439  -0.00085   0.00000  -0.00168  -0.00168   2.06271
    R9        2.05781   0.00316   0.00000   0.00619   0.00619   2.06400
   R10        2.07638  -0.00367   0.00000  -0.00740  -0.00740   2.06898
   R11        3.28671  -0.02274   0.00000  -0.04707  -0.04717   3.23955
   R12        2.04073  -0.00014   0.00000  -0.00026  -0.00026   2.04047
   R13        3.38400  -0.01865   0.00000  -0.04165  -0.04211   3.34189
   R14        2.76702  -0.07173   0.00000  -0.13544  -0.13568   2.63134
   R15        3.26991  -0.00637   0.00000  -0.01217  -0.01210   3.25781
   R16        2.72182  -0.03938   0.00000  -0.07298  -0.07210   2.64972
   R17        2.69544  -0.00301   0.00000  -0.00748  -0.00710   2.68835
   R18        2.70708  -0.01227   0.00000  -0.02367  -0.02340   2.68369
   R19        3.27400  -0.00433   0.00000  -0.00738  -0.00745   3.26656
   R20        2.03881   0.00174   0.00000   0.00331   0.00331   2.04212
   R21        3.33653  -0.01797   0.00000  -0.03839  -0.03886   3.29767
   R22        2.72964  -0.06544   0.00000  -0.11727  -0.11741   2.61223
   R23        2.04252  -0.00089   0.00000  -0.00170  -0.00170   2.04082
   R24        2.05269  -0.00359   0.00000  -0.00698  -0.00698   2.04570
    A1        1.97020   0.00671   0.00000   0.01371   0.01368   1.98388
    A2        2.17330  -0.00445   0.00000  -0.01083  -0.01083   2.16247
    A3        2.13967  -0.00226   0.00000  -0.00285  -0.00285   2.13683
    A4        1.97187  -0.00216   0.00000  -0.00971  -0.00957   1.96230
    A5        2.09905   0.01391   0.00000   0.03803   0.03795   2.13700
    A6        2.21227  -0.01176   0.00000  -0.02831  -0.02839   2.18388
    A7        1.90440   0.00648   0.00000   0.01797   0.01811   1.92250
    A8        2.31891  -0.01505   0.00000  -0.03958  -0.03965   2.27926
    A9        2.05972   0.00858   0.00000   0.02153   0.02146   2.08117
   A10        1.94548  -0.00380   0.00000  -0.01261  -0.01258   1.93291
   A11        1.93409   0.00233   0.00000   0.00776   0.00776   1.94186
   A12        1.93331   0.00313   0.00000   0.01089   0.01090   1.94421
   A13        1.87410   0.00125   0.00000   0.00544   0.00547   1.87957
   A14        1.86607   0.00107   0.00000   0.00525   0.00528   1.87135
   A15        1.90848  -0.00415   0.00000  -0.01731  -0.01732   1.89115
   A16        1.95339  -0.00278   0.00000  -0.00825  -0.00840   1.94499
   A17        2.17580   0.00665   0.00000   0.02325   0.02333   2.19913
   A18        2.15384  -0.00386   0.00000  -0.01494  -0.01487   2.13898
   A19        1.62490  -0.00824   0.00000  -0.01368  -0.01380   1.61110
   A20        2.12910  -0.00397   0.00000  -0.01011  -0.01014   2.11896
   A21        2.24037  -0.00417   0.00000  -0.01064  -0.01067   2.22969
   A22        1.91304   0.00818   0.00000   0.02104   0.02108   1.93412
   A23        1.61881  -0.00639   0.00000  -0.01277  -0.01241   1.60640
   A24        1.96156  -0.01060   0.00000  -0.02233  -0.02311   1.93845
   A25        2.23759   0.00839   0.00000   0.03868   0.03698   2.27457
   A26        1.96577   0.00598   0.00000   0.01550   0.01567   1.98144
   A27        1.96682   0.00733   0.00000   0.01764   0.01758   1.98440
   A28        1.96642  -0.01313   0.00000  -0.02854  -0.02921   1.93721
   A29        2.23748   0.00945   0.00000   0.04137   0.03983   2.27731
   A30        1.96383   0.00150   0.00000  -0.00347  -0.00301   1.96081
   A31        2.16135  -0.00492   0.00000  -0.01138  -0.01203   2.14932
   A32        2.14599   0.00403   0.00000   0.02123   0.02060   2.16659
   A33        1.59311   0.00057   0.00000   0.00370   0.00403   1.59714
   A34        1.95983   0.00181   0.00000   0.00356   0.00334   1.96317
   A35        2.13524  -0.00451   0.00000  -0.01180  -0.01259   2.12266
   A36        2.17074   0.00378   0.00000   0.01897   0.01831   2.18904
   A37        1.93929   0.00476   0.00000   0.00575   0.00615   1.94543
   A38        2.16598   0.00042   0.00000   0.01334   0.01208   2.17807
   A39        2.14169  -0.00332   0.00000  -0.00113  -0.00248   2.13921
    D1        0.00683  -0.00046   0.00000  -0.00660  -0.00664   0.00019
    D2       -3.13456  -0.00062   0.00000  -0.00840  -0.00846   3.14016
    D3       -3.13952   0.00004   0.00000  -0.00045  -0.00050  -3.14001
    D4        0.00227  -0.00012   0.00000  -0.00225  -0.00232  -0.00005
    D5       -0.00671   0.00065   0.00000   0.00659   0.00656  -0.00015
    D6       -3.13020   0.00022   0.00000   0.00268   0.00266  -3.12754
    D7        3.13954   0.00017   0.00000   0.00061   0.00054   3.14008
    D8        0.01605  -0.00026   0.00000  -0.00331  -0.00335   0.01270
    D9       -0.00388   0.00014   0.00000   0.00375   0.00373  -0.00015
   D10        3.11762   0.00042   0.00000  -0.00086  -0.00084   3.11678
   D11        3.13750   0.00031   0.00000   0.00570   0.00563  -3.14006
   D12       -0.02418   0.00059   0.00000   0.00109   0.00105  -0.02313
   D13        0.03777  -0.00021   0.00000  -0.00183  -0.00183   0.03594
   D14       -2.04840  -0.00083   0.00000  -0.00555  -0.00554  -2.05393
   D15        2.11332   0.00072   0.00000   0.00373   0.00371   2.11703
   D16       -3.10360  -0.00039   0.00000  -0.00390  -0.00389  -3.10749
   D17        1.09342  -0.00101   0.00000  -0.00762  -0.00760   1.08582
   D18       -1.02805   0.00054   0.00000   0.00166   0.00165  -1.02640
   D19        0.00006   0.00023   0.00000   0.00006  -0.00000   0.00005
   D20       -3.12486   0.00031   0.00000   0.00470   0.00478  -3.12007
   D21       -2.09447  -0.00163   0.00000   0.00000  -0.00000  -2.09447
   D22        1.00332   0.00014   0.00000   0.01010   0.01014   1.01346
   D23        1.02562  -0.00138   0.00000  -0.00505  -0.00504   1.02058
   D24       -2.15977   0.00039   0.00000   0.00505   0.00511  -2.15467
   D25        0.00376  -0.00049   0.00000  -0.00375  -0.00370   0.00005
   D26        3.12751   0.00006   0.00000   0.00057   0.00050   3.12801
   D27        3.13780   0.00070   0.00000   0.00473   0.00467  -3.14071
   D28        0.03266  -0.00055   0.00000  -0.00309  -0.00332   0.02935
   D29       -3.13808  -0.00117   0.00000  -0.00685  -0.00667   3.13844
   D30       -0.15847   0.00334   0.00000   0.03799   0.03786  -0.12061
   D31       -0.03592   0.00022   0.00000   0.00170   0.00204  -0.03388
   D32        2.94369   0.00472   0.00000   0.04654   0.04656   2.99026
   D33       -0.02172   0.00118   0.00000   0.00476   0.00474  -0.01698
   D34       -2.61579  -0.00771   0.00000  -0.06477  -0.06502  -2.68081
   D35        0.00447  -0.00085   0.00000  -0.00384  -0.00369   0.00077
   D36       -2.68836  -0.01035   0.00000  -0.07189  -0.07016  -2.75853
   D37        2.68690   0.00839   0.00000   0.06439   0.06314   2.75004
   D38       -0.00593  -0.00111   0.00000  -0.00366  -0.00333  -0.00926
   D39        2.61415   0.00566   0.00000   0.06342   0.06460   2.67875
   D40       -0.24726  -0.00087   0.00000  -0.00393  -0.00339  -0.25065
   D41        0.02115   0.00094   0.00000   0.00329   0.00301   0.02416
   D42       -2.84026  -0.00558   0.00000  -0.06405  -0.06498  -2.90524
   D43        0.02092   0.00042   0.00000   0.00125   0.00100   0.02192
   D44       -2.96034  -0.00308   0.00000  -0.03966  -0.04052  -3.00085
   D45        2.62801   0.00445   0.00000   0.05860   0.05988   2.68789
   D46       -0.35325   0.00095   0.00000   0.01768   0.01837  -0.33488
   D47       -0.00836   0.00105   0.00000   0.00281   0.00266  -0.00571
   D48       -2.61555  -0.00804   0.00000  -0.06594  -0.06599  -2.68155
   D49        0.02051  -0.00039   0.00000  -0.00069  -0.00075   0.01976
   D50        2.97084   0.00605   0.00000   0.06006   0.05940   3.03024
   D51       -0.02735  -0.00011   0.00000  -0.00107  -0.00081  -0.02816
   D52        2.83863   0.00699   0.00000   0.06788   0.06811   2.90674
   D53       -2.97311  -0.00562   0.00000  -0.05925  -0.05960  -3.03271
   D54       -0.10712   0.00147   0.00000   0.00970   0.00932  -0.09780
         Item               Value     Threshold  Converged?
 Maximum Force            0.071731     0.000450     NO 
 RMS     Force            0.014289     0.000300     NO 
 Maximum Displacement     0.248917     0.001800     NO 
 RMS     Displacement     0.073616     0.001200     NO 
 Predicted change in Energy=-3.399564D-02
 GradGradGradGradGradGradGradGradGradGradGradGradGradGradGradGradGradGrad

                          Input orientation:                          
 ---------------------------------------------------------------------
 Center     Atomic      Atomic             Coordinates (Angstroms)
 Number     Number       Type             X           Y           Z
 ---------------------------------------------------------------------
      1          6           0       -4.193982   -1.391999   -0.190677
      2          6           0       -2.892234   -0.994440   -0.601208
      3          6           0       -1.990480   -2.056256   -0.610972
      4          6           0       -2.564741    0.416771   -0.975931
      5          6           0       -4.294030   -2.737740    0.111231
      6          1           0       -5.035088   -0.717834   -0.118114
      7         16           0       -2.794765   -3.541040   -0.102588
      8          1           0       -5.188430   -3.251920    0.429929
      9          6           0       -0.592504   -2.101267   -0.983603
     10         16           0       -0.021036   -3.142586   -2.293754
     11          6           0        1.608674   -2.623191   -2.078551
     12          6           0        1.702792   -1.670003   -1.054512
     13          6           0        0.457532   -1.362084   -0.445149
     14          1           0        0.313279   -0.565713    0.270937
     15         16           0        3.134659   -0.716811   -1.225373
     16          6           0        3.606830   -1.599014   -2.655049
     17          6           0        2.688099   -2.571229   -3.003736
     18          1           0        4.459543   -1.302287   -3.247617
     19          1           0        2.701578   -3.067492   -3.965731
     20          1           0       -3.436184    1.062132   -0.851219
     21          1           0       -2.246869    0.486099   -2.018572
     22          1           0       -1.767642    0.822906   -0.344740
 ---------------------------------------------------------------------
                    Distance matrix (angstroms):
                    1          2          3          4          5
     1  C    0.000000
     2  C    1.421667   0.000000
     3  C    2.339509   1.393092   0.000000
     4  C    2.557870   1.496391   2.564923   0.000000
     5  C    1.382814   2.347699   2.508453   3.758097   0.000000
     6  H    1.080381   2.213981   3.362130   2.850577   2.163743
     7  S    2.565919   2.596785   1.763494   4.059545   1.714294
     8  H    2.198496   3.381120   3.569309   4.724350   1.079770
     9  C    3.755321   2.580707   1.447487   3.198483   3.912167
    10  S    4.990087   3.965227   2.809018   4.569039   4.919993
    11  C    6.225007   5.009345   3.927991   5.279634   6.296838
    12  C    5.966192   4.666491   3.739810   4.751068   6.201684
    13  C    4.658565   3.373492   2.549928   3.546856   4.977883
    14  H    4.605566   3.349590   2.882150   3.286785   5.096126
    15  S    7.432056   6.065485   5.332791   5.816391   7.813839
    16  C    8.183438   6.842631   5.976387   6.706051   8.448229
    17  C    7.527743   6.276824   5.280116   6.374360   7.647278
    18  H    9.178040   7.819647   7.008792   7.579993   9.485115
    19  H    8.037851   6.848963   5.855973   6.986638   8.103633
    20  H    2.652043   2.141933   3.445594   1.091538   4.012634
    21  H    3.264920   2.148817   2.917300   1.092222   4.372649
    22  H    3.288870   2.152494   2.900018   1.094859   4.389617
                    6          7          8          9         10
     6  H    0.000000
     7  S    3.604133   0.000000
     8  H    2.597202   2.469169   0.000000
     9  C    4.732812   2.774723   4.944150   0.000000
    10  S    5.979428   3.557183   5.842292   1.768451   0.000000
    11  C    7.184237   4.912957   7.272441   2.513264   1.723959
    12  C    6.868952   4.963362   7.224609   2.336536   2.583758
    13  C    5.539935   3.929711   6.017817   1.392443   2.610854
    14  H    5.364655   4.318800   6.124524   2.179963   3.650984
    15  S    8.244440   6.662957   8.856671   3.983330   4.121193
    16  C    9.049600   7.160094   9.466033   4.547570   3.959110
    17  C    8.450414   6.278455   8.619345   3.881257   2.858310
    18  H   10.014159   8.217555  10.507559   5.593505   4.936814
    19  H    8.954387   6.734828   9.033718   4.547269   3.195898
    20  H    2.502442   4.707553   4.829363   4.255717   5.605693
    21  H    3.582647   4.493221   5.349834   3.240763   4.265843
    22  H    3.619591   4.489726   5.376440   3.215569   4.751254
                   11         12         13         14         15
    11  C    0.000000
    12  C    1.402170   0.000000
    13  C    2.362947   1.420145   0.000000
    14  H    3.381029   2.215180   1.080646   0.000000
    15  S    2.586663   1.728587   2.862192   3.197181   0.000000
    16  C    2.318171   2.488396   3.854591   4.525106   1.745050
    17  C    1.422613   2.362734   3.603308   4.515014   2.607845
    18  H    3.352455   3.541835   4.886051   5.487647   2.487482
    19  H    2.225599   3.380199   4.509840   5.469207   3.636320
    20  H    6.366988   5.823655   4.604643   4.238819   6.817669
    21  H    4.953432   4.601958   3.633900   3.592008   5.571087
    22  H    5.126518   4.331545   3.120202   2.576345   5.213329
                   16         17         18         19         20
    16  C    0.000000
    17  C    1.382335   0.000000
    18  H    1.079955   2.192647   0.000000
    19  H    2.166517   1.082540   2.592697   0.000000
    20  H    7.742063   7.439185   8.583455   8.026587   0.000000
    21  H    6.246487   5.888269   7.048747   6.395824   1.763234
    22  H    6.331522   6.200326   7.191729   6.944112   1.760052
                   21         22
    21  H    0.000000
    22  H    1.773362   0.000000
 Stoichiometry    C11H8S3
 Framework group  C1[X(C11H8S3)]
 Deg. of freedom    60
 Full point group                 C1      NOp   1
 Largest Abelian subgroup         C1      NOp   1
 Largest concise Abelian subgroup C1      NOp   1
                         Standard orientation:                         
 ---------------------------------------------------------------------
 Center     Atomic      Atomic             Coordinates (Angstroms)
 Number     Number       Type             X           Y           Z
 ---------------------------------------------------------------------
      1          6           0        3.900657    0.816994    0.286180
      2          6           0        2.509374    1.088464    0.394675
      3          6           0        1.724672    0.044427   -0.090028
      4          6           0        1.983182    2.364355    0.972956
      5          6           0        4.183781   -0.415601   -0.273038
      6          1           0        4.674532    1.499080    0.607271
      7         16           0        2.750289   -1.264977   -0.676104
      8          1           0        5.168514   -0.827289   -0.436495
      9          6           0        0.286025   -0.105777   -0.144362
     10         16           0       -0.533291   -1.438043    0.680990
     11          6           0       -2.080523   -0.902106    0.141656
     12          6           0       -1.970172    0.267808   -0.623330
     13          6           0       -0.635064    0.728176   -0.772865
     14          1           0       -0.366468    1.674856   -1.219460
     15         16           0       -3.465532    1.134566   -0.648625
     16          6           0       -4.234221   -0.070729    0.352165
     17          6           0       -3.369762   -1.086931    0.713958
     18          1           0       -5.235558    0.064647    0.733348
     19          1           0       -3.602623   -1.799736    1.494713
     20          1           0        2.802479    3.031369    1.247366
     21          1           0        1.391957    2.177487    1.872113
     22          1           0        1.356033    2.900372    0.253175
 ---------------------------------------------------------------------
 Rotational constants (GHZ):           1.2633805           0.2759642           0.2458457
 Standard basis: 6-311+G(d,p) (5D, 7F)
 There are   394 symmetry adapted cartesian basis functions of A   symmetry.
 There are   380 symmetry adapted basis functions of A   symmetry.
   380 basis functions,   610 primitive gaussians,   394 cartesian basis functions
    61 alpha electrons       61 beta electrons
       nuclear repulsion energy      1123.1989788229 Hartrees.
 NAtoms=   22 NActive=   22 NUniq=   22 SFac= 1.00D+00 NAtFMM=   60 NAOKFM=F Big=F
 Integral buffers will be    131072 words long.
 Raffenetti 2 integral format.
 Two-electron integral symmetry is turned on.
 Nuclear repulsion after empirical dispersion term =     1123.1863274081 Hartrees.
 One-electron integrals computed using PRISM.
 NBasis=   380 RedAO= T EigKep=  2.71D-06  NBF=   380
 NBsUse=   378 1.00D-06 EigRej=  8.80D-07 NBFU=   378
 Initial guess from the checkpoint file:  "/tmp/pbs.4762230[55].pbs/Gau-1529332.chk"
 B after Tr=     0.000000   -0.000000   -0.000000
         Rot=    0.999987   -0.003408    0.002406   -0.003073 Ang=  -0.59 deg.
 ExpMin= 4.05D-02 ExpMax= 9.34D+04 ExpMxC= 3.17D+03 IAcc=3 IRadAn=         5 AccDes= 0.00D+00
 Harris functional with IExCor= 4639 and IRadAn=       5 diagonalized for initial guess.
 HarFok:  IExCor= 4639 AccDes= 0.00D+00 IRadAn=         5 IDoV= 1 UseB2=F ITyADJ=14
 ICtDFT=  3500011 ScaDFX=  1.000000  1.000000  1.000000  1.000000
 FoFCou: FMM=F IPFlag=           0 FMFlag=      100000 FMFlg1=           0
         NFxFlg=           0 DoJE=T BraDBF=F KetDBF=T FulRan=T
         wScrn=  0.000000 ICntrl=       500 IOpCl=  0 I1Cent=   200000004 NGrid=           0
         NMat0=    1 NMatS0=      1 NMatT0=    0 NMatD0=    1 NMtDS0=    0 NMtDT0=    0
 Petite list used in FoFCou.
 Requested convergence on RMS density matrix=1.00D-08 within 128 cycles.
 Requested convergence on MAX density matrix=1.00D-06.
 Requested convergence on             energy=1.00D-06.
 No special actions if energy rises.
 SCF Done:  E(RwB97XD) =  -1618.49380113     A.U. after   16 cycles
            NFock= 16  Conv=0.36D-08     -V/T= 2.0022
 Calling FoFJK, ICntrl=      2127 FMM=F ISym2X=0 I1Cent= 0 IOpClX= 0 NMat=1 NMatS=1 NMatT=0.
 ***** Axes restored to original set *****
 -------------------------------------------------------------------
 Center     Atomic                   Forces (Hartrees/Bohr)
 Number     Number              X              Y              Z
 -------------------------------------------------------------------
      1        6           0.000930835   -0.022088524    0.005471844
      2        6           0.010683113   -0.011903123    0.001569034
      3        6          -0.026668144   -0.002008456    0.004292755
      4        6           0.003022543    0.003375151    0.000309541
      5        6           0.002149254    0.020835167   -0.005986904
      6        1          -0.000423656    0.001786773   -0.000284059
      7       16           0.001905909    0.008241915   -0.002184264
      8        1           0.001945858   -0.002784428    0.000370673
      9        6           0.029493878    0.013002342    0.004140713
     10       16          -0.006062967   -0.003178175    0.009382716
     11        6          -0.000278231    0.018097855    0.003024691
     12        6          -0.008063529   -0.002265237   -0.017339577
     13        6          -0.017159575   -0.011507375   -0.009255876
     14        1          -0.001023367   -0.003287609    0.004282126
     15       16           0.009135462   -0.004882911   -0.001251377
     16        6          -0.019839228   -0.013544845   -0.004238584
     17        6           0.012814866    0.018097612    0.002198302
     18        1           0.002974187   -0.000213300    0.004526578
     19        1           0.003302414   -0.005014304    0.003588360
     20        1          -0.000512412   -0.000740509   -0.000082432
     21        1           0.002003172    0.000227272   -0.000257639
     22        1          -0.000330384   -0.000245292   -0.002276620
 -------------------------------------------------------------------
 Cartesian Forces:  Max     0.029493878 RMS     0.009396694

 GradGradGradGradGradGradGradGradGradGradGradGradGradGradGradGradGradGrad
 Berny optimization.
 Using GEDIIS/GDIIS optimizer.
 FormGI is forming the generalized inverse of G from B-inverse, IUseBI=4.
 Internal  Forces:  Max     0.024102404 RMS     0.004951302
 Search for a local minimum.
 Step number   2 out of a maximum of  127
 All quantities printed in internal units (Hartrees-Bohrs-Radians)
 Mixed Optimization -- RFO/linear search
 Update second derivatives using D2CorX and points    1    2
 DE= -3.48D-02 DEPred=-3.40D-02 R= 1.02D+00
 TightC=F SS=  1.41D+00  RLast= 3.70D-01 DXNew= 5.0454D-01 1.1100D+00
 Trust test= 1.02D+00 RLast= 3.70D-01 DXMaxT set to 5.05D-01
 ITU=  1  0
 Use linear search instead of GDIIS.
     Eigenvalues ---    0.00935   0.00981   0.01048   0.01209   0.01242
     Eigenvalues ---    0.01274   0.01290   0.01382   0.01462   0.01479
     Eigenvalues ---    0.01499   0.01587   0.01592   0.01706   0.02025
     Eigenvalues ---    0.02312   0.07244   0.07367   0.15490   0.15740
     Eigenvalues ---    0.15857   0.15960   0.16000   0.16000   0.16000
     Eigenvalues ---    0.16021   0.18881   0.22462   0.22519   0.23456
     Eigenvalues ---    0.24103   0.24453   0.24774   0.24988   0.25060
     Eigenvalues ---    0.25899   0.26429   0.28295   0.30924   0.31050
     Eigenvalues ---    0.31420   0.33687   0.33813   0.34531   0.34679
     Eigenvalues ---    0.34936   0.35253   0.35889   0.35900   0.36007
     Eigenvalues ---    0.36119   0.36133   0.36219   0.37096   0.38225
     Eigenvalues ---    0.38993   0.39505   0.40408   0.428191000.00000
     Eigenvalues --- 1000.000001000.000001000.000001000.000001000.00000
     Eigenvalues --- 1000.000001000.000001000.000001000.000001000.00000
     Eigenvalues --- 1000.000001000.000001000.000001000.000001000.00000
     Eigenvalues --- 1000.000001000.000001000.000001000.000001000.00000
     Eigenvalues --- 1000.000001000.000001000.000001000.000001000.00000
     Eigenvalues --- 1000.000001000.000001000.000001000.000001000.00000
     Eigenvalues --- 1000.000001000.000001000.000001000.000001000.00000
     Eigenvalues --- 1000.000001000.000001000.000001000.000001000.00000
     Eigenvalues --- 1000.000001000.000001000.000001000.000001000.00000
     Eigenvalues --- 1000.000001000.000001000.000001000.000001000.00000
     Eigenvalues --- 1000.000001000.000001000.000001000.000001000.00000
     Eigenvalues --- 1000.000001000.00000
 RFO step:  Lambda=-7.05359643D-03 EMin= 9.35030912D-03
 Quartic linear search produced a step of  0.47208.
 Iteration  1 RMS(Cart)=  0.07890533 RMS(Int)=  0.00587840
 Iteration  2 RMS(Cart)=  0.00747240 RMS(Int)=  0.00224848
 Iteration  3 RMS(Cart)=  0.00003118 RMS(Int)=  0.00224832
 Iteration  4 RMS(Cart)=  0.00000002 RMS(Int)=  0.00224832
 Iteration  1 RMS(Cart)=  0.00003090 RMS(Int)=  0.00001166
 Iteration  2 RMS(Cart)=  0.00001694 RMS(Int)=  0.00001303
 Iteration  3 RMS(Cart)=  0.00000928 RMS(Int)=  0.00001472
 Iteration  4 RMS(Cart)=  0.00000509 RMS(Int)=  0.00001585
 Iteration  5 RMS(Cart)=  0.00000279 RMS(Int)=  0.00001651
 Iteration  6 RMS(Cart)=  0.00000153 RMS(Int)=  0.00001688
 Iteration  7 RMS(Cart)=  0.00000084 RMS(Int)=  0.00001709
 Variable       Old X    -DE/DX   Delta X   Delta X   Delta X     New X
                                 (Linear)    (Quad)   (Total)
    R1        2.68656   0.00007  -0.01539   0.02145   0.00606   2.69262
    R2        2.61314  -0.01805  -0.04757   0.00270  -0.04495   2.56819
    R3        2.04162   0.00143   0.00175   0.00309   0.00484   2.04646
    R4        2.63256  -0.01948  -0.05972   0.01070  -0.04894   2.58363
    R5        2.82777   0.00396   0.00819   0.00468   0.01287   2.84063
    R6        3.33252  -0.01087  -0.02986  -0.01084  -0.04065   3.29187
    R7        2.73535   0.00519  -0.00669   0.02929   0.02260   2.75795
    R8        2.06271  -0.00004  -0.00079   0.00100   0.00021   2.06292
    R9        2.06400   0.00084   0.00292  -0.00082   0.00210   2.06610
   R10        2.06898  -0.00164  -0.00349  -0.00180  -0.00529   2.06370
   R11        3.23955  -0.00304  -0.02227   0.01999  -0.00234   3.23720
   R12        2.04047  -0.00018  -0.00012  -0.00052  -0.00064   2.03983
   R13        3.34189  -0.00734  -0.01988   0.00132  -0.02111   3.32077
   R14        2.63134  -0.02410  -0.06405   0.00198  -0.06370   2.56764
   R15        3.25781   0.00229  -0.00571   0.01703   0.01199   3.26980
   R16        2.64972  -0.01248  -0.03404  -0.00832  -0.03781   2.61191
   R17        2.68835   0.00178  -0.00335   0.00744   0.00565   2.69400
   R18        2.68369   0.00060  -0.01104   0.01429   0.00458   2.68826
   R19        3.26656   0.00211  -0.00352   0.01390   0.01026   3.27682
   R20        2.04212   0.00055   0.00156  -0.00009   0.00148   2.04360
   R21        3.29767  -0.00618  -0.01835   0.00543  -0.01502   3.28265
   R22        2.61223  -0.02064  -0.05543   0.00613  -0.05004   2.56219
   R23        2.04082  -0.00019  -0.00080   0.00039  -0.00041   2.04041
   R24        2.04570  -0.00085  -0.00330   0.00136  -0.00193   2.04377
    A1        1.98388   0.00014   0.00646  -0.01176  -0.00538   1.97851
    A2        2.16247  -0.00129  -0.00511  -0.00125  -0.00633   2.15614
    A3        2.13683   0.00115  -0.00134   0.01300   0.01169   2.14852
    A4        1.96230  -0.00137  -0.00452  -0.00199  -0.00645   1.95585
    A5        2.13700   0.00534   0.01792   0.00248   0.02032   2.15732
    A6        2.18388  -0.00397  -0.01340  -0.00051  -0.01398   2.16990
    A7        1.92250   0.00404   0.00855   0.00983   0.01852   1.94102
    A8        2.27926  -0.00910  -0.01872  -0.02205  -0.04084   2.23842
    A9        2.08117   0.00506   0.01013   0.01233   0.02238   2.10356
   A10        1.93291  -0.00107  -0.00594   0.00407  -0.00186   1.93104
   A11        1.94186   0.00032   0.00367  -0.00574  -0.00207   1.93978
   A12        1.94421   0.00126   0.00515   0.00076   0.00591   1.95012
   A13        1.87957   0.00069   0.00258   0.00256   0.00516   1.88473
   A14        1.87135   0.00054   0.00249   0.00349   0.00599   1.87734
   A15        1.89115  -0.00175  -0.00818  -0.00492  -0.01310   1.87805
   A16        1.94499   0.00048  -0.00397   0.00949   0.00538   1.95037
   A17        2.19913   0.00323   0.01101   0.00895   0.02003   2.21916
   A18        2.13898  -0.00371  -0.00702  -0.01839  -0.02535   2.11363
   A19        1.61110  -0.00329  -0.00651  -0.00558  -0.01211   1.59899
   A20        2.11896  -0.00295  -0.00479  -0.00995  -0.01471   2.10425
   A21        2.22969  -0.00133  -0.00504  -0.00039  -0.00540   2.22430
   A22        1.93412   0.00431   0.00995   0.01079   0.02048   1.95460
   A23        1.60640  -0.00285  -0.00586  -0.01104  -0.01481   1.59159
   A24        1.93845  -0.00281  -0.01091   0.01080  -0.00269   1.93576
   A25        2.27457   0.00465   0.01746   0.04566   0.05260   2.32718
   A26        1.98144   0.00073   0.00740  -0.00367   0.00292   1.98436
   A27        1.98440   0.00055   0.00830  -0.00557   0.00161   1.98601
   A28        1.93721  -0.00284  -0.01379   0.01577  -0.00077   1.93645
   A29        2.27731   0.00480   0.01881   0.04286   0.05107   2.32839
   A30        1.96081   0.00084  -0.00142  -0.00409  -0.00402   1.95679
   A31        2.14932  -0.00178  -0.00568   0.00699  -0.00228   2.14704
   A32        2.16659   0.00132   0.00972   0.00658   0.01271   2.17930
   A33        1.59714  -0.00158   0.00190  -0.01804  -0.01327   1.58387
   A34        1.96317   0.00272   0.00158   0.01669   0.01680   1.97998
   A35        2.12266  -0.00456  -0.00594  -0.01874  -0.02928   2.09337
   A36        2.18904   0.00245   0.00864   0.01673   0.02072   2.20977
   A37        1.94543   0.00099   0.00290  -0.01007  -0.00538   1.94005
   A38        2.17807  -0.00032   0.00570   0.00757   0.00681   2.18488
   A39        2.13921   0.00036  -0.00117   0.02477   0.01724   2.15646
    D1        0.00019  -0.00025  -0.00313  -0.00284  -0.00597  -0.00577
    D2        3.14016  -0.00051  -0.00400  -0.01566  -0.01979   3.12036
    D3       -3.14001   0.00002  -0.00023  -0.00016  -0.00042  -3.14043
    D4       -0.00005  -0.00024  -0.00110  -0.01298  -0.01424  -0.01429
    D5       -0.00015   0.00030   0.00310  -0.00293   0.00014  -0.00001
    D6       -3.12754  -0.00002   0.00126  -0.00718  -0.00599  -3.13353
    D7        3.14008   0.00003   0.00026  -0.00558  -0.00539   3.13469
    D8        0.01270  -0.00029  -0.00158  -0.00983  -0.01153   0.00117
    D9       -0.00015   0.00008   0.00176   0.00707   0.00890   0.00876
   D10        3.11678   0.00047  -0.00040   0.01296   0.01256   3.12934
   D11       -3.14006   0.00034   0.00266   0.02030   0.02281  -3.11725
   D12       -0.02313   0.00073   0.00050   0.02619   0.02647   0.00334
   D13        0.03594  -0.00026  -0.00086  -0.00889  -0.00974   0.02621
   D14       -2.05393  -0.00062  -0.00261  -0.01104  -0.01363  -2.06756
   D15        2.11703   0.00053   0.00175  -0.00131   0.00045   2.11749
   D16       -3.10749  -0.00055  -0.00184  -0.02338  -0.02524  -3.13273
   D17        1.08582  -0.00091  -0.00359  -0.02553  -0.02913   1.05669
   D18       -1.02640   0.00024   0.00078  -0.01580  -0.01505  -1.04145
   D19        0.00005   0.00007  -0.00000  -0.00744  -0.00755  -0.00750
   D20       -3.12007  -0.00004   0.00226  -0.01201  -0.00986  -3.12994
   D21       -2.09447  -0.00127  -0.00000   0.00000   0.00000  -2.09447
   D22        1.01346   0.00022   0.00479   0.01873   0.02377   1.03723
   D23        1.02058  -0.00089  -0.00238   0.00625   0.00380   1.02438
   D24       -2.15467   0.00060   0.00241   0.02498   0.02757  -2.12709
   D25        0.00005  -0.00021  -0.00175   0.00591   0.00416   0.00421
   D26        3.12801   0.00016   0.00024   0.01024   0.01028   3.13829
   D27       -3.14071   0.00042   0.00221  -0.00598  -0.00412   3.13836
   D28        0.02935  -0.00077  -0.00157  -0.02169  -0.02412   0.00523
   D29        3.13844  -0.00051  -0.00315   0.00856   0.00581  -3.13893
   D30       -0.12061   0.00302   0.01787   0.09475   0.11238  -0.00823
   D31       -0.03388   0.00075   0.00096   0.02535   0.02736  -0.00652
   D32        2.99026   0.00427   0.02198   0.11153   0.13393   3.12418
   D33       -0.01698   0.00071   0.00224   0.01220   0.01453  -0.00245
   D34       -2.68081  -0.00558  -0.03069  -0.11860  -0.15222  -2.83302
   D35        0.00077  -0.00026  -0.00174   0.00015  -0.00152  -0.00074
[...]
     15         16           0       -3.491244    1.100547   -0.729134
     16          6           0       -4.280863   -0.209289    0.094313
     17          6           0       -3.415410   -1.103012    0.641664
     18          1           0       -5.359797   -0.238713    0.124305
     19          1           0       -3.725407   -1.980869    1.190678
     20          1           0        2.646259    2.523485    1.922542
     21          1           0        1.000494    2.163304    1.373535
     22          1           0        2.081246    3.132942    0.366777
 ---------------------------------------------------------------------
 Rotational constants (GHZ):           1.2894147           0.2730845           0.2461418

 **********************************************************************

            Population analysis using the SCF Density.

 **********************************************************************

 Orbital symmetries:
       Occupied  (A) (A) (A) (A) (A) (A) (A) (A) (A) (A) (A) (A)
                 (A) (A) (A) (A) (A) (A) (A) (A) (A) (A) (A) (A)
                 (A) (A) (A) (A) (A) (A) (A) (A) (A) (A) (A) (A)
                 (A) (A) (A) (A) (A) (A) (A) (A) (A) (A) (A) (A)
                 (A) (A) (A) (A) (A) (A) (A) (A) (A) (A) (A) (A)
                 (A)
       Virtual   (A) (A) (A) (A) (A) (A) (A) (A) (A) (A) (A) (A)
                 (A) (A) (A) (A) (A) (A) (A) (A) (A) (A) (A) (A)
                 (A) (A) (A) (A) (A) (A) (A) (A) (A) (A) (A) (A)
                 (A) (A) (A) (A) (A) (A) (A) (A) (A) (A) (A) (A)
                 (A) (A) (A) (A) (A) (A) (A) (A) (A) (A) (A) (A)
                 (A) (A) (A) (A) (A) (A) (A) (A) (A) (A) (A) (A)
                 (A) (A) (A) (A) (A) (A) (A) (A) (A) (A) (A) (A)
                 (A) (A) (A) (A) (A) (A) (A) (A) (A) (A) (A) (A)
                 (A) (A) (A) (A) (A) (A) (A) (A) (A) (A) (A) (A)
                 (A) (A) (A) (A) (A) (A) (A) (A) (A) (A) (A) (A)
                 (A) (A) (A) (A) (A) (A) (A) (A) (A) (A) (A) (A)
                 (A) (A) (A) (A) (A) (A) (A) (A) (A) (A) (A) (A)
                 (A) (A) (A) (A) (A) (A) (A) (A) (A) (A) (A) (A)
                 (A) (A) (A) (A) (A) (A) (A) (A) (A) (A) (A) (A)
                 (A) (A) (A) (A) (A) (A) (A) (A) (A) (A) (A) (A)
                 (A) (A) (A) (A) (A) (A) (A) (A) (A) (A) (A) (A)
                 (A) (A) (A) (A) (A) (A) (A) (A) (A) (A) (A) (A)
                 (A) (A) (A) (A) (A) (A) (A) (A) (A) (A) (A) (A)
                 (A) (A) (A) (A) (A) (A) (A) (A) (A) (A) (A) (A)
                 (A) (A) (A) (A) (A) (A) (A) (A) (A) (A) (A) (A)
                 (A) (A) (A) (A) (A) (A) (A) (A) (A) (A) (A) (A)
                 (A) (A) (A) (A) (A) (A) (A) (A) (A) (A) (A) (A)
                 (A) (A) (A) (A) (A) (A) (A) (A) (A) (A) (A) (A)
                 (A) (A) (A) (A) (A) (A) (A) (A) (A) (A) (A) (A)
                 (A) (A) (A) (A) (A) (A) (A) (A) (A) (A) (A) (A)
                 (A) (A) (A) (A) (A) (A) (A) (A) (A) (A) (A) (A)
                 (A) (A) (A) (A) (A) (A)
 The electronic state is 1-A.
 Alpha  occ. eigenvalues --  -89.05119 -89.04996 -89.04665 -10.33611 -10.32579
 Alpha  occ. eigenvalues --  -10.32441 -10.32379 -10.32370 -10.31758 -10.30546
 Alpha  occ. eigenvalues --  -10.30533 -10.30463 -10.29214 -10.28524  -8.09164
 Alpha  occ. eigenvalues --   -8.09037  -8.08748  -6.04013  -6.03889  -6.03640
 Alpha  occ. eigenvalues --   -6.03575  -6.03518  -6.03227  -6.03193  -6.03087
 Alpha  occ. eigenvalues --   -6.02856  -1.02228  -0.99659  -0.95299  -0.87771
 Alpha  occ. eigenvalues --   -0.86863  -0.85591  -0.81085  -0.80271  -0.77534
 Alpha  occ. eigenvalues --   -0.70571  -0.66569  -0.66007  -0.63251  -0.60922
 Alpha  occ. eigenvalues --   -0.58766  -0.58478  -0.52939  -0.52364  -0.52169
 Alpha  occ. eigenvalues --   -0.50538  -0.50087  -0.47941  -0.47643  -0.47067
 Alpha  occ. eigenvalues --   -0.45999  -0.45583  -0.44603  -0.42992  -0.42317
 Alpha  occ. eigenvalues --   -0.42008  -0.36956  -0.33071  -0.32539  -0.30780
 Alpha  occ. eigenvalues --   -0.28730
 Alpha virt. eigenvalues --    0.01625   0.04613   0.05537   0.05933   0.06481
 Alpha virt. eigenvalues --    0.06977   0.07168   0.07216   0.07955   0.09009
 Alpha virt. eigenvalues --    0.09072   0.09262   0.09577   0.09868   0.10218
 Alpha virt. eigenvalues --    0.10672   0.11440   0.11709   0.12023   0.12305
 Alpha virt. eigenvalues --    0.12769   0.12959   0.13431   0.14251   0.14702
 Alpha virt. eigenvalues --    0.15267   0.15642   0.15804   0.16675   0.16924
 Alpha virt. eigenvalues --    0.17083   0.17813   0.18571   0.19032   0.19486
 Alpha virt. eigenvalues --    0.19619   0.20087   0.20212   0.20571   0.21196
 Alpha virt. eigenvalues --    0.21840   0.22073   0.22433   0.22630   0.23171
 Alpha virt. eigenvalues --    0.23539   0.23724   0.24299   0.24320   0.24922
 Alpha virt. eigenvalues --    0.25125   0.25783   0.26060   0.26594   0.26972
 Alpha virt. eigenvalues --    0.27336   0.27701   0.28087   0.28577   0.29135
 Alpha virt. eigenvalues --    0.29318   0.29453   0.29807   0.30465   0.31076
 Alpha virt. eigenvalues --    0.31531   0.31899   0.32657   0.33299   0.33369
 Alpha virt. eigenvalues --    0.34692   0.35475   0.36266   0.37055   0.37857
 Alpha virt. eigenvalues --    0.38088   0.39177   0.40223   0.40556   0.41557
 Alpha virt. eigenvalues --    0.41995   0.42507   0.43405   0.43883   0.45906
 Alpha virt. eigenvalues --    0.47659   0.48060   0.50044   0.51436   0.52100
 Alpha virt. eigenvalues --    0.53126   0.53240   0.54513   0.55976   0.57180
 Alpha virt. eigenvalues --    0.57752   0.58649   0.60606   0.62114   0.63016
 Alpha virt. eigenvalues --    0.64005   0.64177   0.64943   0.65608   0.66351
 Alpha virt. eigenvalues --    0.67461   0.68474   0.69601   0.70655   0.71047
 Alpha virt. eigenvalues --    0.71287   0.71538   0.72281   0.73521   0.74562
 Alpha virt. eigenvalues --    0.75161   0.77264   0.78112   0.78920   0.79894
 Alpha virt. eigenvalues --    0.80087   0.80590   0.81512   0.82268   0.83110
 Alpha virt. eigenvalues --    0.84417   0.85363   0.85683   0.86725   0.87486
 Alpha virt. eigenvalues --    0.88419   0.88875   0.89501   0.90552   0.91153
 Alpha virt. eigenvalues --    0.91435   0.92020   0.92551   0.92953   0.93545
 Alpha virt. eigenvalues --    0.95637   0.96024   0.97995   0.98840   0.99253
 Alpha virt. eigenvalues --    1.00226   1.02765   1.03066   1.04995   1.06003
 Alpha virt. eigenvalues --    1.06470   1.07364   1.08796   1.10000   1.11738
 Alpha virt. eigenvalues --    1.12222   1.12485   1.14036   1.15253   1.15383
 Alpha virt. eigenvalues --    1.16253   1.17357   1.18775   1.21075   1.22110
 Alpha virt. eigenvalues --    1.26382   1.27986   1.28904   1.31239   1.36222
 Alpha virt. eigenvalues --    1.42753   1.43143   1.44648   1.45145   1.46485
 Alpha virt. eigenvalues --    1.47740   1.50769   1.55673   1.56825   1.60526
 Alpha virt. eigenvalues --    1.61958   1.63887   1.64468   1.66060   1.66372
 Alpha virt. eigenvalues --    1.67966   1.68813   1.69301   1.70035   1.71342
 Alpha virt. eigenvalues --    1.72646   1.74834   1.76131   1.78399   1.80265
 Alpha virt. eigenvalues --    1.81605   1.82665   1.83482   1.84003   1.85562
 Alpha virt. eigenvalues --    1.86231   1.86944   1.90317   1.92150   1.92641
 Alpha virt. eigenvalues --    1.92786   1.95283   1.97557   1.98439   2.00562
 Alpha virt. eigenvalues --    2.02252   2.03253   2.04370   2.06189   2.06636
 Alpha virt. eigenvalues --    2.08013   2.10914   2.12018   2.14473   2.15111
 Alpha virt. eigenvalues --    2.17105   2.17515   2.18305   2.19194   2.21016
 Alpha virt. eigenvalues --    2.22780   2.23018   2.23955   2.25653   2.26650
 Alpha virt. eigenvalues --    2.27926   2.30109   2.36605   2.39317   2.42830
 Alpha virt. eigenvalues --    2.47349   2.50699   2.51853   2.53664   2.54947
 Alpha virt. eigenvalues --    2.57540   2.62279   2.63997   2.66049   2.68158
 Alpha virt. eigenvalues --    2.69984   2.71993   2.73252   2.77078   2.79831
 Alpha virt. eigenvalues --    2.81138   2.81179   2.83142   2.83330   2.84142
 Alpha virt. eigenvalues --    2.85189   2.86813   2.89571   2.94799   2.94961
 Alpha virt. eigenvalues --    2.98794   3.01793   3.03838   3.05805   3.07003
 Alpha virt. eigenvalues --    3.12027   3.14434   3.16624   3.18462   3.23299
 Alpha virt. eigenvalues --    3.25400   3.28637   3.32794   3.40902   3.41165
 Alpha virt. eigenvalues --    3.42698   3.46952   3.53173   3.55420   3.58480
 Alpha virt. eigenvalues --    3.64323   3.68150   3.81316   3.90211   3.93839
 Alpha virt. eigenvalues --    4.05428   4.08537   4.16919   4.23666   4.44056
 Alpha virt. eigenvalues --    4.46421   4.62290   8.10522   8.11613   8.13641
 Alpha virt. eigenvalues --   17.42264  17.44452  17.45065  17.59618  17.60892
 Alpha virt. eigenvalues --   17.65507  17.66797  17.68802  17.71390  23.60878
 Alpha virt. eigenvalues --   23.77924  23.90762  23.94982  23.98865  24.09324
 Alpha virt. eigenvalues --   24.17469  24.23830  24.27997  24.30068  24.30355
 Alpha virt. eigenvalues --  189.35724 189.37069 189.39306
          Condensed to atoms (all electrons):
               1          2          3          4          5          6
     1  C   13.040641  -8.949536   8.051564  -3.170388  -1.672029   0.343748
     2  C   -8.949536  28.493692 -18.792403   2.855177   3.565079  -0.004558
     3  C    8.051564 -18.792403  26.971316  -4.671437  -3.319034   0.005887
     4  C   -3.170388   2.855177  -4.671437   9.718197   0.561828   0.005042
     5  C   -1.672029   3.565079  -3.319034   0.561828   6.394455   0.001657
     6  H    0.343748  -0.004558   0.005887   0.005042   0.001657   0.496170
     7  S   -1.881310   1.642929  -2.871074   0.937364   0.366050   0.004677
     8  H    0.041605  -0.055477   0.043799   0.000114   0.373208  -0.004196
     9  C    0.436717  -3.209825   2.840080  -0.685358  -0.211746  -0.002045
    10  S    0.117998   0.155560   0.703673  -0.045194   0.025421   0.000001
    11  C   -0.107786  -0.052632  -1.113463   0.067894   0.014966  -0.000139
    12  C    0.002425   0.173359   1.126920   0.276437   0.020398  -0.000041
    13  C   -0.027101  -0.019954  -2.864852  -0.191211  -0.106487   0.000049
    14  H    0.006372   0.042455   0.013004  -0.004724   0.002872  -0.000002
    15  S   -0.005864   0.063274  -0.048121   0.007659   0.003767   0.000001
    16  C    0.003218  -0.022379   0.010423  -0.000826  -0.001096  -0.000001
    17  C   -0.025880   0.014025  -0.237786   0.005217   0.006522  -0.000004
    18  H    0.000000  -0.000025  -0.000148  -0.000011  -0.000000   0.000000
    19  H   -0.000006   0.000177  -0.000299   0.000025   0.000003   0.000000
    20  H    0.057327  -0.057695  -0.045844   0.404153   0.011491   0.000308
    21  H   -0.033446  -0.143447   0.165945   0.336455  -0.011912   0.000114
    22  H    0.028177   0.009667  -0.042503   0.369656   0.000250   0.000109
               7          8          9         10         11         12
     1  C   -1.881310   0.041605   0.436717   0.117998  -0.107786   0.002425
     2  C    1.642929  -0.055477  -3.209825   0.155560  -0.052632   0.173359
     3  C   -2.871074   0.043799   2.840080   0.703673  -1.113463   1.126920
     4  C    0.937364   0.000114  -0.685358  -0.045194   0.067894   0.276437
     5  C    0.366050   0.373208  -0.211746   0.025421   0.014966   0.020398
     6  H    0.004677  -0.004196  -0.002045   0.000001  -0.000139  -0.000041
     7  S   18.137765  -0.027224  -0.425604  -0.159370   0.207477  -0.040028
     8  H   -0.027224   0.448773  -0.006373  -0.000270  -0.000357   0.000055
     9  C   -0.425604  -0.006373  12.771909   1.611501  -1.608092   3.427977
    10  S   -0.159370  -0.000270   1.611501  18.450067  -0.389417   2.070851
    11  C    0.207477  -0.000357  -1.608092  -0.389417  17.948988  -4.398979
    12  C   -0.040028   0.000055   3.427977   2.070851  -4.398979  17.736179
    13  C    0.406836  -0.000247  -6.108728  -4.113754   1.370894 -10.852171
    14  H   -0.008510  -0.000000   0.068409   0.014573  -0.059090   0.066418
    15  S   -0.002747  -0.000001  -0.828908   0.186868   0.330279  -0.646132
    16  C    0.001356  -0.000000   0.187323   0.212430   1.381989  -0.186517
    17  C    0.035720  -0.000022  -2.474040  -2.228346  -7.864336  -2.337555
    18  H   -0.000000   0.000000   0.003182  -0.001347  -0.010412   0.029143
    19  H    0.000031   0.000000  -0.010213   0.016095   0.005680  -0.048200
    20  H    0.000570  -0.000004  -0.007525   0.000037   0.000739  -0.004171
    21  H    0.003016   0.000004   0.032607  -0.002678  -0.007973  -0.011202
    22  H    0.001864  -0.000005  -0.003468  -0.001189   0.004308  -0.011240
              13         14         15         16         17         18
     1  C   -0.027101   0.006372  -0.005864   0.003218  -0.025880   0.000000
     2  C   -0.019954   0.042455   0.063274  -0.022379   0.014025  -0.000025
     3  C   -2.864852   0.013004  -0.048121   0.010423  -0.237786  -0.000148
     4  C   -0.191211  -0.004724   0.007659  -0.000826   0.005217  -0.000011
     5  C   -0.106487   0.002872   0.003767  -0.001096   0.006522  -0.000000
     6  H    0.000049  -0.000002   0.000001  -0.000001  -0.000004   0.000000
     7  S    0.406836  -0.008510  -0.002747   0.001356   0.035720  -0.000000
     8  H   -0.000247  -0.000000  -0.000001  -0.000000  -0.000022   0.000000
     9  C   -6.108728   0.068409  -0.828908   0.187323  -2.474040   0.003182
    10  S   -4.113754   0.014573   0.186868   0.212430  -2.228346  -0.001347
    11  C    1.370894  -0.059090   0.330279   1.381989  -7.864336  -0.010412
    12  C  -10.852171   0.066418  -0.646132  -0.186517  -2.337555   0.029143
    13  C   23.806735   0.218076  -0.434012  -0.850346   5.148270   0.007912
    14  H    0.218076   0.476467   0.007488   0.001951  -0.007559  -0.000004
    15  S   -0.434012   0.007488  17.498157   0.399386  -0.054244  -0.043758
    16  C   -0.850346   0.001951   0.399386   5.851042  -1.190865   0.377546
    17  C    5.148270  -0.007559  -0.054244  -1.190865  16.602155   0.005727
    18  H    0.007912  -0.000004  -0.043758   0.377546   0.005727   0.442243
    19  H    0.001042   0.000003   0.008156   0.025402   0.362791  -0.003672
    20  H    0.006579   0.000056   0.000111  -0.000027   0.000024   0.000000
    21  H    0.034872  -0.000888   0.000249  -0.000305  -0.000998  -0.000000
    22  H    0.008380  -0.000558   0.000087   0.000007   0.000440   0.000000
              19         20         21         22
     1  C   -0.000006   0.057327  -0.033446   0.028177
     2  C    0.000177  -0.057695  -0.143447   0.009667
     3  C   -0.000299  -0.045844   0.165945  -0.042503
     4  C    0.000025   0.404153   0.336455   0.369656
     5  C    0.000003   0.011491  -0.011912   0.000250
     6  H    0.000000   0.000308   0.000114   0.000109
     7  S    0.000031   0.000570   0.003016   0.001864
     8  H    0.000000  -0.000004   0.000004  -0.000005
     9  C   -0.010213  -0.007525   0.032607  -0.003468
    10  S    0.016095   0.000037  -0.002678  -0.001189
    11  C    0.005680   0.000739  -0.007973   0.004308
    12  C   -0.048200  -0.004171  -0.011202  -0.011240
    13  C    0.001042   0.006579   0.034872   0.008380
    14  H    0.000003   0.000056  -0.000888  -0.000558
    15  S    0.008156   0.000111   0.000249   0.000087
    16  C    0.025402  -0.000027  -0.000305   0.000007
    17  C    0.362791   0.000024  -0.000998   0.000440
    18  H   -0.003672   0.000000  -0.000000   0.000000
    19  H    0.480420   0.000000   0.000000   0.000000
    20  H    0.000000   0.522030  -0.023747  -0.028806
    21  H    0.000000  -0.023747   0.498370  -0.023293
    22  H    0.000000  -0.028806  -0.023293   0.501710
 Mulliken charges:
               1
     1  C   -0.256445
     2  C    0.292538
     3  C    0.074354
     4  C   -0.776070
     5  C   -0.025662
     6  H    0.153221
     7  S   -0.329790
     8  H    0.186618
     9  C    0.202221
    10  S   -0.623512
    11  C    0.279462
    12  C   -0.393926
    13  C    0.559219
    14  H    0.163191
    15  S   -0.441695
    16  C   -0.199713
    17  C    0.240744
    18  H    0.193624
    19  H    0.162566
    20  H    0.164395
    21  H    0.188255
    22  H    0.186406
 Sum of Mulliken charges =  -0.00000
 Mulliken charges with hydrogens summed into heavy atoms:
               1
     1  C   -0.103224
     2  C    0.292538
     3  C    0.074354
     4  C   -0.237015
     5  C    0.160956
     7  S   -0.329790
     9  C    0.202221
    10  S   -0.623512
    11  C    0.279462
    12  C   -0.393926
    13  C    0.722410
    15  S   -0.441695
    16  C   -0.006089
    17  C    0.403310
 Electronic spatial extent (au):  <R**2>=           4307.9012
 Charge=              0.0000 electrons
 Dipole moment (field-independent basis, Debye):
    X=              0.2288    Y=              0.8804    Z=              0.4399  Tot=              1.0104
 Quadrupole moment (field-independent basis, Debye-Ang):
   XX=            -86.7373   YY=            -99.2025   ZZ=           -105.8812
   XY=              4.6956   XZ=             -1.4532   YZ=             -1.1299
 Traceless Quadrupole moment (field-independent basis, Debye-Ang):
   XX=             10.5364   YY=             -1.9289   ZZ=             -8.6075
   XY=              4.6956   XZ=             -1.4532   YZ=             -1.1299
 Octapole moment (field-independent basis, Debye-Ang**2):
  XXX=             -2.3216  YYY=              4.0112  ZZZ=              1.4998  XYY=              5.0237
  XXY=            -12.7731  XXZ=              5.9302  XZZ=              0.6267  YZZ=              1.0181
  YYZ=              2.5311  XYZ=             16.2776
 Hexadecapole moment (field-independent basis, Debye-Ang**3):
 XXXX=          -4073.1894 YYYY=           -909.1114 ZZZZ=           -391.3849 XXXY=             17.0231
 XXXZ=            -48.6702 YYYX=             21.8571 YYYZ=            -13.2752 ZZZX=              5.7317
 ZZZY=             -0.7449 XXYY=           -909.0749 XXZZ=           -895.0604 YYZZ=           -206.8377
 XXYZ=              9.6951 YYXZ=             -8.3597 ZZXY=              5.4865
 N-N= 1.125915685189D+03 E-N=-6.076328586192D+03  KE= 1.615205587668D+03
 Unable to Open any file for archive entry.
 1\1\GINC-CX3-11-7\FOpt\RwB97XD\6-311+G(d,p)\C11H8S3\NS5018\26-Oct-2021
 \0\\# opt=modredundant wb97xd/6-311+g(d,p)\\pBTTT_-120.pdb\\0,1\C,-4.1
 754776081,-1.4265280969,-0.0519383454\C,-2.9046214568,-1.0051403472,-0
 .5505209756\C,-2.0226847317,-2.051309203,-0.6437004439\C,-2.6019847996
 ,0.4135727081,-0.9331509796\C,-4.238916772,-2.7590529482,0.2094515026\
 H,-5.0104307542,-0.7520463174,0.0912222437\S,-2.7499931681,-3.54512857
 22,-0.1299542577\H,-5.0790527515,-3.3254132167,0.5823811673\C,-0.63661
 63355,-2.0112033661,-1.1041415296\S,-0.1297918079,-2.9588109425,-2.491
 237478\C,1.47726993,-2.3282720347,-2.3790048001\C,1.5822851546,-1.4291
 676839,-1.3354701854\C,0.3770885344,-1.2481353072,-0.6026668318\H,0.25
 47125649,-0.6051246059,0.2577859832\S,3.1904177275,-0.7971487553,-1.22
 48961825\C,3.6885689979,-1.7559005683,-2.5849963444\C,2.6905747921,-2.
 520869488,-3.1009166\H,4.7106694224,-1.6935563938,-2.9274684204\H,2.81
 57601485,-3.180895061,-3.9475818821\H,-3.4390107836,0.8484987777,-1.48
 49021485\H,-1.7087069772,0.4735894304,-1.5568301584\H,-2.435059326,1.0
 33041992,-0.0464633332\\Version=ES64L-G16RevC.01\State=1-A\HF=-1618.50
 93511\RMSD=8.447e-09\RMSF=1.631e-04\Dipole=-0.1330272,0.3733369,-0.030
 8606\Quadrupole=5.9278415,-2.6954277,-3.2324138,-1.604353,-5.586895,2.
 4564017\PG=C01 [X(C11H8S3)]\\@
 The archive entry for this job was punched.


 I HAVE NOT FAILED, I HAVE ONLY DISCOVERED 10,000
 WAYS THAT DIDN'T WORK.  -- THOMAS A. EDISON
 Job cpu time:       0 days  5 hours 25 minutes 19.8 seconds.
 Elapsed time:       0 days  0 hours 40 minutes 57.3 seconds.
 File lengths (MBytes):  RWF=     91 Int=      0 D2E=      0 Chk=     13 Scr=      1
 Normal termination of Gaussian 16 at Tue Oct 26 01:37:53 2021.
