 Entering Gaussian System, Link 0=g16
 Input=pBTTT_165.gjf
 Output=pBTTT_165.log
 Initial command:
 /apps/gaussian/g16-c01-avx/g16/l1.exe "/tmp/pbs.4762230[340].pbs/Gau-3263620.inp" -scrdir="/tmp/pbs.4762230[340].pbs/"
 Entering Link 1 = /apps/gaussian/g16-c01-avx/g16/l1.exe PID=   3263621.
  
 Copyright (c) 1988-2019, Gaussian, Inc.  All Rights Reserved.
  
 This is part of the Gaussian(R) 16 program.  It is based on
 the Gaussian(R) 09 system (copyright 2009, Gaussian, Inc.),
 the Gaussian(R) 03 system (copyright 2003, Gaussian, Inc.),
 the Gaussian(R) 98 system (copyright 1998, Gaussian, Inc.),
 the Gaussian(R) 94 system (copyright 1995, Gaussian, Inc.),
 the Gaussian 92(TM) system (copyright 1992, Gaussian, Inc.),
 the Gaussian 90(TM) system (copyright 1990, Gaussian, Inc.),
 the Gaussian 88(TM) system (copyright 1988, Gaussian, Inc.),
 the Gaussian 86(TM) system (copyright 1986, Carnegie Mellon
 University), and the Gaussian 82(TM) system (copyright 1983,
 Carnegie Mellon University). Gaussian is a federally registered
 trademark of Gaussian, Inc.
  
 This software contains proprietary and confidential information,
 including trade secrets, belonging to Gaussian, Inc.
  
 This software is provided under written license and may be
 used, copied, transmitted, or stored only in accord with that
 written license.
  
 The following legend is applicable only to US Government
 contracts under FAR:
  
                    RESTRICTED RIGHTS LEGEND
  
 Use, reproduction and disclosure by the US Government is
 subject to restrictions as set forth in subparagraphs (a)
 and (c) of the Commercial Computer Software - Restricted
 Rights clause in FAR 52.227-19.
  
 Gaussian, Inc.
 340 Quinnipiac St., Bldg. 40, Wallingford CT 06492
  
  
 ---------------------------------------------------------------
 Warning -- This program may not be used in any manner that
 competes with the business of Gaussian, Inc. or will provide
 assistance to any competitor of Gaussian, Inc.  The licensee
 of this program is prohibited from giving any competitor of
 Gaussian, Inc. access to this program.  By using this program,
 the user acknowledges that Gaussian, Inc. is engaged in the
 business of creating and licensing software in the field of
 computational chemistry and represents and warrants to the
 licensee that it is not a competitor of Gaussian, Inc. and that
 it will not use this program in any manner prohibited above.
 ---------------------------------------------------------------
  

 Cite this work as:
 Gaussian 16, Revision C.01,
 M. J. Frisch, G. W. Trucks, H. B. Schlegel, G. E. Scuseria, 
 M. A. Robb, J. R. Cheeseman, G. Scalmani, V. Barone, 
 G. A. Petersson, H. Nakatsuji, X. Li, M. Caricato, A. V. Marenich, 
 J. Bloino, B. G. Janesko, R. Gomperts, B. Mennucci, H. P. Hratchian, 
 J. V. Ortiz, A. F. Izmaylov, J. L. Sonnenberg, D. Williams-Young, 
 F. Ding, F. Lipparini, F. Egidi, J. Goings, B. Peng, A. Petrone, 
 T. Henderson, D. Ranasinghe, V. G. Zakrzewski, J. Gao, N. Rega, 
 G. Zheng, W. Liang, M. Hada, M. Ehara, K. Toyota, R. Fukuda, 
 J. Hasegawa, M. Ishida, T. Nakajima, Y. Honda, O. Kitao, H. Nakai, 
 T. Vreven, K. Throssell, J. A. Montgomery, Jr., J. E. Peralta, 
 F. Ogliaro, M. J. Bearpark, J. J. Heyd, E. N. Brothers, K. N. Kudin, 
 V. N. Staroverov, T. A. Keith, R. Kobayashi, J. Normand, 
 K. Raghavachari, A. P. Rendell, J. C. Burant, S. S. Iyengar, 
 J. Tomasi, M. Cossi, J. M. Millam, M. Klene, C. Adamo, R. Cammi, 
 J. W. Ochterski, R. L. Martin, K. Morokuma, O. Farkas, 
 J. B. Foresman, and D. J. Fox, Gaussian, Inc., Wallingford CT, 2019.
 
 ******************************************
 Gaussian 16:  ES64L-G16RevC.01  3-Jul-2019
                26-Oct-2021 
 ******************************************
 %mem=100GB
 %nprocshared=8
 Will use up to    8 processors via shared memory.
 --------------------------------------
 # opt=modredundant wb97xd/6-311+g(d,p)
 --------------------------------------
 1/18=120,19=15,26=3,38=1/1,3;
 2/9=110,12=2,17=6,18=5,40=1/2;
 3/5=4,6=6,7=111,11=2,25=1,30=1,71=1,74=-58/1,2,3;
 4//1;
 5/5=2,38=5/2;
 6/7=2,8=2,9=2,10=2,28=1/1;
 7//1,2,3,16;
 1/18=20,19=15,26=3/3(2);
 2/9=110/2;
 99//99;
 2/9=110/2;
 3/5=4,6=6,7=111,11=2,25=1,30=1,71=1,74=-58/1,2,3;
 4/5=5,16=3,69=1/1;
 5/5=2,38=5/2;
 7//1,2,3,16;
 1/18=20,19=15,26=3/3(-5);
 2/9=110/2;
 6/7=2,8=2,9=2,10=2,19=2,28=1/1;
 99/9=1/99;
 -------------
 pBTTT_165.pdb
 -------------
 Symbolic Z-matrix:
 Charge =  0 Multiplicity = 1
 C                    -4.25     -1.36     -0.21 
 C                    -2.93     -0.95     -0.61 
 C                    -1.97     -2.05     -0.62 
 C                    -2.66      0.47     -0.96 
 C                    -4.33     -2.76      0.1 
 H                    -5.1      -0.7      -0.14 
 S                    -2.8      -3.56     -0.11 
 H                    -5.23     -3.27      0.41 
 C                    -0.56     -2.13     -0.97 
 S                     0.452    -3.534    -0.512 
 C                     1.862    -2.868    -1.263 
 C                     1.601    -1.6      -1.894 
 C                     0.238    -1.182    -1.75 
 H                    -0.18     -0.347    -2.29 
 S                     2.692    -1.265    -3.197 
 C                     3.538    -2.792    -2.934 
 C                     2.956    -3.562    -1.859 
 H                     4.276    -3.171    -3.626 
 H                     3.149    -4.624    -1.726 
 H                    -3.55      1.09     -0.83 
 H                    -2.35      0.56     -2. 
 H                    -1.88      0.89     -0.31 
 
 The following ModRedundant input section has been read:
 D       2       3       9      10 F                                           
 

 GradGradGradGradGradGradGradGradGradGradGradGradGradGradGradGradGradGrad
 Berny optimization.
 Initialization pass.
                           ----------------------------
                           !    Initial Parameters    !
                           ! (Angstroms and Degrees)  !
 --------------------------                            --------------------------
 ! Name  Definition              Value          Derivative Info.                !
 --------------------------------------------------------------------------------
 ! R1    R(1,2)                  1.4389         estimate D2E/DX2                !
 ! R2    R(1,5)                  1.4361         estimate D2E/DX2                !
 ! R3    R(1,6)                  1.0784         estimate D2E/DX2                !
 ! R4    R(2,3)                  1.46           estimate D2E/DX2                !
 ! R5    R(2,4)                  1.4872         estimate D2E/DX2                !
 ! R6    R(3,7)                  1.797          estimate D2E/DX2                !
 ! R7    R(3,9)                  1.455          estimate D2E/DX2                !
 ! R8    R(4,20)                 1.0924         estimate D2E/DX2                !
 ! R9    R(4,21)                 1.0889         estimate D2E/DX2                !
 ! R10   R(4,22)                 1.0988         estimate D2E/DX2                !
 ! R11   R(5,7)                  1.7393         estimate D2E/DX2                !
 ! R12   R(5,8)                  1.0799         estimate D2E/DX2                !
 ! R13   R(9,10)                 1.7903         estimate D2E/DX2                !
 ! R14   R(9,13)                 1.4642         estimate D2E/DX2                !
 ! R15   R(10,11)                1.7308         estimate D2E/DX2                !
 ! R16   R(11,12)                1.4402         estimate D2E/DX2                !
 ! R17   R(11,17)                1.4261         estimate D2E/DX2                !
 ! R18   R(12,13)                1.4329         estimate D2E/DX2                !
 ! R19   R(12,15)                1.7321         estimate D2E/DX2                !
 ! R20   R(13,14)                1.0787         estimate D2E/DX2                !
 ! R21   R(15,16)                1.7654         estimate D2E/DX2                !
 ! R22   R(16,17)                1.4447         estimate D2E/DX2                !
 ! R23   R(16,18)                1.0803         estimate D2E/DX2                !
 ! R24   R(17,19)                1.0876         estimate D2E/DX2                !
 ! A1    A(2,1,5)              112.8843         estimate D2E/DX2                !
 ! A2    A(2,1,6)              124.5209         estimate D2E/DX2                !
 ! A3    A(5,1,6)              122.5942         estimate D2E/DX2                !
 ! A4    A(1,2,3)              112.9799         estimate D2E/DX2                !
 ! A5    A(1,2,4)              120.2665         estimate D2E/DX2                !
 ! A6    A(3,2,4)              126.7536         estimate D2E/DX2                !
 ! A7    A(2,3,7)              109.1138         estimate D2E/DX2                !
 ! A8    A(2,3,9)              132.8639         estimate D2E/DX2                !
 ! A9    A(7,3,9)              118.0132         estimate D2E/DX2                !
 ! A10   A(2,4,20)             111.468          estimate D2E/DX2                !
 ! A11   A(2,4,21)             110.8154         estimate D2E/DX2                !
 ! A12   A(2,4,22)             110.7706         estimate D2E/DX2                !
 ! A13   A(20,4,21)            107.3779         estimate D2E/DX2                !
 ! A14   A(20,4,22)            106.918          estimate D2E/DX2                !
 ! A15   A(21,4,22)            109.3476         estimate D2E/DX2                !
 ! A16   A(1,5,7)              111.9209         estimate D2E/DX2                !
 ! A17   A(1,5,8)              124.6643         estimate D2E/DX2                !
 ! A18   A(7,5,8)              123.4062         estimate D2E/DX2                !
 ! A19   A(3,7,5)               93.0997         estimate D2E/DX2                !
 ! A20   A(3,9,10)             121.9632         estimate D2E/DX2                !
 ! A21   A(3,9,13)             128.367          estimate D2E/DX2                !
 ! A22   A(10,9,13)            109.6306         estimate D2E/DX2                !
 ! A23   A(9,10,11)             92.7358         estimate D2E/DX2                !
 ! A24   A(10,11,12)           112.412          estimate D2E/DX2                !
 ! A25   A(10,11,17)           128.2458         estimate D2E/DX2                !
 ! A26   A(12,11,17)           112.6056         estimate D2E/DX2                !
 ! A27   A(11,12,13)           112.6558         estimate D2E/DX2                !
 ! A28   A(11,12,15)           112.6887         estimate D2E/DX2                !
 ! A29   A(13,12,15)           128.1925         estimate D2E/DX2                !
 ! A30   A(9,13,12)            112.5245         estimate D2E/DX2                !
 ! A31   A(9,13,14)            123.826          estimate D2E/DX2                !
 ! A32   A(12,13,14)           122.9639         estimate D2E/DX2                !
 ! A33   A(12,15,16)            91.2883         estimate D2E/DX2                !
 ! A34   A(15,16,17)           112.2595         estimate D2E/DX2                !
 ! A35   A(15,16,18)           122.3693         estimate D2E/DX2                !
 ! A36   A(17,16,18)           124.3902         estimate D2E/DX2                !
 ! A37   A(11,17,16)           111.1396         estimate D2E/DX2                !
 ! A38   A(11,17,19)           124.0726         estimate D2E/DX2                !
 ! A39   A(16,17,19)           122.6804         estimate D2E/DX2                !
 ! D1    D(5,1,2,3)              0.3915         estimate D2E/DX2                !
 ! D2    D(5,1,2,4)           -179.5973         estimate D2E/DX2                !
 ! D3    D(6,1,2,3)           -179.8811         estimate D2E/DX2                !
 ! D4    D(6,1,2,4)              0.13           estimate D2E/DX2                !
 ! D5    D(2,1,5,7)             -0.3845         estimate D2E/DX2                !
 ! D6    D(2,1,5,8)           -179.3471         estimate D2E/DX2                !
 ! D7    D(6,1,5,7)            179.8822         estimate D2E/DX2                !
 ! D8    D(6,1,5,8)              0.9196         estimate D2E/DX2                !
 ! D9    D(1,2,3,7)             -0.2224         estimate D2E/DX2                !
 ! D10   D(1,2,3,9)            178.6265         estimate D2E/DX2                !
 ! D11   D(4,2,3,7)            179.7656         estimate D2E/DX2                !
 ! D12   D(4,2,3,9)             -1.3855         estimate D2E/DX2                !
 ! D13   D(1,2,4,20)             2.1641         estimate D2E/DX2                !
 ! D14   D(1,2,4,21)          -117.3645         estimate D2E/DX2                !
 ! D15   D(1,2,4,22)           121.0843         estimate D2E/DX2                !
 ! D16   D(3,2,4,20)          -177.8231         estimate D2E/DX2                !
 ! D17   D(3,2,4,21)            62.6483         estimate D2E/DX2                !
 ! D18   D(3,2,4,22)           -58.9029         estimate D2E/DX2                !
 ! D19   D(2,3,7,5)              0.0033         estimate D2E/DX2                !
 ! D20   D(9,3,7,5)           -179.041          estimate D2E/DX2                !
 ! D21   D(2,3,9,10)           165.0014         Frozen                          !
 ! D22   D(2,3,9,13)           -17.5201         estimate D2E/DX2                !
 ! D23   D(7,3,9,10)           -16.2306         estimate D2E/DX2                !
 ! D24   D(7,3,9,13)           161.2479         estimate D2E/DX2                !
 ! D25   D(1,5,7,3)              0.2153         estimate D2E/DX2                !
 ! D26   D(8,5,7,3)            179.1932         estimate D2E/DX2                !
 ! D27   D(3,9,10,11)          179.7693         estimate D2E/DX2                !
 ! D28   D(13,9,10,11)           1.868          estimate D2E/DX2                !
 ! D29   D(3,9,13,12)         -179.8095         estimate D2E/DX2                !
 ! D30   D(3,9,13,14)           -9.0694         estimate D2E/DX2                !
 ! D31   D(10,9,13,12)          -2.0806         estimate D2E/DX2                !
 ! D32   D(10,9,13,14)         168.6596         estimate D2E/DX2                !
 ! D33   D(9,10,11,12)          -1.2165         estimate D2E/DX2                !
 ! D34   D(9,10,11,17)        -149.921          estimate D2E/DX2                !
 ! D35   D(10,11,12,13)          0.21           estimate D2E/DX2                !
 ! D36   D(10,11,12,15)       -154.0416         estimate D2E/DX2                !
 ! D37   D(17,11,12,13)        153.9843         estimate D2E/DX2                !
 ! D38   D(17,11,12,15)         -0.2673         estimate D2E/DX2                !
 ! D39   D(10,11,17,16)        149.766          estimate D2E/DX2                !
 ! D40   D(10,11,17,19)        -14.058          estimate D2E/DX2                !
 ! D41   D(12,11,17,16)          1.1103         estimate D2E/DX2                !
 ! D42   D(12,11,17,19)       -162.7137         estimate D2E/DX2                !
 ! D43   D(11,12,13,9)           1.2417         estimate D2E/DX2                !
 ! D44   D(11,12,13,14)       -169.5906         estimate D2E/DX2                !
 ! D45   D(15,12,13,9)         150.5801         estimate D2E/DX2                !
 ! D46   D(15,12,13,14)        -20.2522         estimate D2E/DX2                !
 ! D47   D(11,12,15,16)         -0.497          estimate D2E/DX2                !
 ! D48   D(13,12,15,16)       -149.8272         estimate D2E/DX2                !
 ! D49   D(12,15,16,17)          1.1339         estimate D2E/DX2                !
 ! D50   D(12,15,16,18)        170.2558         estimate D2E/DX2                !
 ! D51   D(15,16,17,11)         -1.4788         estimate D2E/DX2                !
 ! D52   D(15,16,17,19)        162.609          estimate D2E/DX2                !
 ! D53   D(18,16,17,11)       -170.3417         estimate D2E/DX2                !
 ! D54   D(18,16,17,19)         -6.2539         estimate D2E/DX2                !
 --------------------------------------------------------------------------------
 Trust Radius=3.00D-01 FncErr=1.00D-07 GrdErr=1.00D-06 EigMax=2.50D+02 EigMin=1.00D-04
 Number of steps in this run=    127 maximum allowed number of steps=    132.
 GradGradGradGradGradGradGradGradGradGradGradGradGradGradGradGradGradGrad

                          Input orientation:                          
 ---------------------------------------------------------------------
 Center     Atomic      Atomic             Coordinates (Angstroms)
 Number     Number       Type             X           Y           Z
 ---------------------------------------------------------------------
      1          6           0       -4.250000   -1.360000   -0.210000
      2          6           0       -2.930000   -0.950000   -0.610000
      3          6           0       -1.970000   -2.050000   -0.620000
      4          6           0       -2.660000    0.470000   -0.960000
      5          6           0       -4.330000   -2.760000    0.100000
      6          1           0       -5.100000   -0.700000   -0.140000
      7         16           0       -2.800000   -3.560000   -0.110000
      8          1           0       -5.230000   -3.270000    0.410000
      9          6           0       -0.560000   -2.130000   -0.970000
     10         16           0        0.452000   -3.534000   -0.512000
     11          6           0        1.862000   -2.868000   -1.263000
     12          6           0        1.601000   -1.600000   -1.894000
     13          6           0        0.238000   -1.182000   -1.750000
     14          1           0       -0.180000   -0.347000   -2.290000
     15         16           0        2.692000   -1.265000   -3.197000
     16          6           0        3.538000   -2.792000   -2.934000
     17          6           0        2.956000   -3.562000   -1.859000
     18          1           0        4.276000   -3.171000   -3.626000
     19          1           0        3.149000   -4.624000   -1.726000
     20          1           0       -3.550000    1.090000   -0.830000
     21          1           0       -2.350000    0.560000   -2.000000
     22          1           0       -1.880000    0.890000   -0.310000
 ---------------------------------------------------------------------
                    Distance matrix (angstroms):
                    1          2          3          4          5
     1  C    0.000000
     2  C    1.438923   0.000000
     3  C    2.417147   1.460034   0.000000
     4  C    2.537617   1.487212   2.634787   0.000000
     5  C    1.436141   2.395871   2.567509   3.787532   0.000000
     6  H    1.078425   2.234346   3.442354   2.827525   2.212261
     7  S    2.636759   2.660639   1.796970   4.121044   1.739253
     8  H    2.234480   3.422397   3.630000   4.740190   1.079907
     9  C    3.845335   2.671872   1.454991   3.342170   3.969219
    10  S    5.189054   4.257298   2.842535   5.090900   4.882739
    11  C    6.382744   5.202730   3.970743   5.628724   6.341159
    12  C    6.093247   4.754063   3.818065   4.828393   6.363835
    13  C    4.748203   3.374855   2.627849   3.428062   5.174863
    14  H    4.681610   3.278492   2.982148   2.930322   5.362571
    15  S    7.557947   6.196667   5.384366   6.054610   7.900235
    16  C    8.373992   7.115403   6.020235   7.276848   8.432770
    17  C    7.713264   6.559538   5.299693   6.971706   7.587271
    18  H    9.361701   8.121301   7.021766   8.274813   9.386971
    19  H    8.227828   7.190130   5.835484   7.764024   7.921124
    20  H    2.622384   2.143455   3.521378   1.092428   4.036806
    21  H    3.240447   2.132745   2.976726   1.088944   4.399182
    22  H    3.269465   2.139650   2.957668   1.098772   4.415099
                    6          7          8          9         10
     6  H    0.000000
     7  S    3.670218   0.000000
     8  H    2.631406   2.501879   0.000000
     9  C    4.831708   2.793224   5.001290   0.000000
    10  S    6.244569   3.276856   5.762370   1.790286   0.000000
    11  C    7.377723   4.852063   7.297739   2.548838   1.730797
    12  C    6.984978   5.137417   7.399992   2.409273   2.640167
    13  C    5.596308   4.192127   6.238940   1.464209   2.666523
    14  H    5.380846   4.684033   6.429341   2.250753   3.703738
    15  S    8.389263   6.705122   8.932444   4.035252   4.168355
    16  C    9.316541   6.981049   9.396204   4.592292   3.992498
    17  C    8.720387   6.015857   8.499660   3.899128   2.843450
    18  H   10.303757   7.910964  10.327785   5.614705   4.944870
    19  H    9.271417   6.255730   8.752340   4.533018   3.152095
    20  H    2.466313   4.764808   4.834211   4.396374   6.123602
    21  H    3.551014   4.555107   5.363898   3.391327   5.179400
    22  H    3.595191   4.548505   5.389480   3.361309   5.005078
                   11         12         13         14         15
    11  C    0.000000
    12  C    1.440176   0.000000
    13  C    2.391054   1.432909   0.000000
    14  H    3.402930   2.213320   1.078679   0.000000
    15  S    2.645537   1.732142   2.850055   3.148612   0.000000
    16  C    2.367909   2.500886   3.857973   4.496252   1.765393
    17  C    1.426074   2.384679   3.614389   4.511816   2.671357
    18  H    3.391603   3.552955   4.876571   5.442041   2.515141
    19  H    2.225820   3.401339   4.507977   5.449134   3.695345
    20  H    6.718854   5.907707   4.511910   3.943789   7.078932
    21  H    5.480447   4.504136   3.129666   2.369736   5.494106
    22  H    5.388259   4.563608   3.294345   2.888004   5.820823
                   16         17         18         19         20
    16  C    0.000000
    17  C    1.444731   0.000000
    18  H    1.080347   2.239993   0.000000
    19  H    2.228634   1.087558   2.644114   0.000000
    20  H    8.350837   8.063993   9.339166   8.850379   0.000000
    21  H    6.839357   6.720446   7.776125   7.562270   1.757783
    22  H    7.056715   6.753266   8.086032   7.596058   1.760483
                   21         22
    21  H    0.000000
    22  H    1.784909   0.000000
 Stoichiometry    C11H8S3
 Framework group  C1[X(C11H8S3)]
 Deg. of freedom    60
 Full point group                 C1      NOp   1
 Largest Abelian subgroup         C1      NOp   1
 Largest concise Abelian subgroup C1      NOp   1
                         Standard orientation:                         
 ---------------------------------------------------------------------
 Center     Atomic      Atomic             Coordinates (Angstroms)
 Number     Number       Type             X           Y           Z
 ---------------------------------------------------------------------
      1          6           0       -4.033724    0.736310   -0.139167
      2          6           0       -2.678151    1.155606    0.099815
      3          6           0       -1.721298    0.054674    0.035924
      4          6           0       -2.373234    2.584768    0.376075
      5          6           0       -4.147680   -0.675046   -0.379141
      6          1           0       -4.886789    1.396066   -0.137661
      7         16           0       -2.602029   -1.470412   -0.321181
      8          1           0       -5.073612   -1.189577   -0.589161
      9          6           0       -0.274834   -0.009120    0.179705
     10         16           0        0.584502   -1.558329    0.437812
     11          6           0        2.132827   -0.786474    0.488683
     12          6           0        2.043813    0.636673    0.286604
     13          6           0        0.695937    1.083766    0.095376
     14          1           0        0.449334    2.082198   -0.230000
     15         16           0        3.498877    1.310847   -0.368065
     16          6           0        4.275571   -0.274470   -0.379359
     17          6           0        3.397272   -1.317606    0.097830
     18          1           0        5.223972   -0.450443   -0.865895
     19          1           0        3.583858   -2.372862   -0.087648
     20          1           0       -3.282512    3.189668    0.402698
     21          1           0       -1.729158    2.999625   -0.397786
     22          1           0       -1.885690    2.697133    1.354326
 ---------------------------------------------------------------------
 Rotational constants (GHZ):           1.1907615           0.2785042           0.2312974
 Standard basis: 6-311+G(d,p) (5D, 7F)
 There are   394 symmetry adapted cartesian basis functions of A   symmetry.
 There are   380 symmetry adapted basis functions of A   symmetry.
   380 basis functions,   610 primitive gaussians,   394 cartesian basis functions
    61 alpha electrons       61 beta electrons
       nuclear repulsion energy      1107.9168769179 Hartrees.
 NAtoms=   22 NActive=   22 NUniq=   22 SFac= 1.00D+00 NAtFMM=   60 NAOKFM=F Big=F
 Integral buffers will be    131072 words long.
 Raffenetti 2 integral format.
 Two-electron integral symmetry is turned on.
 Nuclear repulsion after empirical dispersion term =     1107.9044505826 Hartrees.
 One-electron integrals computed using PRISM.
 NBasis=   380 RedAO= T EigKep=  1.03D-06  NBF=   380
 NBsUse=   379 1.00D-06 EigRej=  2.70D-07 NBFU=   379
 ExpMin= 4.05D-02 ExpMax= 9.34D+04 ExpMxC= 3.17D+03 IAcc=3 IRadAn=         5 AccDes= 0.00D+00
 Harris functional with IExCor= 4639 and IRadAn=       5 diagonalized for initial guess.
 HarFok:  IExCor= 4639 AccDes= 0.00D+00 IRadAn=         5 IDoV= 1 UseB2=F ITyADJ=14
 ICtDFT=  3500011 ScaDFX=  1.000000  1.000000  1.000000  1.000000
 FoFCou: FMM=F IPFlag=           0 FMFlag=      100000 FMFlg1=           0
         NFxFlg=           0 DoJE=T BraDBF=F KetDBF=T FulRan=T
         wScrn=  0.000000 ICntrl=       500 IOpCl=  0 I1Cent=   200000004 NGrid=           0
         NMat0=    1 NMatS0=      1 NMatT0=    0 NMatD0=    1 NMtDS0=    0 NMtDT0=    0
 Petite list used in FoFCou.
 Requested convergence on RMS density matrix=1.00D-08 within 128 cycles.
 Requested convergence on MAX density matrix=1.00D-06.
 Requested convergence on             energy=1.00D-06.
 No special actions if energy rises.
 SCF Done:  E(RwB97XD) =  -1618.46111903     A.U. after   19 cycles
            NFock= 19  Conv=0.39D-08     -V/T= 2.0028

 **********************************************************************

            Population analysis using the SCF Density.

 **********************************************************************

 Orbital symmetries:
       Occupied  (A) (A) (A) (A) (A) (A) (A) (A) (A) (A) (A) (A)
                 (A) (A) (A) (A) (A) (A) (A) (A) (A) (A) (A) (A)
                 (A) (A) (A) (A) (A) (A) (A) (A) (A) (A) (A) (A)
                 (A) (A) (A) (A) (A) (A) (A) (A) (A) (A) (A) (A)
                 (A) (A) (A) (A) (A) (A) (A) (A) (A) (A) (A) (A)
                 (A)
       Virtual   (A) (A) (A) (A) (A) (A) (A) (A) (A) (A) (A) (A)
                 (A) (A) (A) (A) (A) (A) (A) (A) (A) (A) (A) (A)
                 (A) (A) (A) (A) (A) (A) (A) (A) (A) (A) (A) (A)
                 (A) (A) (A) (A) (A) (A) (A) (A) (A) (A) (A) (A)
                 (A) (A) (A) (A) (A) (A) (A) (A) (A) (A) (A) (A)
                 (A) (A) (A) (A) (A) (A) (A) (A) (A) (A) (A) (A)
                 (A) (A) (A) (A) (A) (A) (A) (A) (A) (A) (A) (A)
                 (A) (A) (A) (A) (A) (A) (A) (A) (A) (A) (A) (A)
                 (A) (A) (A) (A) (A) (A) (A) (A) (A) (A) (A) (A)
                 (A) (A) (A) (A) (A) (A) (A) (A) (A) (A) (A) (A)
                 (A) (A) (A) (A) (A) (A) (A) (A) (A) (A) (A) (A)
                 (A) (A) (A) (A) (A) (A) (A) (A) (A) (A) (A) (A)
                 (A) (A) (A) (A) (A) (A) (A) (A) (A) (A) (A) (A)
                 (A) (A) (A) (A) (A) (A) (A) (A) (A) (A) (A) (A)
                 (A) (A) (A) (A) (A) (A) (A) (A) (A) (A) (A) (A)
                 (A) (A) (A) (A) (A) (A) (A) (A) (A) (A) (A) (A)
                 (A) (A) (A) (A) (A) (A) (A) (A) (A) (A) (A) (A)
                 (A) (A) (A) (A) (A) (A) (A) (A) (A) (A) (A) (A)
                 (A) (A) (A) (A) (A) (A) (A) (A) (A) (A) (A) (A)
                 (A) (A) (A) (A) (A) (A) (A) (A) (A) (A) (A) (A)
                 (A) (A) (A) (A) (A) (A) (A) (A) (A) (A) (A) (A)
                 (A) (A) (A) (A) (A) (A) (A) (A) (A) (A) (A) (A)
                 (A) (A) (A) (A) (A) (A) (A) (A) (A) (A) (A) (A)
                 (A) (A) (A) (A) (A) (A) (A) (A) (A) (A) (A) (A)
                 (A) (A) (A) (A) (A) (A) (A) (A) (A) (A) (A) (A)
                 (A) (A) (A) (A) (A) (A) (A) (A) (A) (A) (A) (A)
                 (A) (A) (A) (A) (A) (A)
 The electronic state is 1-A.
 Alpha  occ. eigenvalues --  -89.05859 -89.05716 -89.05600 -10.35605 -10.34675
 Alpha  occ. eigenvalues --  -10.33553 -10.33517 -10.33361 -10.33131 -10.32203
 Alpha  occ. eigenvalues --  -10.31788 -10.31688 -10.30601 -10.29150  -8.09803
 Alpha  occ. eigenvalues --   -8.09617  -8.09563  -6.04655  -6.04456  -6.04434
 Alpha  occ. eigenvalues --   -6.04291  -6.04079  -6.04057  -6.03869  -6.03733
 Alpha  occ. eigenvalues --   -6.03595  -1.00770  -0.97837  -0.93580  -0.87910
 Alpha  occ. eigenvalues --   -0.87087  -0.84858  -0.80573  -0.79444  -0.76988
 Alpha  occ. eigenvalues --   -0.70437  -0.66723  -0.66229  -0.62369  -0.60782
 Alpha  occ. eigenvalues --   -0.58118  -0.57795  -0.52955  -0.52406  -0.51904
 Alpha  occ. eigenvalues --   -0.50084  -0.49871  -0.48071  -0.47695  -0.46632
 Alpha  occ. eigenvalues --   -0.45988  -0.45594  -0.44819  -0.43246  -0.42022
 Alpha  occ. eigenvalues --   -0.41482  -0.37374  -0.33576  -0.32992  -0.30616
 Alpha  occ. eigenvalues --   -0.26065
 Alpha virt. eigenvalues --   -0.01574   0.03790   0.05102   0.05590   0.06266
 Alpha virt. eigenvalues --    0.06308   0.06770   0.07144   0.07693   0.08530
 Alpha virt. eigenvalues --    0.08802   0.08961   0.09490   0.09636   0.10571
 Alpha virt. eigenvalues --    0.10633   0.10893   0.11469   0.11787   0.12266
 Alpha virt. eigenvalues --    0.12404   0.13070   0.13400   0.14006   0.14037
 Alpha virt. eigenvalues --    0.14830   0.15689   0.16119   0.16325   0.16942
 Alpha virt. eigenvalues --    0.17296   0.17800   0.18166   0.18408   0.19023
 Alpha virt. eigenvalues --    0.19483   0.19742   0.20499   0.20691   0.21187
 Alpha virt. eigenvalues --    0.21552   0.22039   0.22164   0.22458   0.22874
 Alpha virt. eigenvalues --    0.23647   0.24219   0.24562   0.24842   0.25245
 Alpha virt. eigenvalues --    0.25389   0.25573   0.25808   0.26307   0.26535
 Alpha virt. eigenvalues --    0.26926   0.27456   0.27997   0.28405   0.28476
 Alpha virt. eigenvalues --    0.28927   0.29243   0.29813   0.30439   0.30772
 Alpha virt. eigenvalues --    0.31180   0.31681   0.32303   0.32545   0.32786
 Alpha virt. eigenvalues --    0.33230   0.34397   0.34864   0.35574   0.36324
 Alpha virt. eigenvalues --    0.37110   0.38217   0.38516   0.39876   0.40102
 Alpha virt. eigenvalues --    0.40388   0.41229   0.42301   0.43456   0.43986
 Alpha virt. eigenvalues --    0.44360   0.45446   0.47389   0.49878   0.50028
 Alpha virt. eigenvalues --    0.50463   0.50884   0.52416   0.53129   0.55364
 Alpha virt. eigenvalues --    0.56289   0.57812   0.59819   0.61954   0.62383
 Alpha virt. eigenvalues --    0.63504   0.63550   0.63977   0.64910   0.65706
 Alpha virt. eigenvalues --    0.66180   0.67374   0.68354   0.69046   0.69704
 Alpha virt. eigenvalues --    0.70194   0.70338   0.72336   0.72778   0.73388
 Alpha virt. eigenvalues --    0.74931   0.75494   0.76502   0.77266   0.77792
 Alpha virt. eigenvalues --    0.78245   0.79031   0.79755   0.80348   0.81800
 Alpha virt. eigenvalues --    0.82394   0.82937   0.83720   0.83948   0.84781
 Alpha virt. eigenvalues --    0.85714   0.86337   0.86703   0.88313   0.89621
 Alpha virt. eigenvalues --    0.89654   0.90316   0.91262   0.91981   0.93334
 Alpha virt. eigenvalues --    0.94203   0.95733   0.96298   0.97334   0.98141
 Alpha virt. eigenvalues --    1.00004   1.00227   1.01327   1.01718   1.02846
 Alpha virt. eigenvalues --    1.03777   1.04561   1.05795   1.06728   1.07896
 Alpha virt. eigenvalues --    1.08609   1.10308   1.11606   1.13209   1.13753
 Alpha virt. eigenvalues --    1.14750   1.16253   1.18697   1.19818   1.24055
 Alpha virt. eigenvalues --    1.25702   1.29801   1.30858   1.32165   1.35973
 Alpha virt. eigenvalues --    1.40511   1.42181   1.43478   1.45841   1.47342
 Alpha virt. eigenvalues --    1.48815   1.49634   1.54662   1.55524   1.57635
 Alpha virt. eigenvalues --    1.60088   1.61787   1.62868   1.63889   1.64777
 Alpha virt. eigenvalues --    1.66316   1.67177   1.69131   1.70138   1.70572
 Alpha virt. eigenvalues --    1.72140   1.72908   1.73548   1.75687   1.76471
 Alpha virt. eigenvalues --    1.77818   1.78391   1.79091   1.81270   1.82724
 Alpha virt. eigenvalues --    1.83658   1.84913   1.86471   1.87991   1.89808
 Alpha virt. eigenvalues --    1.91119   1.91456   1.93152   1.94195   1.96375
 Alpha virt. eigenvalues --    1.98913   1.99928   2.02417   2.03587   2.04085
 Alpha virt. eigenvalues --    2.04644   2.07010   2.08251   2.09116   2.10163
 Alpha virt. eigenvalues --    2.11783   2.15200   2.15844   2.16220   2.17712
 Alpha virt. eigenvalues --    2.18458   2.19567   2.22175   2.23112   2.23377
 Alpha virt. eigenvalues --    2.25568   2.26824   2.29930   2.35584   2.39963
 Alpha virt. eigenvalues --    2.43078   2.45266   2.45840   2.48063   2.53149
 Alpha virt. eigenvalues --    2.54491   2.56356   2.58984   2.61491   2.64231
 Alpha virt. eigenvalues --    2.67203   2.69077   2.71060   2.74503   2.75734
 Alpha virt. eigenvalues --    2.77806   2.79849   2.81258   2.81834   2.82366
 Alpha virt. eigenvalues --    2.83600   2.84508   2.87656   2.88605   2.93558
 Alpha virt. eigenvalues --    2.94454   2.96154   3.02670   3.03650   3.04632
 Alpha virt. eigenvalues --    3.08433   3.09837   3.10495   3.12746   3.14125
 Alpha virt. eigenvalues --    3.16054   3.23457   3.25703   3.30863   3.36387
 Alpha virt. eigenvalues --    3.37624   3.41964   3.46365   3.49566   3.50030
 Alpha virt. eigenvalues --    3.58672   3.66682   3.75678   3.90057   3.91946
 Alpha virt. eigenvalues --    4.00504   4.04226   4.15547   4.19782   4.40797
 Alpha virt. eigenvalues --    4.43577   4.63623   8.05563   8.07494   8.13286
 Alpha virt. eigenvalues --   17.41649  17.42791  17.44100  17.56532  17.58865
 Alpha virt. eigenvalues --   17.60571  17.61442  17.65754  17.66702  23.60636
 Alpha virt. eigenvalues --   23.74294  23.86616  23.89893  23.95038  23.98853
 Alpha virt. eigenvalues --   24.01733  24.07582  24.09081  24.09204  24.12008
 Alpha virt. eigenvalues --  189.30028 189.32442 189.39241
          Condensed to atoms (all electrons):
               1          2          3          4          5          6
     1  C   12.490197 -10.409727  10.120011  -2.159748  -1.408280   0.359126
     2  C  -10.409727  33.247578 -26.714511   2.655900   3.079012  -0.018200
     3  C   10.120011 -26.714511  38.769997  -6.110230  -3.078005  -0.000826
     4  C   -2.159748   2.655900  -6.110230   9.512974   0.303047   0.009454
     5  C   -1.408280   3.079012  -3.078005   0.303047   6.098334  -0.003959
     6  H    0.359126  -0.018200  -0.000826   0.009454  -0.003959   0.491080
     7  S   -0.733579  -0.766277  -1.423062   0.685483  -0.003693   0.005938
     8  H    0.009496  -0.002694  -0.006276   0.003338   0.395314  -0.003332
     9  C   -1.661643   4.643674  -5.498157   0.476211   0.538818  -0.001681
    10  S   -0.270509   1.510879  -0.543155   0.054102   0.084846  -0.000450
    11  C   -0.130619   0.822789  -1.524341   0.262801   0.049058  -0.000073
    12  C   -0.031821  -0.576853   1.518045  -0.484965  -0.039718   0.000285
    13  C    0.261665  -2.492201   0.575787   0.526929  -0.065088   0.002036
    14  H    0.004348   0.000457   0.047384  -0.020544  -0.001835  -0.000004
    15  S    0.001191  -0.060427   0.042921   0.011143   0.001278  -0.000001
    16  C    0.001780  -0.014267   0.001777  -0.005894  -0.001304   0.000000
    17  C   -0.003149   0.120685  -0.088884   0.039226  -0.001460  -0.000005
    18  H    0.000000   0.000073   0.000045   0.000009   0.000000  -0.000000
    19  H   -0.000008  -0.000421  -0.001129  -0.000019   0.000025  -0.000000
    20  H    0.050257  -0.090493  -0.037169   0.433413   0.014308   0.001902
    21  H   -0.036931   0.046440   0.086572   0.242428  -0.003333   0.000113
    22  H   -0.015008  -0.007386  -0.095949   0.464619   0.006318   0.000030
               7          8          9         10         11         12
     1  C   -0.733579   0.009496  -1.661643  -0.270509  -0.130619  -0.031821
     2  C   -0.766277  -0.002694   4.643674   1.510879   0.822789  -0.576853
     3  C   -1.423062  -0.006276  -5.498157  -0.543155  -1.524341   1.518045
     4  C    0.685483   0.003338   0.476211   0.054102   0.262801  -0.484965
     5  C   -0.003693   0.395314   0.538818   0.084846   0.049058  -0.039718
     6  H    0.005938  -0.003332  -0.001681  -0.000450  -0.000073   0.000285
     7  S   18.490061  -0.023618   0.128440  -0.689396  -0.019744  -0.132758
     8  H   -0.023618   0.442719  -0.006246   0.000169   0.000142  -0.000162
     9  C    0.128440  -0.006246  13.213281   0.665281  -1.705553   3.820559
    10  S   -0.689396   0.000169   0.665281  18.933932  -0.765971   1.895098
    11  C   -0.019744   0.000142  -1.705553  -0.765971  13.746003  -7.185105
    12  C   -0.132758  -0.000162   3.820559   1.895098  -7.185105  21.397585
    13  C    1.014773  -0.000726  -7.795215  -4.098646   3.889323 -12.467546
    14  H   -0.001440  -0.000000   0.154571   0.010554  -0.062708   0.145533
    15  S    0.017507  -0.000003  -0.501825   0.066734   0.690940  -1.767076
    16  C   -0.015273   0.000001   0.247872   0.011576   0.710429  -0.072199
    17  C    0.052493   0.000006  -0.690515  -0.210259  -2.771956  -0.271989
    18  H   -0.000021   0.000000  -0.005150   0.000440  -0.037060   0.009779
    19  H    0.000540  -0.000000   0.005910   0.017377   0.018793  -0.035068
    20  H   -0.000388  -0.000019  -0.003291  -0.000272   0.000424  -0.001019
    21  H   -0.003527   0.000005   0.019430   0.003466  -0.008750   0.048486
    22  H    0.002836   0.000005   0.007557  -0.001009   0.003927  -0.038720
              13         14         15         16         17         18
     1  C    0.261665   0.004348   0.001191   0.001780  -0.003149   0.000000
     2  C   -2.492201   0.000457  -0.060427  -0.014267   0.120685   0.000073
     3  C    0.575787   0.047384   0.042921   0.001777  -0.088884   0.000045
     4  C    0.526929  -0.020544   0.011143  -0.005894   0.039226   0.000009
     5  C   -0.065088  -0.001835   0.001278  -0.001304  -0.001460   0.000000
     6  H    0.002036  -0.000004  -0.000001   0.000000  -0.000005  -0.000000
     7  S    1.014773  -0.001440   0.017507  -0.015273   0.052493  -0.000021
     8  H   -0.000726  -0.000000  -0.000003   0.000001   0.000006   0.000000
     9  C   -7.795215   0.154571  -0.501825   0.247872  -0.690515  -0.005150
    10  S   -4.098646   0.010554   0.066734   0.011576  -0.210259   0.000440
    11  C    3.889323  -0.062708   0.690940   0.710429  -2.771956  -0.037060
    12  C  -12.467546   0.145533  -1.767076  -0.072199  -0.271989   0.009779
    13  C   23.916504   0.074668   1.200584  -0.587019   1.602625   0.016143
    14  H    0.074668   0.494552   0.005962   0.003046  -0.014605  -0.000004
    15  S    1.200584   0.005962  16.576927   0.292360  -0.379605  -0.024273
    16  C   -0.587019   0.003046   0.292360   5.684779  -0.349003   0.372658
    17  C    1.602625  -0.014605  -0.379605  -0.349003   8.632309   0.030421
    18  H    0.016143  -0.000004  -0.024273   0.372658   0.030421   0.438679
    19  H   -0.001926   0.000010  -0.000332   0.009492   0.344937  -0.002686
    20  H    0.003738   0.000154   0.000049  -0.000009   0.000030   0.000000
    21  H   -0.048130   0.003079   0.000404   0.000232  -0.000909  -0.000000
    22  H    0.033470  -0.000953   0.000455  -0.000226   0.000871   0.000000
              19         20         21         22
     1  C   -0.000008   0.050257  -0.036931  -0.015008
     2  C   -0.000421  -0.090493   0.046440  -0.007386
     3  C   -0.001129  -0.037169   0.086572  -0.095949
     4  C   -0.000019   0.433413   0.242428   0.464619
     5  C    0.000025   0.014308  -0.003333   0.006318
     6  H   -0.000000   0.001902   0.000113   0.000030
     7  S    0.000540  -0.000388  -0.003527   0.002836
     8  H   -0.000000  -0.000019   0.000005   0.000005
     9  C    0.005910  -0.003291   0.019430   0.007557
    10  S    0.017377  -0.000272   0.003466  -0.001009
    11  C    0.018793   0.000424  -0.008750   0.003927
    12  C   -0.035068  -0.001019   0.048486  -0.038720
    13  C   -0.001926   0.003738  -0.048130   0.033470
    14  H    0.000010   0.000154   0.003079  -0.000953
    15  S   -0.000332   0.000049   0.000404   0.000455
    16  C    0.009492  -0.000009   0.000232  -0.000226
    17  C    0.344937   0.000030  -0.000909   0.000871
    18  H   -0.002686   0.000000  -0.000000   0.000000
    19  H    0.476005  -0.000000   0.000000  -0.000000
    20  H   -0.000000   0.510214  -0.024623  -0.020451
    21  H    0.000000  -0.024623   0.529547  -0.026807
    22  H   -0.000000  -0.020451  -0.026807   0.490595
 Mulliken charges:
               1
     1  C   -0.437050
     2  C    1.025970
     3  C   -0.040845
     4  C   -0.899679
     5  C    0.036319
     6  H    0.158566
     7  S   -0.585295
     8  H    0.191880
     9  C   -0.052328
    10  S   -0.674787
    11  C    0.017253
    12  C    0.269631
    13  C    0.438251
    14  H    0.157775
    15  S   -0.174914
    16  C   -0.290806
    17  C   -0.041267
    18  H    0.200948
    19  H    0.168501
    20  H    0.163244
    21  H    0.172807
    22  H    0.195827
 Sum of Mulliken charges =  -0.00000
 Mulliken charges with hydrogens summed into heavy atoms:
               1
     1  C   -0.278485
     2  C    1.025970
     3  C   -0.040845
     4  C   -0.367801
     5  C    0.228198
     7  S   -0.585295
     9  C   -0.052328
    10  S   -0.674787
    11  C    0.017253
    12  C    0.269631
    13  C    0.596026
    15  S   -0.174914
    16  C   -0.089859
    17  C    0.127235
 Electronic spatial extent (au):  <R**2>=           4436.8146
 Charge=             -0.0000 electrons
 Dipole moment (field-independent basis, Debye):
    X=             -0.7947    Y=              0.8466    Z=             -1.0502  Tot=              1.5656
 Quadrupole moment (field-independent basis, Debye-Ang):
   XX=            -88.3281   YY=            -95.6627   ZZ=           -109.4789
   XY=             -5.5811   XZ=             -3.3906   YZ=              0.8551
 Traceless Quadrupole moment (field-independent basis, Debye-Ang):
   XX=              9.4951   YY=              2.1605   ZZ=            -11.6557
   XY=             -5.5811   XZ=             -3.3906   YZ=              0.8551
 Octapole moment (field-independent basis, Debye-Ang**2):
  XXX=            -25.3613  YYY=              3.1465  ZZZ=             -1.3827  XYY=             -7.1027
  XXY=            -12.3636  XXZ=            -31.5523  XZZ=              2.9016  YZZ=              1.2832
  YYZ=             -3.3381  XYZ=             -4.0806
 Hexadecapole moment (field-independent basis, Debye-Ang**3):
 XXXX=          -4289.8596 YYYY=          -1139.4231 ZZZZ=           -215.8279 XXXY=            -38.4558
 XXXZ=            -85.1717 YYYX=            -36.6985 YYYZ=              0.6308 ZZZX=            -14.3270
 ZZZY=              2.5079 XXYY=           -925.6943 XXZZ=           -899.8785 YYZZ=           -239.6170
 XXYZ=             26.6433 YYXZ=             -6.1675 ZZXY=              6.6463
 N-N= 1.107904450583D+03 E-N=-6.038868654378D+03  KE= 1.613979656893D+03
 Calling FoFJK, ICntrl=      2127 FMM=F ISym2X=0 I1Cent= 0 IOpClX= 0 NMat=1 NMatS=1 NMatT=0.
 ***** Axes restored to original set *****
 -------------------------------------------------------------------
 Center     Atomic                   Forces (Hartrees/Bohr)
 Number     Number              X              Y              Z
 -------------------------------------------------------------------
      1        6           0.024307116   -0.063120387    0.007200488
      2        6           0.014170621   -0.046232314    0.005635799
      3        6          -0.044350349    0.016458961    0.009102598
      4        6           0.007995946    0.005393291    0.002257262
      5        6           0.013866862    0.054165231   -0.014978121
      6        1          -0.000866264    0.001970963   -0.000253895
      7       16          -0.007708867    0.028822096   -0.004988304
      8        1           0.003203424   -0.004436223    0.000877883
      9        6           0.038809137    0.037975271   -0.033177493
     10       16          -0.007512730    0.020190465    0.003937306
     11        6          -0.000963481    0.022958072   -0.033652499
     12        6          -0.022547000   -0.034571674    0.013392743
     13        6          -0.021928272   -0.043482065    0.034289687
     14        1          -0.003057696    0.002781749    0.004374506
     15       16           0.013935143   -0.016075937    0.010749698
     16        6          -0.035621565   -0.028307118    0.046250110
     17        6           0.015086449    0.033855863   -0.049972455
     18        1           0.003721942    0.006123791    0.001505506
     19        1           0.006325286    0.006214248    0.003898343
     20        1          -0.000596471   -0.002499789    0.000197515
     21        1           0.002797431    0.002600024   -0.002081781
     22        1           0.000933338   -0.000784516   -0.004564896
 -------------------------------------------------------------------
 Cartesian Forces:  Max     0.063120387 RMS     0.022768950

 GradGradGradGradGradGradGradGradGradGradGradGradGradGradGradGradGradGrad
 Berny optimization.
 FormGI is forming the generalized inverse of G from B-inverse, IUseBI=4.
 Internal  Forces:  Max     0.068582065 RMS     0.013996095
 Search for a local minimum.
 Step number   1 out of a maximum of  127
 All quantities printed in internal units (Hartrees-Bohrs-Radians)
 Mixed Optimization -- RFO/linear search
 Second derivative matrix not updated -- first step.
 ITU=  0
     Eigenvalues ---    0.00935   0.00982   0.01057   0.01215   0.01241
     Eigenvalues ---    0.01277   0.01299   0.01424   0.01457   0.01493
     Eigenvalues ---    0.01498   0.01592   0.01597   0.01772   0.02200
     Eigenvalues ---    0.02651   0.07307   0.07353   0.15077   0.15683
     Eigenvalues ---    0.15737   0.15997   0.16000   0.16000   0.16000
     Eigenvalues ---    0.16000   0.18002   0.22444   0.22545   0.23321
     Eigenvalues ---    0.23978   0.24718   0.24978   0.24995   0.25000
     Eigenvalues ---    0.26147   0.26552   0.28371   0.30920   0.31334
     Eigenvalues ---    0.31510   0.33757   0.33818   0.34533   0.34853
     Eigenvalues ---    0.34935   0.35096   0.35877   0.35952   0.36006
     Eigenvalues ---    0.36154   0.36185   0.36366   0.37598   0.38323
     Eigenvalues ---    0.38438   0.39458   0.39664   0.406301000.00000
     Eigenvalues --- 1000.000001000.000001000.000001000.000001000.00000
     Eigenvalues --- 1000.000001000.000001000.000001000.000001000.00000
     Eigenvalues --- 1000.000001000.000001000.000001000.000001000.00000
     Eigenvalues --- 1000.000001000.000001000.000001000.000001000.00000
     Eigenvalues --- 1000.000001000.000001000.000001000.000001000.00000
     Eigenvalues --- 1000.000001000.000001000.000001000.000001000.00000
     Eigenvalues --- 1000.000001000.000001000.000001000.000001000.00000
     Eigenvalues --- 1000.000001000.000001000.000001000.000001000.00000
     Eigenvalues --- 1000.000001000.000001000.000001000.000001000.00000
     Eigenvalues --- 1000.000001000.000001000.000001000.000001000.00000
     Eigenvalues --- 1000.000001000.000001000.000001000.000001000.00000
     Eigenvalues --- 1000.000001000.00000
 RFO step:  Lambda=-6.01471194D-02 EMin= 9.35106172D-03
 Linear search not attempted -- first point.
 Maximum step size (   0.300) exceeded in Quadratic search.
    -- Step size scaled by   0.817
 Iteration  1 RMS(Cart)=  0.10109650 RMS(Int)=  0.00224650
 Iteration  2 RMS(Cart)=  0.00362122 RMS(Int)=  0.00048724
 Iteration  3 RMS(Cart)=  0.00000498 RMS(Int)=  0.00048723
 Iteration  4 RMS(Cart)=  0.00000000 RMS(Int)=  0.00048723
 Iteration  1 RMS(Cart)=  0.00000247 RMS(Int)=  0.00000093
 Iteration  2 RMS(Cart)=  0.00000135 RMS(Int)=  0.00000104
 Iteration  3 RMS(Cart)=  0.00000073 RMS(Int)=  0.00000117
 Variable       Old X    -DE/DX   Delta X   Delta X   Delta X     New X
                                 (Linear)    (Quad)   (Total)
    R1        2.71917  -0.01826   0.00000  -0.03471  -0.03465   2.68452
    R2        2.71391  -0.05785   0.00000  -0.10366  -0.10371   2.61020
    R3        2.03793   0.00187   0.00000   0.00362   0.00362   2.04155
    R4        2.75906  -0.06409   0.00000  -0.12224  -0.12215   2.63692
    R5        2.81042   0.00750   0.00000   0.01541   0.01541   2.82583
    R6        3.39578  -0.02626   0.00000  -0.06362  -0.06361   3.33218
    R7        2.74954  -0.01413   0.00000  -0.02647  -0.02647   2.72307
    R8        2.06439  -0.00091   0.00000  -0.00183  -0.00183   2.06256
    R9        2.05781   0.00300   0.00000   0.00598   0.00598   2.06379
   R10        2.07638  -0.00234   0.00000  -0.00479  -0.00479   2.07159
   R11        3.28671  -0.02187   0.00000  -0.04614  -0.04623   3.24048
   R12        2.04073  -0.00032   0.00000  -0.00063  -0.00063   2.04010
   R13        3.38315  -0.01762   0.00000  -0.03967  -0.04015   3.34300
   R14        2.76695  -0.06858   0.00000  -0.13158  -0.13186   2.63510
   R15        3.27073  -0.00510   0.00000  -0.00984  -0.00974   3.26099
   R16        2.72154  -0.03984   0.00000  -0.07522  -0.07431   2.64723
   R17        2.69489  -0.00339   0.00000  -0.00832  -0.00789   2.68700
   R18        2.70781  -0.01293   0.00000  -0.02527  -0.02501   2.68280
   R19        3.27327  -0.00451   0.00000  -0.00784  -0.00795   3.26533
   R20        2.03841   0.00115   0.00000   0.00222   0.00222   2.04063
   R21        3.33611  -0.01778   0.00000  -0.03853  -0.03904   3.29707
   R22        2.73015  -0.06536   0.00000  -0.11924  -0.11935   2.61080
   R23        2.04156  -0.00057   0.00000  -0.00111  -0.00111   2.04045
   R24        2.05519  -0.00447   0.00000  -0.00888  -0.00888   2.04631
    A1        1.97020   0.00705   0.00000   0.01465   0.01466   1.98486
    A2        2.17330  -0.00464   0.00000  -0.01145  -0.01146   2.16184
    A3        2.13967  -0.00241   0.00000  -0.00320  -0.00320   2.13647
    A4        1.97187  -0.00210   0.00000  -0.00961  -0.00947   1.96240
    A5        2.09905   0.01295   0.00000   0.03615   0.03608   2.13513
    A6        2.21227  -0.01086   0.00000  -0.02654  -0.02662   2.18565
    A7        1.90440   0.00559   0.00000   0.01631   0.01641   1.92080
    A8        2.31891  -0.01576   0.00000  -0.04236  -0.04242   2.27649
    A9        2.05972   0.01017   0.00000   0.02596   0.02590   2.08561
   A10        1.94548  -0.00372   0.00000  -0.01266  -0.01262   1.93286
   A11        1.93409   0.00339   0.00000   0.01163   0.01165   1.94574
   A12        1.93331   0.00183   0.00000   0.00659   0.00660   1.93991
   A13        1.87410   0.00035   0.00000   0.00171   0.00174   1.87584
   A14        1.86607   0.00192   0.00000   0.00895   0.00898   1.87505
   A15        1.90848  -0.00395   0.00000  -0.01680  -0.01681   1.89167
   A16        1.95339  -0.00251   0.00000  -0.00801  -0.00815   1.94523
   A17        2.17580   0.00685   0.00000   0.02478   0.02485   2.20066
   A18        2.15384  -0.00435   0.00000  -0.01677  -0.01670   2.13714
   A19        1.62490  -0.00804   0.00000  -0.01333  -0.01350   1.61140
   A20        2.12866  -0.00115   0.00000  -0.00292  -0.00299   2.12567
   A21        2.24043  -0.00617   0.00000  -0.01617  -0.01625   2.22418
   A22        1.91342   0.00741   0.00000   0.01988   0.01980   1.93322
   A23        1.61854  -0.00627   0.00000  -0.01266  -0.01230   1.60625
   A24        1.96196  -0.01053   0.00000  -0.02260  -0.02352   1.93844
   A25        2.23831   0.00818   0.00000   0.03951   0.03778   2.27609
   A26        1.96534   0.00612   0.00000   0.01617   0.01629   1.98163
   A27        1.96621   0.00802   0.00000   0.01956   0.01958   1.98579
   A28        1.96679  -0.01315   0.00000  -0.02933  -0.02995   1.93684
   A29        2.23738   0.00861   0.00000   0.03948   0.03789   2.27527
   A30        1.96392   0.00141   0.00000  -0.00371  -0.00322   1.96070
   A31        2.16117  -0.00408   0.00000  -0.00884  -0.00939   2.15179
   A32        2.14612   0.00318   0.00000   0.01813   0.01756   2.16368
   A33        1.59328   0.00065   0.00000   0.00419   0.00446   1.59774
   A34        1.95930   0.00146   0.00000   0.00262   0.00242   1.96172
   A35        2.13575  -0.00439   0.00000  -0.01175  -0.01259   2.12315
   A36        2.17102   0.00400   0.00000   0.02007   0.01935   2.19037
   A37        1.93975   0.00491   0.00000   0.00628   0.00667   1.94642
   A38        2.16548   0.00037   0.00000   0.01401   0.01255   2.17802
   A39        2.14118  -0.00333   0.00000  -0.00065  -0.00218   2.13900
    D1        0.00683  -0.00020   0.00000  -0.00442  -0.00439   0.00244
    D2       -3.13456   0.00004   0.00000  -0.00161  -0.00152  -3.13608
    D3       -3.13952  -0.00025   0.00000  -0.00398  -0.00401   3.13966
    D4        0.00227  -0.00001   0.00000  -0.00117  -0.00113   0.00114
    D5       -0.00671  -0.00022   0.00000  -0.00300  -0.00304  -0.00975
    D6       -3.13020  -0.00028   0.00000  -0.00257  -0.00262  -3.13282
    D7        3.13954  -0.00016   0.00000  -0.00340  -0.00339   3.13615
    D8        0.01605  -0.00022   0.00000  -0.00297  -0.00298   0.01307
    D9       -0.00388   0.00058   0.00000   0.00960   0.00962   0.00574
   D10        3.11762   0.00085   0.00000   0.00369   0.00374   3.12136
   D11        3.13750   0.00032   0.00000   0.00658   0.00665  -3.13903
   D12       -0.02418   0.00060   0.00000   0.00067   0.00077  -0.02341
   D13        0.03777   0.00008   0.00000   0.00271   0.00269   0.04046
   D14       -2.04840  -0.00018   0.00000   0.00114   0.00115  -2.04725
   D15        2.11332   0.00128   0.00000   0.01006   0.01003   2.12335
   D16       -3.10360   0.00035   0.00000   0.00594   0.00594  -3.09765
   D17        1.09342   0.00010   0.00000   0.00437   0.00440   1.09782
   D18       -1.02805   0.00156   0.00000   0.01329   0.01329  -1.01476
   D19        0.00006  -0.00056   0.00000  -0.00952  -0.00959  -0.00953
   D20       -3.12486  -0.00045   0.00000  -0.00373  -0.00356  -3.12842
   D21        2.87982  -0.00181   0.00000   0.00000  -0.00000   2.87982
   D22       -0.30578   0.00140   0.00000   0.02584   0.02588  -0.27990
   D23       -0.28328  -0.00159   0.00000  -0.00650  -0.00652  -0.28980
   D24        2.81431   0.00162   0.00000   0.01934   0.01936   2.83366
   D25        0.00376   0.00047   0.00000   0.00731   0.00722   0.01098
   D26        3.12751   0.00066   0.00000   0.00739   0.00733   3.13484
   D27        3.13757   0.00094   0.00000   0.00826   0.00841  -3.13721
   D28        0.03260  -0.00145   0.00000  -0.01252  -0.01283   0.01977
   D29       -3.13827  -0.00195   0.00000  -0.01485  -0.01463   3.13028
   D30       -0.15829   0.00189   0.00000   0.02437   0.02435  -0.13394
   D31       -0.03631   0.00081   0.00000   0.00807   0.00853  -0.02779
   D32        2.94367   0.00464   0.00000   0.04729   0.04751   2.99117
   D33       -0.02123   0.00215   0.00000   0.01497   0.01475  -0.00649
   D34       -2.61661  -0.00683   0.00000  -0.05756  -0.05798  -2.67460
   D35        0.00367  -0.00167   0.00000  -0.01218  -0.01198  -0.00832
   D36       -2.68853  -0.01061   0.00000  -0.07820  -0.07638  -2.76491
   D37        2.68753   0.00753   0.00000   0.05862   0.05734   2.74487
   D38       -0.00467  -0.00142   0.00000  -0.00740  -0.00706  -0.01172
   D39        2.61391   0.00606   0.00000   0.07030   0.07162   2.68553
   D40       -0.24536  -0.00076   0.00000  -0.00288  -0.00232  -0.24767
   D41        0.01938   0.00127   0.00000   0.00741   0.00722   0.02660
   D42       -2.83989  -0.00556   0.00000  -0.06578  -0.06672  -2.90661
   D43        0.02167   0.00056   0.00000   0.00230   0.00208   0.02375
   D44       -2.95992  -0.00246   0.00000  -0.03367  -0.03431  -2.99423
   D45        2.62812   0.00428   0.00000   0.05778   0.05897   2.68708
   D46       -0.35347   0.00126   0.00000   0.02180   0.02257  -0.33090
   D47       -0.00867   0.00118   0.00000   0.00454   0.00441  -0.00426
   D48       -2.61498  -0.00778   0.00000  -0.06306  -0.06294  -2.67791
   D49        0.01979  -0.00034   0.00000  -0.00007  -0.00013   0.01966
   D50        2.97152   0.00606   0.00000   0.06232   0.06163   3.03315
   D51       -0.02581  -0.00034   0.00000  -0.00389  -0.00362  -0.02943
   D52        2.83806   0.00705   0.00000   0.07086   0.07114   2.90920
   D53       -2.97302  -0.00581   0.00000  -0.06364  -0.06402  -3.03704
   D54       -0.10915   0.00158   0.00000   0.01112   0.01074  -0.09841
         Item               Value     Threshold  Converged?
 Maximum Force            0.068579     0.000450     NO 
 RMS     Force            0.014054     0.000300     NO 
 Maximum Displacement     0.323816     0.001800     NO 
 RMS     Displacement     0.101335     0.001200     NO 
 Predicted change in Energy=-3.327517D-02
 GradGradGradGradGradGradGradGradGradGradGradGradGradGradGradGradGradGrad

                          Input orientation:                          
 ---------------------------------------------------------------------
 Center     Atomic      Atomic             Coordinates (Angstroms)
 Number     Number       Type             X           Y           Z
 ---------------------------------------------------------------------
      1          6           0       -4.192642   -1.365367   -0.200633
      2          6           0       -2.884224   -1.004561   -0.620077
      3          6           0       -2.007316   -2.089992   -0.622119
      4          6           0       -2.525121    0.395192   -1.004594
      5          6           0       -4.324905   -2.702719    0.118548
      6          1           0       -5.015411   -0.668884   -0.129194
      7         16           0       -2.850412   -3.549409   -0.103896
      8          1           0       -5.228652   -3.190774    0.451006
      9          6           0       -0.617361   -2.167819   -0.994152
     10         16           0        0.389664   -3.553368   -0.551816
     11          6           0        1.775008   -2.870202   -1.321194
     12          6           0        1.469712   -1.631896   -1.900659
     13          6           0        0.115628   -1.239718   -1.732935
     14          1           0       -0.330002   -0.385549   -2.220685
     15         16           0        2.605089   -1.232501   -3.140484
     16          6           0        3.486608   -2.714799   -2.876241
     17          6           0        2.916096   -3.498193   -1.891578
     18          1           0        4.303870   -3.009894   -3.517242
     19          1           0        3.193849   -4.533282   -1.736566
     20          1           0       -3.378644    1.062913   -0.874475
     21          1           0       -2.217462    0.456169   -2.050697
     22          1           0       -1.709372    0.779655   -0.381317
 ---------------------------------------------------------------------
                    Distance matrix (angstroms):
                    1          2          3          4          5
     1  C    0.000000
     2  C    1.420588   0.000000
     3  C    2.340595   1.395397   0.000000
     4  C    2.554711   1.495366   2.567206   0.000000
     5  C    1.381260   2.346245   2.509032   3.754693   0.000000
     6  H    1.080343   2.212601   3.363207   2.846072   2.162095
     7  S    2.565342   2.596890   1.763311   4.059181   1.714787
     8  H    2.197739   3.379805   3.569359   4.720911   1.079576
     9  C    3.749165   2.575222   1.440985   3.195102   3.907698
    10  S    5.090010   4.149628   2.809256   4.928702   4.837370
    11  C    6.255641   5.067606   3.924718   5.408711   6.269757
    12  C    5.918056   4.581507   3.732860   4.568448   6.229081
    13  C    4.574377   3.208249   2.542394   3.190135   5.028588
    14  H    4.467733   3.077202   2.876442   2.628113   5.176923
    15  S    7.407397   6.044582   5.324634   5.790550   7.797926
    16  C    8.243223   6.971563   5.971151   7.022535   8.365922
    17  C    7.611991   6.440391   5.275845   6.749225   7.556818
    18  H    9.267960   8.005225   7.004214   8.033874   9.368515
    19  H    8.182605   7.116277   5.853527   7.585002   7.957643
    20  H    2.648245   2.140939   3.447467   1.091459   4.007678
    21  H    3.262218   2.150576   2.927103   1.092110   4.373273
    22  H    3.286397   2.149585   2.895105   1.096236   4.383812
                    6          7          8          9         10
     6  H    0.000000
     7  S    3.603510   0.000000
     8  H    2.596542   2.468311   0.000000
     9  C    4.726288   2.772700   4.939526   0.000000
    10  S    6.141147   3.270893   5.718618   1.769041   0.000000
    11  C    7.237158   4.830906   7.231509   2.514703   1.725642
    12  C    6.791340   5.056549   7.268322   2.337701   2.584171
    13  C    5.406051   4.097052   6.094058   1.394433   2.612109
    14  H    5.138839   4.565443   6.245317   2.182531   3.652139
    15  S    8.213255   6.659687   8.837484   3.983183   4.122588
    16  C    9.166044   6.967087   9.340925   4.547968   3.961971
    17  C    8.603476   6.037471   8.480515   3.880798   2.860222
    18  H   10.188630   7.945172  10.327084   5.594067   4.940661
    19  H    9.214617   6.337722   8.804903   4.546638   3.198019
    20  H    2.496712   4.705989   4.824239   4.251662   5.967771
    21  H    3.575813   4.498368   5.350325   3.249910   5.011998
    22  H    3.618250   4.485503   5.370512   3.202445   4.817687
                   11         12         13         14         15
    11  C    0.000000
    12  C    1.400853   0.000000
    13  C    2.362532   1.419676   0.000000
    14  H    3.378410   2.212413   1.079856   0.000000
    15  S    2.584746   1.727936   2.859837   3.190317   0.000000
    16  C    2.317735   2.488435   3.853119   4.519035   1.744737
    17  C    1.421897   2.361181   3.601181   4.509326   2.605734
    18  H    3.352205   3.541845   4.884531   5.480968   2.487353
    19  H    2.225191   3.378996   4.508107   5.464026   3.634938
    20  H    6.498391   5.641064   4.271884   3.633805   6.797705
    21  H    5.247546   4.240021   2.901777   2.073617   5.224580
    22  H    5.132809   4.269725   3.038973   2.577525   5.502395
                   16         17         18         19         20
    16  C    0.000000
    17  C    1.381576   0.000000
    18  H    1.079759   2.192518   0.000000
    19  H    2.165975   1.082859   2.593003   0.000000
    20  H    8.087636   7.839767   9.088068   8.675152   0.000000
    21  H    6.578220   6.481953   7.529416   7.367196   1.760676
    22  H    6.740479   6.478876   7.768769   7.355649   1.763494
                   21         22
    21  H    0.000000
    22  H    1.774718   0.000000
 Stoichiometry    C11H8S3
 Framework group  C1[X(C11H8S3)]
 Deg. of freedom    60
 Full point group                 C1      NOp   1
 Largest Abelian subgroup         C1      NOp   1
 Largest concise Abelian subgroup C1      NOp   1
                         Standard orientation:                         
 ---------------------------------------------------------------------
 Center     Atomic      Atomic             Coordinates (Angstroms)
 Number     Number       Type             X           Y           Z
 ---------------------------------------------------------------------
      1          6           0       -3.939822    0.771782   -0.097849
      2          6           0       -2.581033    1.136116    0.099698
      3          6           0       -1.719468    0.041152    0.022939
      4          6           0       -2.161405    2.547134    0.362486
      5          6           0       -4.126433   -0.578669   -0.319966
      6          1           0       -4.760740    1.473715   -0.074956
      7         16           0       -2.636933   -1.428201   -0.306495
      8          1           0       -5.071213   -1.068814   -0.500611
      9          6           0       -0.284941   -0.029275    0.139605
     10         16           0        0.555165   -1.565209    0.393844
     11          6           0        2.095879   -0.788475    0.420755
     12          6           0        1.966296    0.593671    0.232954
     13          6           0        0.624973    1.024117    0.056744
     14          1           0        0.345862    2.027267   -0.229398
     15         16           0        3.446189    1.282201   -0.334147
     16          6           0        4.233950   -0.274407   -0.311558
     17          6           0        3.385784   -1.287859    0.091284
     18          1           0        5.232903   -0.409492   -0.698500
     19          1           0        3.629526   -2.335592   -0.032928
     20          1           0       -3.030473    3.205219    0.416612
     21          1           0       -1.512281    2.925556   -0.430065
     22          1           0       -1.626997    2.629762    1.316066
 ---------------------------------------------------------------------
 Rotational constants (GHZ):           1.2457788           0.2875380           0.2384116
 Standard basis: 6-311+G(d,p) (5D, 7F)
 There are   394 symmetry adapted cartesian basis functions of A   symmetry.
 There are   380 symmetry adapted basis functions of A   symmetry.
   380 basis functions,   610 primitive gaussians,   394 cartesian basis functions
    61 alpha electrons       61 beta electrons
       nuclear repulsion energy      1126.1999269827 Hartrees.
 NAtoms=   22 NActive=   22 NUniq=   22 SFac= 1.00D+00 NAtFMM=   60 NAOKFM=F Big=F
 Integral buffers will be    131072 words long.
 Raffenetti 2 integral format.
 Two-electron integral symmetry is turned on.
 Nuclear repulsion after empirical dispersion term =     1126.1871607452 Hartrees.
 One-electron integrals computed using PRISM.
 NBasis=   380 RedAO= T EigKep=  1.42D-06  NBF=   380
 NBsUse=   378 1.00D-06 EigRej=  7.23D-07 NBFU=   378
 Initial guess from the checkpoint file:  "/tmp/pbs.4762230[340].pbs/Gau-3263621.chk"
 B after Tr=    -0.000000    0.000000    0.000000
         Rot=    0.999980   -0.002937   -0.000916    0.005500 Ang=  -0.72 deg.
 ExpMin= 4.05D-02 ExpMax= 9.34D+04 ExpMxC= 3.17D+03 IAcc=3 IRadAn=         5 AccDes= 0.00D+00
 Harris functional with IExCor= 4639 and IRadAn=       5 diagonalized for initial guess.
 HarFok:  IExCor= 4639 AccDes= 0.00D+00 IRadAn=         5 IDoV= 1 UseB2=F ITyADJ=14
 ICtDFT=  3500011 ScaDFX=  1.000000  1.000000  1.000000  1.000000
 FoFCou: FMM=F IPFlag=           0 FMFlag=      100000 FMFlg1=           0
         NFxFlg=           0 DoJE=T BraDBF=F KetDBF=T FulRan=T
         wScrn=  0.000000 ICntrl=       500 IOpCl=  0 I1Cent=   200000004 NGrid=           0
         NMat0=    1 NMatS0=      1 NMatT0=    0 NMatD0=    1 NMtDS0=    0 NMtDT0=    0
 Petite list used in FoFCou.
 Requested convergence on RMS density matrix=1.00D-08 within 128 cycles.
 Requested convergence on MAX density matrix=1.00D-06.
 Requested convergence on             energy=1.00D-06.
 No special actions if energy rises.
 SCF Done:  E(RwB97XD) =  -1618.49436711     A.U. after   18 cycles
            NFock= 18  Conv=0.19D-08     -V/T= 2.0022
 Calling FoFJK, ICntrl=      2127 FMM=F ISym2X=0 I1Cent= 0 IOpClX= 0 NMat=1 NMatS=1 NMatT=0.
 ***** Axes restored to original set *****
 -------------------------------------------------------------------
 Center     Atomic                   Forces (Hartrees/Bohr)
 Number     Number              X              Y              Z
 -------------------------------------------------------------------
      1        6           0.000322878   -0.021271233    0.004431846
      2        6           0.009135161   -0.010672960   -0.000362207
      3        6          -0.021906095   -0.001561532    0.006973048
      4        6           0.001108724    0.003346498    0.001627289
      5        6           0.002144286    0.020201205   -0.005573976
      6        1          -0.000361365    0.001800079   -0.000301654
      7       16           0.001406799    0.007952447   -0.002127360
      8        1           0.002040125   -0.002897566    0.000621907
      9        6           0.020978831    0.014364302   -0.013462074
     10       16          -0.005073166    0.006667775    0.007653565
     11        6          -0.004718752    0.007469054   -0.016148541
     12        6          -0.004910646   -0.018196787   -0.000521588
     13        6          -0.009898138   -0.012411466    0.011859666
     14        1           0.001381116    0.000848232    0.003277629
     15       16           0.010089167   -0.000119145    0.001948388
     16        6          -0.014231175   -0.011394839    0.015029143
     17        6           0.006387859    0.008462243   -0.018383888
     18        1           0.002304925    0.004772100    0.000922270
     19        1           0.003885598    0.002891706    0.004988854
     20        1          -0.000504123   -0.000730776    0.000166421
     21        1          -0.000441379    0.001378080   -0.000282473
     22        1           0.000859372   -0.000897416   -0.002336264
 -------------------------------------------------------------------
 Cartesian Forces:  Max     0.021906095 RMS     0.008707325

 GradGradGradGradGradGradGradGradGradGradGradGradGradGradGradGradGradGrad
 Berny optimization.
 Using GEDIIS/GDIIS optimizer.
 FormGI is forming the generalized inverse of G from B-inverse, IUseBI=4.
 Internal  Forces:  Max     0.020261612 RMS     0.004425053
 Search for a local minimum.
 Step number   2 out of a maximum of  127
 All quantities printed in internal units (Hartrees-Bohrs-Radians)
 Mixed Optimization -- RFO/linear search
 Update second derivatives using D2CorX and points    1    2
 DE= -3.32D-02 DEPred=-3.33D-02 R= 9.99D-01
 TightC=F SS=  1.41D+00  RLast= 3.73D-01 DXNew= 5.0454D-01 1.1196D+00
 Trust test= 9.99D-01 RLast= 3.73D-01 DXMaxT set to 5.05D-01
 ITU=  1  0
 Use linear search instead of GDIIS.
     Eigenvalues ---    0.00934   0.00981   0.01048   0.01208   0.01240
     Eigenvalues ---    0.01274   0.01293   0.01380   0.01462   0.01480
     Eigenvalues ---    0.01499   0.01588   0.01592   0.01704   0.02025
     Eigenvalues ---    0.02310   0.07248   0.07370   0.15507   0.15741
     Eigenvalues ---    0.15848   0.15958   0.15999   0.16000   0.16000
     Eigenvalues ---    0.16013   0.18895   0.22461   0.22544   0.23455
     Eigenvalues ---    0.24164   0.24512   0.24776   0.24996   0.25251
     Eigenvalues ---    0.26264   0.26625   0.28341   0.30916   0.31100
     Eigenvalues ---    0.31450   0.33677   0.33815   0.34531   0.34632
     Eigenvalues ---    0.34941   0.35096   0.35646   0.35952   0.36006
     Eigenvalues ---    0.36129   0.36182   0.36318   0.36842   0.38264
     Eigenvalues ---    0.39067   0.39516   0.40463   0.439311000.00000
     Eigenvalues --- 1000.000001000.000001000.000001000.000001000.00000
     Eigenvalues --- 1000.000001000.000001000.000001000.000001000.00000
     Eigenvalues --- 1000.000001000.000001000.000001000.000001000.00000
     Eigenvalues --- 1000.000001000.000001000.000001000.000001000.00000
     Eigenvalues --- 1000.000001000.000001000.000001000.000001000.00000
     Eigenvalues --- 1000.000001000.000001000.000001000.000001000.00000
     Eigenvalues --- 1000.000001000.000001000.000001000.000001000.00000
     Eigenvalues --- 1000.000001000.000001000.000001000.000001000.00000
     Eigenvalues --- 1000.000001000.000001000.000001000.000001000.00000
     Eigenvalues --- 1000.000001000.000001000.000001000.000001000.00000
     Eigenvalues --- 1000.000001000.000001000.000001000.000001000.00000
     Eigenvalues --- 1000.000001000.00000
 RFO step:  Lambda=-8.07084530D-03 EMin= 9.33800726D-03
 Quartic linear search produced a step of  0.37899.
 Iteration  1 RMS(Cart)=  0.09987158 RMS(Int)=  0.00689031
 Iteration  2 RMS(Cart)=  0.00933077 RMS(Int)=  0.00209009
 Iteration  3 RMS(Cart)=  0.00004909 RMS(Int)=  0.00208967
 Iteration  4 RMS(Cart)=  0.00000003 RMS(Int)=  0.00208967
 Iteration  1 RMS(Cart)=  0.00003437 RMS(Int)=  0.00001297
 Iteration  2 RMS(Cart)=  0.00001881 RMS(Int)=  0.00001449
 Iteration  3 RMS(Cart)=  0.00001029 RMS(Int)=  0.00001637
 Iteration  4 RMS(Cart)=  0.00000563 RMS(Int)=  0.00001762
 Iteration  5 RMS(Cart)=  0.00000308 RMS(Int)=  0.00001835
 Iteration  6 RMS(Cart)=  0.00000169 RMS(Int)=  0.00001877
 Iteration  7 RMS(Cart)=  0.00000092 RMS(Int)=  0.00001900
 Variable       Old X    -DE/DX   Delta X   Delta X   Delta X     New X
                                 (Linear)    (Quad)   (Total)
    R1        2.68452   0.00030  -0.01313   0.01770   0.00458   2.68911
    R2        2.61020  -0.01816  -0.03930  -0.00958  -0.04892   2.56129
    R3        2.04155   0.00142   0.00137   0.00336   0.00473   2.04628
    R4        2.63692  -0.01371  -0.04629   0.01284  -0.03340   2.60352
    R5        2.82583   0.00336   0.00584   0.00523   0.01107   2.83690
    R6        3.33218  -0.00966  -0.02411  -0.01201  -0.03610   3.29608
    R7        2.72307   0.00653  -0.01003   0.03640   0.02637   2.74944
    R8        2.06256  -0.00003  -0.00069   0.00081   0.00012   2.06268
    R9        2.06379   0.00022   0.00227  -0.00222   0.00005   2.06384
   R10        2.07159  -0.00100  -0.00182  -0.00146  -0.00328   2.06831
   R11        3.24048  -0.00377  -0.01752   0.00837  -0.00919   3.23128
   R12        2.04010  -0.00021  -0.00024  -0.00044  -0.00068   2.03942
   R13        3.34300  -0.00599  -0.01522   0.00140  -0.01617   3.32683
   R14        2.63510  -0.02026  -0.04997  -0.00313  -0.05469   2.58041
   R15        3.26099   0.00190  -0.00369   0.01116   0.00819   3.26918
   R16        2.64723  -0.01279  -0.02816  -0.01730  -0.04127   2.60595
   R17        2.68700   0.00163  -0.00299   0.00585   0.00438   2.69138
   R18        2.68280   0.00063  -0.00948   0.01125   0.00293   2.68573
   R19        3.26533   0.00238  -0.00301   0.01333   0.01007   3.27540
   R20        2.04063  -0.00138   0.00084  -0.00620  -0.00535   2.03528
   R21        3.29707  -0.00589  -0.01479   0.00151  -0.01521   3.28186
   R22        2.61080  -0.01980  -0.04523  -0.00538  -0.05117   2.55963
   R23        2.04045  -0.00011  -0.00042   0.00017  -0.00025   2.04020
   R24        2.04631  -0.00105  -0.00337   0.00056  -0.00281   2.04350
    A1        1.98486   0.00122   0.00556  -0.00378   0.00174   1.98660
    A2        2.16184  -0.00184  -0.00434  -0.00537  -0.00971   2.15214
    A3        2.13647   0.00062  -0.00121   0.00918   0.00797   2.14444
    A4        1.96240  -0.00154  -0.00359  -0.00328  -0.00689   1.95551
    A5        2.13513  -0.00012   0.01367  -0.02059  -0.00702   2.12811
    A6        2.18565   0.00166  -0.01009   0.02381   0.01361   2.19926
    A7        1.92080   0.00161   0.00622   0.00100   0.00723   1.92803
    A8        2.27649  -0.00152  -0.01608   0.01497  -0.00117   2.27532
    A9        2.08561  -0.00007   0.00981  -0.01556  -0.00581   2.07980
   A10        1.93286  -0.00150  -0.00478  -0.00394  -0.00870   1.92416
   A11        1.94574   0.00161   0.00441   0.00380   0.00822   1.95396
   A12        1.93991   0.00057   0.00250   0.00191   0.00441   1.94432
   A13        1.87584  -0.00047   0.00066  -0.00807  -0.00738   1.86846
   A14        1.87505   0.00114   0.00340   0.00644   0.00987   1.88492
   A15        1.89167  -0.00139  -0.00637  -0.00030  -0.00669   1.88498
   A16        1.94523   0.00014  -0.00309   0.00399   0.00079   1.94602
   A17        2.20066   0.00356   0.00942   0.01389   0.02331   2.22397
   A18        2.13714  -0.00369  -0.00633  -0.01763  -0.02396   2.11319
   A19        1.61140  -0.00144  -0.00511   0.00206  -0.00311   1.60829
   A20        2.12567  -0.00611  -0.00113  -0.03167  -0.03271   2.09296
   A21        2.22418   0.00427  -0.00616   0.03034   0.02427   2.24845
   A22        1.93322   0.00187   0.00751   0.00151   0.00854   1.94176
   A23        1.60625  -0.00129  -0.00466  -0.00428  -0.00691   1.59934
   A24        1.93844  -0.00314  -0.00891   0.00455  -0.00684   1.93161
   A25        2.27609   0.00447   0.01432   0.04698   0.05149   2.32758
   A26        1.98163   0.00119   0.00617   0.00093   0.00635   1.98798
   A27        1.98579   0.00114   0.00742  -0.00123   0.00533   1.99113
   A28        1.93684  -0.00292  -0.01135   0.01030  -0.00345   1.93339
   A29        2.27527   0.00417   0.01436   0.04318   0.04804   2.32330
   A30        1.96070   0.00144  -0.00122  -0.00037   0.00007   1.96077
   A31        2.15179  -0.00022  -0.00356   0.01559   0.00941   2.16119
   A32        2.16368  -0.00090   0.00665  -0.00704  -0.00309   2.16059
   A33        1.59774  -0.00157   0.00169  -0.01620  -0.01193   1.58581
   A34        1.96172   0.00259   0.00092   0.01595   0.01566   1.97738
   A35        2.12315  -0.00451  -0.00477  -0.01909  -0.02835   2.09480
   A36        2.19037   0.00249   0.00733   0.01777   0.02057   2.21094
   A37        1.94642   0.00071   0.00253  -0.01040  -0.00632   1.94010
   A38        2.17802  -0.00021   0.00476   0.00976   0.00801   2.18603
   A39        2.13900   0.00051  -0.00082   0.02385   0.01661   2.15561
    D1        0.00244  -0.00026  -0.00167  -0.01820  -0.01982  -0.01738
    D2       -3.13608   0.00013  -0.00057   0.00288   0.00216  -3.13392
    D3        3.13966  -0.00023  -0.00152  -0.01220  -0.01375   3.12591
    D4        0.00114   0.00016  -0.00043   0.00887   0.00823   0.00937
    D5       -0.00975   0.00017  -0.00115   0.01197   0.01076   0.00101
    D6       -3.13282  -0.00021  -0.00099  -0.00288  -0.00405  -3.13687
    D7        3.13615   0.00014  -0.00128   0.00611   0.00477   3.14091
    D8        0.01307  -0.00024  -0.00113  -0.00874  -0.01004   0.00303
    D9        0.00574   0.00025   0.00365   0.01575   0.01940   0.02514
   D10        3.12136   0.00116   0.00142   0.03486   0.03627  -3.12555
   D11       -3.13903  -0.00016   0.00252  -0.00614  -0.00371   3.14045
   D12       -0.02341   0.00075   0.00029   0.01297   0.01317  -0.01024
   D13        0.04046   0.00030   0.00102   0.04000   0.04097   0.08144
   D14       -2.04725   0.00083   0.00043   0.05030   0.05071  -1.99654
   D15        2.12335   0.00112   0.00380   0.04675   0.05049   2.17384
   D16       -3.09765   0.00075   0.00225   0.06391   0.06621  -3.03145
   D17        1.09782   0.00128   0.00167   0.07421   0.07594   1.17376
   D18       -1.01476   0.00156   0.00504   0.07065   0.07572  -0.93904
   D19       -0.00953  -0.00012  -0.00364  -0.00778  -0.01157  -0.02111
   D20       -3.12842  -0.00088  -0.00135  -0.02497  -0.02635   3.12842
   D21        2.87982  -0.00216  -0.00000   0.00000  -0.00000   2.87982
   D22       -0.27990   0.00019   0.00981   0.01317   0.02332  -0.25658
   D23       -0.28980  -0.00116  -0.00247   0.02087   0.01827  -0.27154
   D24        2.83366   0.00118   0.00734   0.03405   0.04159   2.87526
   D25        0.01098  -0.00003   0.00274  -0.00227   0.00043   0.01141
   D26        3.13484   0.00043   0.00278   0.01233   0.01472  -3.13363
   D27       -3.13721   0.00088   0.00319   0.00497   0.00779  -3.12942
   D28        0.01977  -0.00115  -0.00486  -0.00657  -0.01195   0.00782
   D29        3.13028  -0.00109  -0.00555  -0.00444  -0.01004   3.12025
   D30       -0.13394   0.00164   0.00923   0.06605   0.07559  -0.05835
   D31       -0.02779   0.00097   0.00323   0.00721   0.01128  -0.01651
   D32        2.99117   0.00370   0.01801   0.07769   0.09691   3.08808
   D33       -0.00649   0.00111   0.00559   0.00421   0.00965   0.00316
   D34       -2.67460  -0.00522  -0.02197  -0.12810  -0.15270  -2.82730
   D35       -0.00832  -0.00068  -0.00454  -0.00083  -0.00494  -0.01326
   D36       -2.76491  -0.00681  -0.02895  -0.12259  -0.14546  -2.91037
   D37        2.74487   0.00571   0.02173   0.12104   0.13754   2.88241
[...]
     15         16           0        3.503297    1.271118   -0.257566
     16          6           0        4.287341   -0.260463   -0.017112
     17          6           0        3.417293   -1.286823    0.178046
     18          1           0        5.365784   -0.309283   -0.034816
     19          1           0        3.722614   -2.310170    0.344270
     20          1           0       -2.957067    3.149156    0.748173
     21          1           0       -1.746238    3.024187   -0.526552
     22          1           0       -1.326495    2.583237    1.133724
 ---------------------------------------------------------------------
 Rotational constants (GHZ):           1.2866270           0.2845548           0.2358550

 **********************************************************************

            Population analysis using the SCF Density.

 **********************************************************************

 Orbital symmetries:
       Occupied  (A) (A) (A) (A) (A) (A) (A) (A) (A) (A) (A) (A)
                 (A) (A) (A) (A) (A) (A) (A) (A) (A) (A) (A) (A)
                 (A) (A) (A) (A) (A) (A) (A) (A) (A) (A) (A) (A)
                 (A) (A) (A) (A) (A) (A) (A) (A) (A) (A) (A) (A)
                 (A) (A) (A) (A) (A) (A) (A) (A) (A) (A) (A) (A)
                 (A)
       Virtual   (A) (A) (A) (A) (A) (A) (A) (A) (A) (A) (A) (A)
                 (A) (A) (A) (A) (A) (A) (A) (A) (A) (A) (A) (A)
                 (A) (A) (A) (A) (A) (A) (A) (A) (A) (A) (A) (A)
                 (A) (A) (A) (A) (A) (A) (A) (A) (A) (A) (A) (A)
                 (A) (A) (A) (A) (A) (A) (A) (A) (A) (A) (A) (A)
                 (A) (A) (A) (A) (A) (A) (A) (A) (A) (A) (A) (A)
                 (A) (A) (A) (A) (A) (A) (A) (A) (A) (A) (A) (A)
                 (A) (A) (A) (A) (A) (A) (A) (A) (A) (A) (A) (A)
                 (A) (A) (A) (A) (A) (A) (A) (A) (A) (A) (A) (A)
                 (A) (A) (A) (A) (A) (A) (A) (A) (A) (A) (A) (A)
                 (A) (A) (A) (A) (A) (A) (A) (A) (A) (A) (A) (A)
                 (A) (A) (A) (A) (A) (A) (A) (A) (A) (A) (A) (A)
                 (A) (A) (A) (A) (A) (A) (A) (A) (A) (A) (A) (A)
                 (A) (A) (A) (A) (A) (A) (A) (A) (A) (A) (A) (A)
                 (A) (A) (A) (A) (A) (A) (A) (A) (A) (A) (A) (A)
                 (A) (A) (A) (A) (A) (A) (A) (A) (A) (A) (A) (A)
                 (A) (A) (A) (A) (A) (A) (A) (A) (A) (A) (A) (A)
                 (A) (A) (A) (A) (A) (A) (A) (A) (A) (A) (A) (A)
                 (A) (A) (A) (A) (A) (A) (A) (A) (A) (A) (A) (A)
                 (A) (A) (A) (A) (A) (A) (A) (A) (A) (A) (A) (A)
                 (A) (A) (A) (A) (A) (A) (A) (A) (A) (A) (A) (A)
                 (A) (A) (A) (A) (A) (A) (A) (A) (A) (A) (A) (A)
                 (A) (A) (A) (A) (A) (A) (A) (A) (A) (A) (A) (A)
                 (A) (A) (A) (A) (A) (A) (A) (A) (A) (A) (A) (A)
                 (A) (A) (A) (A) (A) (A) (A) (A) (A) (A) (A) (A)
                 (A) (A) (A) (A) (A) (A) (A) (A) (A) (A) (A) (A)
                 (A) (A) (A) (A)
 The electronic state is 1-A.
 Alpha  occ. eigenvalues --  -89.05110 -89.04994 -89.04828 -10.34041 -10.33024
 Alpha  occ. eigenvalues --  -10.32430 -10.32365 -10.32340 -10.31807 -10.30600
 Alpha  occ. eigenvalues --  -10.30553 -10.30472 -10.29356 -10.29053  -8.09155
 Alpha  occ. eigenvalues --   -8.09054  -8.08927  -6.04004  -6.03914  -6.03760
 Alpha  occ. eigenvalues --   -6.03631  -6.03540  -6.03372  -6.03218  -6.03087
 Alpha  occ. eigenvalues --   -6.03026  -1.02293  -0.99837  -0.95325  -0.88166
 Alpha  occ. eigenvalues --   -0.86809  -0.85882  -0.81081  -0.80288  -0.77928
 Alpha  occ. eigenvalues --   -0.70716  -0.66685  -0.66515  -0.63005  -0.61138
 Alpha  occ. eigenvalues --   -0.58915  -0.58561  -0.52951  -0.52614  -0.52234
 Alpha  occ. eigenvalues --   -0.50805  -0.50058  -0.48337  -0.47741  -0.47103
 Alpha  occ. eigenvalues --   -0.46547  -0.45957  -0.44216  -0.43126  -0.42971
 Alpha  occ. eigenvalues --   -0.41545  -0.37189  -0.34309  -0.32896  -0.30809
 Alpha  occ. eigenvalues --   -0.27416
 Alpha virt. eigenvalues --    0.00385   0.05134   0.05697   0.06017   0.06419
 Alpha virt. eigenvalues --    0.06705   0.07120   0.07721   0.08177   0.08941
 Alpha virt. eigenvalues --    0.09209   0.09380   0.09609   0.10184   0.10766
 Alpha virt. eigenvalues --    0.11198   0.11221   0.11462   0.12023   0.12803
 Alpha virt. eigenvalues --    0.13568   0.13610   0.13801   0.14023   0.14649
 Alpha virt. eigenvalues --    0.15256   0.15569   0.16318   0.16849   0.17071
 Alpha virt. eigenvalues --    0.17779   0.18262   0.18856   0.19137   0.19348
 Alpha virt. eigenvalues --    0.20157   0.20502   0.20692   0.20929   0.21640
 Alpha virt. eigenvalues --    0.21919   0.22076   0.22480   0.23252   0.23324
 Alpha virt. eigenvalues --    0.24210   0.24456   0.24989   0.25134   0.25164
 Alpha virt. eigenvalues --    0.25545   0.26012   0.26620   0.26848   0.26936
 Alpha virt. eigenvalues --    0.27379   0.27958   0.28353   0.28712   0.29223
 Alpha virt. eigenvalues --    0.29648   0.29894   0.30662   0.31104   0.31765
 Alpha virt. eigenvalues --    0.32379   0.32912   0.33012   0.34005   0.34302
 Alpha virt. eigenvalues --    0.34779   0.35269   0.37793   0.38354   0.38828
 Alpha virt. eigenvalues --    0.39227   0.40501   0.40712   0.41673   0.41837
 Alpha virt. eigenvalues --    0.43226   0.43855   0.45219   0.46755   0.47570
 Alpha virt. eigenvalues --    0.49830   0.50062   0.51232   0.52584   0.53021
 Alpha virt. eigenvalues --    0.53852   0.55226   0.56483   0.58154   0.59165
 Alpha virt. eigenvalues --    0.60167   0.62454   0.62845   0.63634   0.64068
 Alpha virt. eigenvalues --    0.64251   0.65222   0.66216   0.66830   0.68017
 Alpha virt. eigenvalues --    0.68903   0.70309   0.70924   0.71299   0.72251
 Alpha virt. eigenvalues --    0.72674   0.73439   0.74344   0.75539   0.77117
 Alpha virt. eigenvalues --    0.77905   0.78817   0.79713   0.80125   0.81075
 Alpha virt. eigenvalues --    0.81194   0.81821   0.82722   0.83899   0.85259
 Alpha virt. eigenvalues --    0.85936   0.86539   0.86802   0.87579   0.88014
 Alpha virt. eigenvalues --    0.88637   0.90493   0.90970   0.91790   0.92161
 Alpha virt. eigenvalues --    0.93255   0.93975   0.94879   0.96045   0.96405
 Alpha virt. eigenvalues --    0.96974   0.97685   0.98594   0.99564   1.00071
 Alpha virt. eigenvalues --    1.02530   1.03963   1.05467   1.06039   1.06689
 Alpha virt. eigenvalues --    1.08461   1.10717   1.11533   1.11840   1.13310
 Alpha virt. eigenvalues --    1.14327   1.14931   1.15240   1.16866   1.17566
 Alpha virt. eigenvalues --    1.20236   1.21994   1.24146   1.26994   1.29842
 Alpha virt. eigenvalues --    1.30953   1.31774   1.36280   1.41957   1.43132
 Alpha virt. eigenvalues --    1.43814   1.44114   1.45801   1.47611   1.50826
 Alpha virt. eigenvalues --    1.51939   1.56815   1.58998   1.60888   1.63763
 Alpha virt. eigenvalues --    1.64950   1.65689   1.66646   1.67053   1.68527
 Alpha virt. eigenvalues --    1.69489   1.71681   1.72761   1.73899   1.75587
 Alpha virt. eigenvalues --    1.77062   1.78533   1.79300   1.81464   1.82223
 Alpha virt. eigenvalues --    1.82826   1.84252   1.85402   1.86005   1.86479
 Alpha virt. eigenvalues --    1.89231   1.91013   1.91844   1.93047   1.94268
 Alpha virt. eigenvalues --    1.95892   1.97867   1.98983   2.01347   2.03914
 Alpha virt. eigenvalues --    2.06066   2.07019   2.07817   2.08431   2.10867
 Alpha virt. eigenvalues --    2.12032   2.13802   2.15330   2.16581   2.16879
 Alpha virt. eigenvalues --    2.17714   2.18742   2.19774   2.21648   2.23300
 Alpha virt. eigenvalues --    2.25099   2.26188   2.27297   2.30296   2.30894
 Alpha virt. eigenvalues --    2.33728   2.40487   2.45540   2.46145   2.49493
 Alpha virt. eigenvalues --    2.51293   2.53195   2.55798   2.59608   2.62085
 Alpha virt. eigenvalues --    2.63597   2.64321   2.69440   2.71631   2.72089
 Alpha virt. eigenvalues --    2.76418   2.79122   2.79906   2.81235   2.82253
 Alpha virt. eigenvalues --    2.82472   2.83178   2.83856   2.84394   2.88053
 Alpha virt. eigenvalues --    2.89487   2.93972   2.94135   2.97251   3.01412
 Alpha virt. eigenvalues --    3.04639   3.05540   3.10955   3.13191   3.13548
 Alpha virt. eigenvalues --    3.18216   3.18886   3.22906   3.25345   3.29236
 Alpha virt. eigenvalues --    3.32131   3.39486   3.41061   3.42946   3.48039
 Alpha virt. eigenvalues --    3.53011   3.56031   3.58408   3.64358   3.68072
 Alpha virt. eigenvalues --    3.80399   3.89619   3.92958   4.03898   4.07609
 Alpha virt. eigenvalues --    4.17706   4.22463   4.44436   4.47314   4.71960
 Alpha virt. eigenvalues --    8.08917   8.11530   8.15433  17.41856  17.42813
 Alpha virt. eigenvalues --   17.44340  17.59750  17.61487  17.64660  17.66913
 Alpha virt. eigenvalues --   17.69780  17.72196  23.60776  23.77375  23.90871
 Alpha virt. eigenvalues --   23.94221  23.98650  24.08768  24.17986  24.22120
 Alpha virt. eigenvalues --   24.26343  24.29941  24.30592 189.33910 189.36781
 Alpha virt. eigenvalues --  189.41350
          Condensed to atoms (all electrons):
               1          2          3          4          5          6
     1  C    7.558391   0.177699  -0.566891  -0.482220   0.351490   0.373232
     2  C    0.177699   7.377450   0.133211  -1.296423  -0.075846  -0.056061
     3  C   -0.566891   0.133211   8.267804  -0.029778  -0.062541   0.019000
     4  C   -0.482220  -1.296423  -0.029778   7.491807  -0.291152   0.003741
     5  C    0.351490  -0.075846  -0.062541  -0.291152   5.522760   0.009395
     6  H    0.373232  -0.056061   0.019000   0.003741   0.009395   0.500806
     7  S   -0.823129  -0.324013  -1.315022   0.588447   0.064729   0.008339
     8  H    0.015375  -0.006355   0.003097   0.002465   0.393524  -0.004286
     9  C   -0.351214   0.684823  -0.365123  -0.304985   0.144064  -0.005829
    10  S    0.076560  -0.006885   0.487681  -0.056337  -0.046464  -0.000788
    11  C   -0.013488  -0.246433  -0.652210   0.083105  -0.012622  -0.000360
    12  C   -0.081469  -0.453853   0.115525   0.109312   0.023385   0.000385
    13  C   -0.342431  -0.304789  -0.852773   0.264847   0.099769   0.003839
    14  H    0.006663   0.010722   0.012376   0.002755  -0.000418  -0.000015
    15  S    0.000642   0.007736  -0.050261  -0.020490   0.002902   0.000009
    16  C   -0.000247  -0.012748  -0.056211   0.008297  -0.001008  -0.000001
    17  C    0.017090  -0.034736   0.317243  -0.021482  -0.007207  -0.000016
    18  H   -0.000000   0.000018   0.000051  -0.000005  -0.000000   0.000000
    19  H   -0.000021  -0.000214  -0.001334   0.000020   0.000020  -0.000000
    20  H    0.015043  -0.080969   0.005810   0.408386   0.012273   0.002202
    21  H    0.056823   0.067420  -0.048256   0.304544   0.002345  -0.000122
    22  H   -0.077111  -0.061449   0.060818   0.417344   0.001374   0.000093
               7          8          9         10         11         12
     1  C   -0.823129   0.015375  -0.351214   0.076560  -0.013488  -0.081469
     2  C   -0.324013  -0.006355   0.684823  -0.006885  -0.246433  -0.453853
     3  C   -1.315022   0.003097  -0.365123   0.487681  -0.652210   0.115525
     4  C    0.588447   0.002465  -0.304985  -0.056337   0.083105   0.109312
     5  C    0.064729   0.393524   0.144064  -0.046464  -0.012622   0.023385
     6  H    0.008339  -0.004286  -0.005829  -0.000788  -0.000360   0.000385
     7  S   18.172650  -0.028315   0.058401  -0.370030  -0.057269   0.253123
     8  H   -0.028315   0.447963  -0.008119   0.000588   0.000102  -0.000239
     9  C    0.058401  -0.008119   9.991137   0.422906  -1.462495  -1.782585
    10  S   -0.370030   0.000588   0.422906  18.150279   0.051791  -1.021109
    11  C   -0.057269   0.000102  -1.462495   0.051791  16.919957  -4.730110
    12  C    0.253123  -0.000239  -1.782585  -1.021109  -4.730110  11.597434
    13  C    0.404158  -0.001589  -0.410040  -0.780282  -0.266577   1.043692
    14  H   -0.000482  -0.000000   0.018967   0.010542  -0.069234  -0.061604
    15  S    0.004021  -0.000004  -0.858953   0.047734   0.414241  -0.583138
    16  C   -0.006694   0.000001  -0.261334   0.023763   1.029836  -0.931422
    17  C   -0.058740   0.000001   0.218663  -0.439934  -5.498345   2.364453
    18  H   -0.000004   0.000000   0.005320  -0.000939   0.004674   0.033834
    19  H    0.000282   0.000000  -0.006927   0.014623   0.032506  -0.054088
    20  H    0.001377  -0.000021  -0.013819  -0.001060  -0.000222   0.004186
    21  H   -0.005127   0.000003   0.016276   0.002857  -0.003677  -0.011811
    22  H    0.004535   0.000010   0.044142   0.002047  -0.014231  -0.019526
              13         14         15         16         17         18
     1  C   -0.342431   0.006663   0.000642  -0.000247   0.017090  -0.000000
     2  C   -0.304789   0.010722   0.007736  -0.012748  -0.034736   0.000018
     3  C   -0.852773   0.012376  -0.050261  -0.056211   0.317243   0.000051
     4  C    0.264847   0.002755  -0.020490   0.008297  -0.021482  -0.000005
     5  C    0.099769  -0.000418   0.002902  -0.001008  -0.007207  -0.000000
     6  H    0.003839  -0.000015   0.000009  -0.000001  -0.000016   0.000000
     7  S    0.404158  -0.000482   0.004021  -0.006694  -0.058740  -0.000004
     8  H   -0.001589  -0.000000  -0.000004   0.000001   0.000001   0.000000
     9  C   -0.410040   0.018967  -0.858953  -0.261334   0.218663   0.005320
    10  S   -0.780282   0.010542   0.047734   0.023763  -0.439934  -0.000939
    11  C   -0.266577  -0.069234   0.414241   1.029836  -5.498345   0.004674
    12  C    1.043692  -0.061604  -0.583138  -0.931422   2.364453   0.033834
    13  C    7.830466   0.401776  -0.121259   0.009148  -0.946728  -0.000488
    14  H    0.401776   0.492671   0.013172  -0.002870   0.007024  -0.000002
    15  S   -0.121259   0.013172  17.604668   0.384744  -0.356302  -0.041643
    16  C    0.009148  -0.002870   0.384744   5.767699  -0.250404   0.382514
    17  C   -0.946728   0.007024  -0.356302  -0.250404  10.775311  -0.015432
    18  H   -0.000488  -0.000002  -0.041643   0.382514  -0.015432   0.442662
    19  H   -0.000313   0.000001   0.007340   0.025437   0.342247  -0.003671
    20  H    0.017666   0.000565   0.000162  -0.000003  -0.000024   0.000000
    21  H   -0.027993   0.002528   0.000419  -0.000130   0.000539   0.000000
    22  H    0.001593  -0.003877   0.000867  -0.000070  -0.002099   0.000000
              19         20         21         22
     1  C   -0.000021   0.015043   0.056823  -0.077111
     2  C   -0.000214  -0.080969   0.067420  -0.061449
     3  C   -0.001334   0.005810  -0.048256   0.060818
     4  C    0.000020   0.408386   0.304544   0.417344
     5  C    0.000020   0.012273   0.002345   0.001374
     6  H   -0.000000   0.002202  -0.000122   0.000093
     7  S    0.000282   0.001377  -0.005127   0.004535
     8  H    0.000000  -0.000021   0.000003   0.000010
     9  C   -0.006927  -0.013819   0.016276   0.044142
    10  S    0.014623  -0.001060   0.002857   0.002047
    11  C    0.032506  -0.000222  -0.003677  -0.014231
    12  C   -0.054088   0.004186  -0.011811  -0.019526
    13  C   -0.000313   0.017666  -0.027993   0.001593
    14  H    0.000001   0.000565   0.002528  -0.003877
    15  S    0.007340   0.000162   0.000419   0.000867
    16  C    0.025437  -0.000003  -0.000130  -0.000070
    17  C    0.342247  -0.000024   0.000539  -0.002099
    18  H   -0.003671   0.000000   0.000000   0.000000
    19  H    0.481729   0.000000  -0.000000   0.000000
    20  H    0.000000   0.502542  -0.020830  -0.019233
    21  H   -0.000000  -0.020830   0.507483  -0.030933
    22  H    0.000000  -0.019233  -0.030933   0.518396
 Mulliken charges:
               1
     1  C    0.089215
     2  C    0.501694
     3  C    0.577783
     4  C   -1.182198
     5  C   -0.130772
     6  H    0.146436
     7  S   -0.571238
     8  H    0.185799
     9  C    0.226724
    10  S   -0.567542
    11  C    0.491058
    12  C    0.185624
    13  C   -0.021693
    14  H    0.158742
    15  S   -0.456607
    16  C   -0.108299
    17  C   -0.411123
    18  H    0.193109
    19  H    0.162366
    20  H    0.165969
    21  H    0.187643
    22  H    0.177310
 Sum of Mulliken charges =  -0.00000
 Mulliken charges with hydrogens summed into heavy atoms:
               1
     1  C    0.235651
     2  C    0.501694
     3  C    0.577783
     4  C   -0.651276
     5  C    0.055027
     7  S   -0.571238
     9  C    0.226724
    10  S   -0.567542
    11  C    0.491058
    12  C    0.185624
    13  C    0.137048
    15  S   -0.456607
    16  C    0.084810
    17  C   -0.248757
 Electronic spatial extent (au):  <R**2>=           4326.5243
 Charge=             -0.0000 electrons
 Dipole moment (field-independent basis, Debye):
    X=             -0.3450    Y=              0.8998    Z=              0.0422  Tot=              0.9646
 Quadrupole moment (field-independent basis, Debye-Ang):
   XX=            -86.2779   YY=            -96.2040   ZZ=           -108.9502
   XY=             -5.4078   XZ=              0.5359   YZ=             -0.2713
 Traceless Quadrupole moment (field-independent basis, Debye-Ang):
   XX=             10.8661   YY=              0.9400   ZZ=            -11.8061
   XY=             -5.4078   XZ=              0.5359   YZ=             -0.2713
 Octapole moment (field-independent basis, Debye-Ang**2):
  XXX=             -0.1160  YYY=              3.5249  ZZZ=              0.2904  XYY=             -5.1919
  XXY=            -15.8094  XXZ=             -1.5486  XZZ=             -0.5386  YZZ=              1.3741
  YYZ=              0.7871  XYZ=             -6.5298
 Hexadecapole moment (field-independent basis, Debye-Ang**3):
 XXXX=          -4084.0935 YYYY=          -1100.4210 ZZZZ=           -174.2803 XXXY=            -25.9876
 XXXZ=             17.4222 YYYX=            -36.3811 YYYZ=             -5.8516 ZZZX=             -2.5055
 ZZZY=              1.3411 XXYY=           -910.4940 XXZZ=           -898.0857 YYZZ=           -224.2879
 XXYZ=              7.6776 YYXZ=              3.0107 ZZXY=              3.9355
 N-N= 1.127859218939D+03 E-N=-6.080068258545D+03  KE= 1.615209378991D+03
 Unable to Open any file for archive entry.
 1\1\GINC-CX3-2-4\FOpt\RwB97XD\6-311+G(d,p)\C11H8S3\NS5018\26-Oct-2021\
 0\\# opt=modredundant wb97xd/6-311+g(d,p)\\pBTTT_165.pdb\\0,1\C,-4.187
 1388739,-1.3283426089,-0.1303982777\C,-2.8822995049,-1.0063761342,-0.6
 081042044\C,-2.0612550837,-2.1113596996,-0.6434625895\C,-2.4880159916,
 0.392802928,-0.9795889971\C,-4.3469702628,-2.6419586141,0.1790341983\H
 ,-4.9717437669,-0.5908897403,-0.0164736976\S,-2.911916537,-3.535314962
 7,-0.1127325504\H,-5.2247340333,-3.1370107137,0.5655386468\C,-0.687512
 2157,-2.2152898366,-1.1168659188\S,0.2772411257,-3.6264118606,-0.70125
 79623\C,1.6149579292,-3.0382690456,-1.6260967089\C,1.3128547159,-1.823
 2122467,-2.2053463078\C,0.00119699,-1.3528750155,-1.9275308495\H,-0.41
 91973145,-0.4471244278,-2.3350342828\S,2.6518263448,-1.2322003944,-3.1
 305697898\C,3.5907718246,-2.6337567633,-2.715475402\C,2.9270110795,-3.
 5097390495,-1.9151240622\H,4.5968959522,-2.7260757654,-3.0961694928\H,
 3.3519611201,-4.4362291458,-1.5557869695\H,-3.1915903809,1.1101496234,
 -0.5532229541\H,-2.489896044,0.537225654,-2.0651852923\H,-1.4884470729
 ,0.6372578194,-0.6111465355\\Version=ES64L-G16RevC.01\State=1-A\HF=-16
 18.5075298\RMSD=5.968e-09\RMSF=6.224e-04\Dipole=-0.1495735,0.3454053,-
 0.0483319\Quadrupole=6.8904103,-0.1144308,-6.7759795,-4.8256615,-3.941
 3153,-1.4968308\PG=C01 [X(C11H8S3)]\\@
 The archive entry for this job was punched.


 LEARN FROM YESTERDAY,
 LIVE FOR TODAY,
 LOOK TO TOMORROW,
 REST THIS AFTERNOON.

           -- SNOOPY
 Job cpu time:       0 days  3 hours 10 minutes 32.6 seconds.
 Elapsed time:       0 days  0 hours 24 minutes  0.7 seconds.
 File lengths (MBytes):  RWF=     91 Int=      0 D2E=      0 Chk=     11 Scr=      1
 Normal termination of Gaussian 16 at Tue Oct 26 02:05:57 2021.
