 Entering Gaussian System, Link 0=g16
 Input=pBTTT_155.gjf
 Output=pBTTT_155.log
 Initial command:
 /apps/gaussian/g16-c01-avx/g16/l1.exe "/tmp/pbs.4762230[330].pbs/Gau-1358655.inp" -scrdir="/tmp/pbs.4762230[330].pbs/"
 Entering Link 1 = /apps/gaussian/g16-c01-avx/g16/l1.exe PID=   1358657.
  
 Copyright (c) 1988-2019, Gaussian, Inc.  All Rights Reserved.
  
 This is part of the Gaussian(R) 16 program.  It is based on
 the Gaussian(R) 09 system (copyright 2009, Gaussian, Inc.),
 the Gaussian(R) 03 system (copyright 2003, Gaussian, Inc.),
 the Gaussian(R) 98 system (copyright 1998, Gaussian, Inc.),
 the Gaussian(R) 94 system (copyright 1995, Gaussian, Inc.),
 the Gaussian 92(TM) system (copyright 1992, Gaussian, Inc.),
 the Gaussian 90(TM) system (copyright 1990, Gaussian, Inc.),
 the Gaussian 88(TM) system (copyright 1988, Gaussian, Inc.),
 the Gaussian 86(TM) system (copyright 1986, Carnegie Mellon
 University), and the Gaussian 82(TM) system (copyright 1983,
 Carnegie Mellon University). Gaussian is a federally registered
 trademark of Gaussian, Inc.
  
 This software contains proprietary and confidential information,
 including trade secrets, belonging to Gaussian, Inc.
  
 This software is provided under written license and may be
 used, copied, transmitted, or stored only in accord with that
 written license.
  
 The following legend is applicable only to US Government
 contracts under FAR:
  
                    RESTRICTED RIGHTS LEGEND
  
 Use, reproduction and disclosure by the US Government is
 subject to restrictions as set forth in subparagraphs (a)
 and (c) of the Commercial Computer Software - Restricted
 Rights clause in FAR 52.227-19.
  
 Gaussian, Inc.
 340 Quinnipiac St., Bldg. 40, Wallingford CT 06492
  
  
 ---------------------------------------------------------------
 Warning -- This program may not be used in any manner that
 competes with the business of Gaussian, Inc. or will provide
 assistance to any competitor of Gaussian, Inc.  The licensee
 of this program is prohibited from giving any competitor of
 Gaussian, Inc. access to this program.  By using this program,
 the user acknowledges that Gaussian, Inc. is engaged in the
 business of creating and licensing software in the field of
 computational chemistry and represents and warrants to the
 licensee that it is not a competitor of Gaussian, Inc. and that
 it will not use this program in any manner prohibited above.
 ---------------------------------------------------------------
  

 Cite this work as:
 Gaussian 16, Revision C.01,
 M. J. Frisch, G. W. Trucks, H. B. Schlegel, G. E. Scuseria, 
 M. A. Robb, J. R. Cheeseman, G. Scalmani, V. Barone, 
 G. A. Petersson, H. Nakatsuji, X. Li, M. Caricato, A. V. Marenich, 
 J. Bloino, B. G. Janesko, R. Gomperts, B. Mennucci, H. P. Hratchian, 
 J. V. Ortiz, A. F. Izmaylov, J. L. Sonnenberg, D. Williams-Young, 
 F. Ding, F. Lipparini, F. Egidi, J. Goings, B. Peng, A. Petrone, 
 T. Henderson, D. Ranasinghe, V. G. Zakrzewski, J. Gao, N. Rega, 
 G. Zheng, W. Liang, M. Hada, M. Ehara, K. Toyota, R. Fukuda, 
 J. Hasegawa, M. Ishida, T. Nakajima, Y. Honda, O. Kitao, H. Nakai, 
 T. Vreven, K. Throssell, J. A. Montgomery, Jr., J. E. Peralta, 
 F. Ogliaro, M. J. Bearpark, J. J. Heyd, E. N. Brothers, K. N. Kudin, 
 V. N. Staroverov, T. A. Keith, R. Kobayashi, J. Normand, 
 K. Raghavachari, A. P. Rendell, J. C. Burant, S. S. Iyengar, 
 J. Tomasi, M. Cossi, J. M. Millam, M. Klene, C. Adamo, R. Cammi, 
 J. W. Ochterski, R. L. Martin, K. Morokuma, O. Farkas, 
 J. B. Foresman, and D. J. Fox, Gaussian, Inc., Wallingford CT, 2019.
 
 ******************************************
 Gaussian 16:  ES64L-G16RevC.01  3-Jul-2019
                26-Oct-2021 
 ******************************************
 %mem=100GB
 %nprocshared=8
 Will use up to    8 processors via shared memory.
 --------------------------------------
 # opt=modredundant wb97xd/6-311+g(d,p)
 --------------------------------------
 1/18=120,19=15,26=3,38=1/1,3;
 2/9=110,12=2,17=6,18=5,40=1/2;
 3/5=4,6=6,7=111,11=2,25=1,30=1,71=1,74=-58/1,2,3;
 4//1;
 5/5=2,38=5/2;
 6/7=2,8=2,9=2,10=2,28=1/1;
 7//1,2,3,16;
 1/18=20,19=15,26=3/3(2);
 2/9=110/2;
 99//99;
 2/9=110/2;
 3/5=4,6=6,7=111,11=2,25=1,30=1,71=1,74=-58/1,2,3;
 4/5=5,16=3,69=1/1;
 5/5=2,38=5/2;
 7//1,2,3,16;
 1/18=20,19=15,26=3/3(-5);
 2/9=110/2;
 6/7=2,8=2,9=2,10=2,19=2,28=1/1;
 99/9=1/99;
 -------------
 pBTTT_155.pdb
 -------------
 Symbolic Z-matrix:
 Charge =  0 Multiplicity = 1
 C                    -4.25     -1.36     -0.21 
 C                    -2.93     -0.95     -0.61 
 C                    -1.97     -2.05     -0.62 
 C                    -2.66      0.47     -0.96 
 C                    -4.33     -2.76      0.1 
 H                    -5.1      -0.7      -0.14 
 S                    -2.8      -3.56     -0.11 
 H                    -5.23     -3.27      0.41 
 C                    -0.56     -2.13     -0.97 
 S                     0.514    -3.394    -0.296 
 C                     1.89     -2.807    -1.166 
 C                     1.571    -1.675    -1.998 
 C                     0.192    -1.295    -1.909 
 H                    -0.265    -0.581    -2.576 
 S                     2.639    -1.52     -3.353 
 C                     3.55     -2.945    -2.848 
 C                     3.008    -3.546    -1.651 
 H                     4.3      -3.405    -3.477 
 H                     3.247    -4.561    -1.344 
 H                    -3.55      1.09     -0.83 
 H                    -2.35      0.56     -2. 
 H                    -1.88      0.89     -0.31 
 
 The following ModRedundant input section has been read:
 D       2       3       9      10 F                                           
 

 GradGradGradGradGradGradGradGradGradGradGradGradGradGradGradGradGradGrad
 Berny optimization.
 Initialization pass.
                           ----------------------------
                           !    Initial Parameters    !
                           ! (Angstroms and Degrees)  !
 --------------------------                            --------------------------
 ! Name  Definition              Value          Derivative Info.                !
 --------------------------------------------------------------------------------
 ! R1    R(1,2)                  1.4389         estimate D2E/DX2                !
 ! R2    R(1,5)                  1.4361         estimate D2E/DX2                !
 ! R3    R(1,6)                  1.0784         estimate D2E/DX2                !
 ! R4    R(2,3)                  1.46           estimate D2E/DX2                !
 ! R5    R(2,4)                  1.4872         estimate D2E/DX2                !
 ! R6    R(3,7)                  1.797          estimate D2E/DX2                !
 ! R7    R(3,9)                  1.455          estimate D2E/DX2                !
 ! R8    R(4,20)                 1.0924         estimate D2E/DX2                !
 ! R9    R(4,21)                 1.0889         estimate D2E/DX2                !
 ! R10   R(4,22)                 1.0988         estimate D2E/DX2                !
 ! R11   R(5,7)                  1.7393         estimate D2E/DX2                !
 ! R12   R(5,8)                  1.0799         estimate D2E/DX2                !
 ! R13   R(9,10)                 1.7904         estimate D2E/DX2                !
 ! R14   R(9,13)                 1.4644         estimate D2E/DX2                !
 ! R15   R(10,11)                1.7306         estimate D2E/DX2                !
 ! R16   R(11,12)                1.4406         estimate D2E/DX2                !
 ! R17   R(11,17)                1.4252         estimate D2E/DX2                !
 ! R18   R(12,13)                1.4332         estimate D2E/DX2                !
 ! R19   R(12,15)                1.7322         estimate D2E/DX2                !
 ! R20   R(13,14)                1.0787         estimate D2E/DX2                !
 ! R21   R(15,16)                1.7651         estimate D2E/DX2                !
 ! R22   R(16,17)                1.4449         estimate D2E/DX2                !
 ! R23   R(16,18)                1.0815         estimate D2E/DX2                !
 ! R24   R(17,19)                1.087          estimate D2E/DX2                !
 ! A1    A(2,1,5)              112.8843         estimate D2E/DX2                !
 ! A2    A(2,1,6)              124.5209         estimate D2E/DX2                !
 ! A3    A(5,1,6)              122.5942         estimate D2E/DX2                !
 ! A4    A(1,2,3)              112.9799         estimate D2E/DX2                !
 ! A5    A(1,2,4)              120.2665         estimate D2E/DX2                !
 ! A6    A(3,2,4)              126.7536         estimate D2E/DX2                !
 ! A7    A(2,3,7)              109.1138         estimate D2E/DX2                !
 ! A8    A(2,3,9)              132.8639         estimate D2E/DX2                !
 ! A9    A(7,3,9)              118.0132         estimate D2E/DX2                !
 ! A10   A(2,4,20)             111.468          estimate D2E/DX2                !
 ! A11   A(2,4,21)             110.8154         estimate D2E/DX2                !
 ! A12   A(2,4,22)             110.7706         estimate D2E/DX2                !
 ! A13   A(20,4,21)            107.3779         estimate D2E/DX2                !
 ! A14   A(20,4,22)            106.918          estimate D2E/DX2                !
 ! A15   A(21,4,22)            109.3476         estimate D2E/DX2                !
 ! A16   A(1,5,7)              111.9209         estimate D2E/DX2                !
 ! A17   A(1,5,8)              124.6643         estimate D2E/DX2                !
 ! A18   A(7,5,8)              123.4062         estimate D2E/DX2                !
 ! A19   A(3,7,5)               93.0997         estimate D2E/DX2                !
 ! A20   A(3,9,10)             121.9774         estimate D2E/DX2                !
 ! A21   A(3,9,13)             128.3555         estimate D2E/DX2                !
 ! A22   A(10,9,13)            109.6275         estimate D2E/DX2                !
 ! A23   A(9,10,11)             92.7652         estimate D2E/DX2                !
 ! A24   A(10,11,12)           112.3835         estimate D2E/DX2                !
 ! A25   A(10,11,17)           128.2371         estimate D2E/DX2                !
 ! A26   A(12,11,17)           112.6189         estimate D2E/DX2                !
 ! A27   A(11,12,13)           112.6774         estimate D2E/DX2                !
 ! A28   A(11,12,15)           112.6774         estimate D2E/DX2                !
 ! A29   A(13,12,15)           128.1768         estimate D2E/DX2                !
 ! A30   A(9,13,12)            112.504          estimate D2E/DX2                !
 ! A31   A(9,13,14)            123.805          estimate D2E/DX2                !
 ! A32   A(12,13,14)           123.0086         estimate D2E/DX2                !
 ! A33   A(12,15,16)            91.2706         estimate D2E/DX2                !
 ! A34   A(15,16,17)           112.2849         estimate D2E/DX2                !
 ! A35   A(15,16,18)           122.3358         estimate D2E/DX2                !
 ! A36   A(17,16,18)           124.4025         estimate D2E/DX2                !
 ! A37   A(11,17,16)           111.1301         estimate D2E/DX2                !
 ! A38   A(11,17,19)           124.0924         estimate D2E/DX2                !
 ! A39   A(16,17,19)           122.6755         estimate D2E/DX2                !
 ! D1    D(5,1,2,3)              0.3915         estimate D2E/DX2                !
 ! D2    D(5,1,2,4)           -179.5973         estimate D2E/DX2                !
 ! D3    D(6,1,2,3)           -179.8811         estimate D2E/DX2                !
 ! D4    D(6,1,2,4)              0.13           estimate D2E/DX2                !
 ! D5    D(2,1,5,7)             -0.3845         estimate D2E/DX2                !
 ! D6    D(2,1,5,8)           -179.3471         estimate D2E/DX2                !
 ! D7    D(6,1,5,7)            179.8822         estimate D2E/DX2                !
 ! D8    D(6,1,5,8)              0.9196         estimate D2E/DX2                !
 ! D9    D(1,2,3,7)             -0.2224         estimate D2E/DX2                !
 ! D10   D(1,2,3,9)            178.6265         estimate D2E/DX2                !
 ! D11   D(4,2,3,7)            179.7656         estimate D2E/DX2                !
 ! D12   D(4,2,3,9)             -1.3855         estimate D2E/DX2                !
 ! D13   D(1,2,4,20)             2.1641         estimate D2E/DX2                !
 ! D14   D(1,2,4,21)          -117.3645         estimate D2E/DX2                !
 ! D15   D(1,2,4,22)           121.0843         estimate D2E/DX2                !
 ! D16   D(3,2,4,20)          -177.8231         estimate D2E/DX2                !
 ! D17   D(3,2,4,21)            62.6483         estimate D2E/DX2                !
 ! D18   D(3,2,4,22)           -58.9029         estimate D2E/DX2                !
 ! D19   D(2,3,7,5)              0.0033         estimate D2E/DX2                !
 ! D20   D(9,3,7,5)           -179.041          estimate D2E/DX2                !
 ! D21   D(2,3,9,10)           155.0005         Frozen                          !
 ! D22   D(2,3,9,13)           -27.5338         estimate D2E/DX2                !
 ! D23   D(7,3,9,10)           -26.2315         estimate D2E/DX2                !
 ! D24   D(7,3,9,13)           151.2342         estimate D2E/DX2                !
 ! D25   D(1,5,7,3)              0.2153         estimate D2E/DX2                !
 ! D26   D(8,5,7,3)            179.1932         estimate D2E/DX2                !
 ! D27   D(3,9,10,11)          179.7846         estimate D2E/DX2                !
 ! D28   D(13,9,10,11)           1.8943         estimate D2E/DX2                !
 ! D29   D(3,9,13,12)         -179.8281         estimate D2E/DX2                !
 ! D30   D(3,9,13,14)           -9.0632         estimate D2E/DX2                !
 ! D31   D(10,9,13,12)          -2.1104         estimate D2E/DX2                !
 ! D32   D(10,9,13,14)         168.6546         estimate D2E/DX2                !
 ! D33   D(9,10,11,12)          -1.2318         estimate D2E/DX2                !
 ! D34   D(9,10,11,17)        -149.8883         estimate D2E/DX2                !
 ! D35   D(10,11,12,13)          0.2101         estimate D2E/DX2                !
 ! D36   D(10,11,12,15)       -154.027          estimate D2E/DX2                !
 ! D37   D(17,11,12,13)        153.9394         estimate D2E/DX2                !
 ! D38   D(17,11,12,15)         -0.2978         estimate D2E/DX2                !
 ! D39   D(10,11,17,16)        149.7214         estimate D2E/DX2                !
 ! D40   D(10,11,17,19)        -14.1212         estimate D2E/DX2                !
 ! D41   D(12,11,17,16)          1.1243         estimate D2E/DX2                !
 ! D42   D(12,11,17,19)       -162.7183         estimate D2E/DX2                !
 ! D43   D(11,12,13,9)           1.2615         estimate D2E/DX2                !
 ! D44   D(11,12,13,14)       -169.5885         estimate D2E/DX2                !
 ! D45   D(15,12,13,9)         150.5866         estimate D2E/DX2                !
 ! D46   D(15,12,13,14)        -20.2634         estimate D2E/DX2                !
 ! D47   D(11,12,15,16)         -0.4681         estimate D2E/DX2                !
 ! D48   D(13,12,15,16)       -149.7933         estimate D2E/DX2                !
 ! D49   D(12,15,16,17)          1.1131         estimate D2E/DX2                !
 ! D50   D(12,15,16,18)        170.2604         estimate D2E/DX2                !
 ! D51   D(15,16,17,11)         -1.4717         estimate D2E/DX2                !
 ! D52   D(15,16,17,19)        162.639          estimate D2E/DX2                !
 ! D53   D(18,16,17,11)       -170.3548         estimate D2E/DX2                !
 ! D54   D(18,16,17,19)         -6.244          estimate D2E/DX2                !
 --------------------------------------------------------------------------------
 Trust Radius=3.00D-01 FncErr=1.00D-07 GrdErr=1.00D-06 EigMax=2.50D+02 EigMin=1.00D-04
 Number of steps in this run=    127 maximum allowed number of steps=    132.
 GradGradGradGradGradGradGradGradGradGradGradGradGradGradGradGradGradGrad

                          Input orientation:                          
 ---------------------------------------------------------------------
 Center     Atomic      Atomic             Coordinates (Angstroms)
 Number     Number       Type             X           Y           Z
 ---------------------------------------------------------------------
      1          6           0       -4.250000   -1.360000   -0.210000
      2          6           0       -2.930000   -0.950000   -0.610000
      3          6           0       -1.970000   -2.050000   -0.620000
      4          6           0       -2.660000    0.470000   -0.960000
      5          6           0       -4.330000   -2.760000    0.100000
      6          1           0       -5.100000   -0.700000   -0.140000
      7         16           0       -2.800000   -3.560000   -0.110000
      8          1           0       -5.230000   -3.270000    0.410000
      9          6           0       -0.560000   -2.130000   -0.970000
     10         16           0        0.514000   -3.394000   -0.296000
     11          6           0        1.890000   -2.807000   -1.166000
     12          6           0        1.571000   -1.675000   -1.998000
     13          6           0        0.192000   -1.295000   -1.909000
     14          1           0       -0.265000   -0.581000   -2.576000
     15         16           0        2.639000   -1.520000   -3.353000
     16          6           0        3.550000   -2.945000   -2.848000
     17          6           0        3.008000   -3.546000   -1.651000
     18          1           0        4.300000   -3.405000   -3.477000
     19          1           0        3.247000   -4.561000   -1.344000
     20          1           0       -3.550000    1.090000   -0.830000
     21          1           0       -2.350000    0.560000   -2.000000
     22          1           0       -1.880000    0.890000   -0.310000
 ---------------------------------------------------------------------
                    Distance matrix (angstroms):
                    1          2          3          4          5
     1  C    0.000000
     2  C    1.438923   0.000000
     3  C    2.417147   1.460034   0.000000
     4  C    2.537617   1.487212   2.634787   0.000000
     5  C    1.436141   2.395871   2.567509   3.787532   0.000000
     6  H    1.078425   2.234346   3.442354   2.827525   2.212261
     7  S    2.636759   2.660639   1.796970   4.121044   1.739253
     8  H    2.234480   3.422397   3.630000   4.740190   1.079907
     9  C    3.845335   2.671872   1.454991   3.342170   3.969219
    10  S    5.180757   4.234722   2.842810   5.044370   4.901337
    11  C    6.380231   5.195189   3.971242   5.611031   6.347705
    12  C    6.097558   4.765624   3.818140   4.855907   6.356149
    13  C    4.756279   3.399016   2.627887   3.485646   5.160503
    14  H    4.699470   3.332198   2.981765   3.074424   5.332283
    15  S    7.573795   6.233996   5.384521   6.145401   7.875771
    16  C    8.385182   7.139963   6.019585   7.334226   8.415422
    17  C    7.715805   6.563744   5.299194   6.980828   7.584856
    18  H    9.378583   8.155956   7.022206   8.354191   9.364179
    19  H    8.230271   7.192594   5.834928   7.768595   7.920837
    20  H    2.622384   2.143455   3.521378   1.092428   4.036806
    21  H    3.240447   2.132745   2.976726   1.088944   4.399182
    22  H    3.269465   2.139650   2.957668   1.098772   4.415099
                    6          7          8          9         10
     6  H    0.000000
     7  S    3.670218   0.000000
     8  H    2.631406   2.501879   0.000000
     9  C    4.831708   2.793224   5.001290   0.000000
    10  S    6.228882   3.323364   5.788553   1.790376   0.000000
    11  C    7.372396   4.866030   7.307020   2.549362   1.730562
    12  C    6.993213   5.120880   7.388917   2.409351   2.639889
    13  C    5.611475   4.161573   6.219041   1.464394   2.666693
    14  H    5.415301   4.624048   6.387342   2.250703   3.703810
    15  S    8.419495   6.652922   8.896282   4.035392   4.168063
    16  C    9.337869   6.942432   9.370624   4.591646   3.991441
    17  C    8.724821   6.008972   8.496384   3.898646   2.842387
    18  H   10.335018   7.859435  10.293099   5.615182   4.944965
    19  H    9.275201   6.252277   8.752298   4.532426   3.151108
    20  H    2.466313   4.764808   4.834211   4.396374   6.075155
    21  H    3.551014   4.555107   5.363898   3.391327   5.171095
    22  H    3.595191   4.548505   5.389480   3.361309   4.907554
                   11         12         13         14         15
    11  C    0.000000
    12  C    1.440628   0.000000
    13  C    2.391944   1.433165   0.000000
    14  H    3.403998   2.214005   1.078672   0.000000
    15  S    2.645815   1.732245   2.850188   3.149391   0.000000
    16  C    2.367228   2.500368   3.857510   4.496299   1.765098
    17  C    1.425226   2.384537   3.614335   4.512137   2.671636
    18  H    3.392112   3.553559   4.877129   5.442977   2.515457
    19  H    2.224781   3.400836   4.507661   5.449070   3.695054
    20  H    6.700232   5.935831   4.566731   4.078233   7.175051
    21  H    5.478124   4.513255   3.148185   2.445584   5.571995
    22  H    5.349154   4.619304   3.409430   3.147510   5.957290
                   16         17         18         19         20
    16  C    0.000000
    17  C    1.444913   0.000000
    18  H    1.081546   2.241299   0.000000
    19  H    2.228291   1.087012   2.644775   0.000000
    20  H    8.412107   8.073035   9.425186   8.854220   0.000000
    21  H    6.914776   6.759379   7.881957   7.614551   1.757783
    22  H    7.115727   6.735646   8.165128   7.554382   1.760483
                   21         22
    21  H    0.000000
    22  H    1.784909   0.000000
 Stoichiometry    C11H8S3
 Framework group  C1[X(C11H8S3)]
 Deg. of freedom    60
 Full point group                 C1      NOp   1
 Largest Abelian subgroup         C1      NOp   1
 Largest concise Abelian subgroup C1      NOp   1
                         Standard orientation:                         
 ---------------------------------------------------------------------
 Center     Atomic      Atomic             Coordinates (Angstroms)
 Number     Number       Type             X           Y           Z
 ---------------------------------------------------------------------
      1          6           0       -4.046527    0.695165   -0.115836
      2          6           0       -2.701858    1.123289    0.165367
      3          6           0       -1.721085    0.050879    0.024937
      4          6           0       -2.429608    2.533120    0.552740
      5          6           0       -4.128478   -0.695686   -0.464144
      6          1           0       -4.913623    1.334772   -0.070582
      7         16           0       -2.566423   -1.460473   -0.454979
      8          1           0       -5.041743   -1.211931   -0.720344
      9          6           0       -0.274522    0.006667    0.174931
     10         16           0        0.590694   -1.507004    0.581936
     11          6           0        2.136087   -0.728483    0.559334
     12          6           0        2.041698    0.668509    0.220347
     13          6           0        0.692237    1.090164   -0.014441
     14          1           0        0.441673    2.051333   -0.435041
     15         16           0        3.494964    1.281660   -0.495710
     16          6           0        4.276649   -0.294520   -0.353594
     17          6           0        3.401851   -1.290062    0.222077
     18          1           0        5.227114   -0.513138   -0.821102
     19          1           0        3.592591   -2.357036    0.139735
     20          1           0       -3.351878    3.114934    0.618385
     21          1           0       -1.789746    3.019616   -0.181901
     22          1           0       -1.950807    2.580277    1.540580
 ---------------------------------------------------------------------
 Rotational constants (GHZ):           1.1883771           0.2762268           0.2330130
 Standard basis: 6-311+G(d,p) (5D, 7F)
 There are   394 symmetry adapted cartesian basis functions of A   symmetry.
 There are   380 symmetry adapted basis functions of A   symmetry.
   380 basis functions,   610 primitive gaussians,   394 cartesian basis functions
    61 alpha electrons       61 beta electrons
       nuclear repulsion energy      1107.2700321385 Hartrees.
 NAtoms=   22 NActive=   22 NUniq=   22 SFac= 1.00D+00 NAtFMM=   60 NAOKFM=F Big=F
 Integral buffers will be    131072 words long.
 Raffenetti 2 integral format.
 Two-electron integral symmetry is turned on.
 Nuclear repulsion after empirical dispersion term =     1107.2576737354 Hartrees.
 One-electron integrals computed using PRISM.
 NBasis=   380 RedAO= T EigKep=  1.17D-06  NBF=   380
 NBsUse=   379 1.00D-06 EigRej=  3.00D-07 NBFU=   379
 ExpMin= 4.05D-02 ExpMax= 9.34D+04 ExpMxC= 3.17D+03 IAcc=3 IRadAn=         5 AccDes= 0.00D+00
 Harris functional with IExCor= 4639 and IRadAn=       5 diagonalized for initial guess.
 HarFok:  IExCor= 4639 AccDes= 0.00D+00 IRadAn=         5 IDoV= 1 UseB2=F ITyADJ=14
 ICtDFT=  3500011 ScaDFX=  1.000000  1.000000  1.000000  1.000000
 FoFCou: FMM=F IPFlag=           0 FMFlag=      100000 FMFlg1=           0
         NFxFlg=           0 DoJE=T BraDBF=F KetDBF=T FulRan=T
         wScrn=  0.000000 ICntrl=       500 IOpCl=  0 I1Cent=   200000004 NGrid=           0
         NMat0=    1 NMatS0=      1 NMatT0=    0 NMatD0=    1 NMtDS0=    0 NMtDT0=    0
 Petite list used in FoFCou.
 Requested convergence on RMS density matrix=1.00D-08 within 128 cycles.
 Requested convergence on MAX density matrix=1.00D-06.
 Requested convergence on             energy=1.00D-06.
 No special actions if energy rises.
 SCF Done:  E(RwB97XD) =  -1618.46107396     A.U. after   18 cycles
            NFock= 18  Conv=0.90D-08     -V/T= 2.0028

 **********************************************************************

            Population analysis using the SCF Density.

 **********************************************************************

 Orbital symmetries:
       Occupied  (A) (A) (A) (A) (A) (A) (A) (A) (A) (A) (A) (A)
                 (A) (A) (A) (A) (A) (A) (A) (A) (A) (A) (A) (A)
                 (A) (A) (A) (A) (A) (A) (A) (A) (A) (A) (A) (A)
                 (A) (A) (A) (A) (A) (A) (A) (A) (A) (A) (A) (A)
                 (A) (A) (A) (A) (A) (A) (A) (A) (A) (A) (A) (A)
                 (A)
       Virtual   (A) (A) (A) (A) (A) (A) (A) (A) (A) (A) (A) (A)
                 (A) (A) (A) (A) (A) (A) (A) (A) (A) (A) (A) (A)
                 (A) (A) (A) (A) (A) (A) (A) (A) (A) (A) (A) (A)
                 (A) (A) (A) (A) (A) (A) (A) (A) (A) (A) (A) (A)
                 (A) (A) (A) (A) (A) (A) (A) (A) (A) (A) (A) (A)
                 (A) (A) (A) (A) (A) (A) (A) (A) (A) (A) (A) (A)
                 (A) (A) (A) (A) (A) (A) (A) (A) (A) (A) (A) (A)
                 (A) (A) (A) (A) (A) (A) (A) (A) (A) (A) (A) (A)
                 (A) (A) (A) (A) (A) (A) (A) (A) (A) (A) (A) (A)
                 (A) (A) (A) (A) (A) (A) (A) (A) (A) (A) (A) (A)
                 (A) (A) (A) (A) (A) (A) (A) (A) (A) (A) (A) (A)
                 (A) (A) (A) (A) (A) (A) (A) (A) (A) (A) (A) (A)
                 (A) (A) (A) (A) (A) (A) (A) (A) (A) (A) (A) (A)
                 (A) (A) (A) (A) (A) (A) (A) (A) (A) (A) (A) (A)
                 (A) (A) (A) (A) (A) (A) (A) (A) (A) (A) (A) (A)
                 (A) (A) (A) (A) (A) (A) (A) (A) (A) (A) (A) (A)
                 (A) (A) (A) (A) (A) (A) (A) (A) (A) (A) (A) (A)
                 (A) (A) (A) (A) (A) (A) (A) (A) (A) (A) (A) (A)
                 (A) (A) (A) (A) (A) (A) (A) (A) (A) (A) (A) (A)
                 (A) (A) (A) (A) (A) (A) (A) (A) (A) (A) (A) (A)
                 (A) (A) (A) (A) (A) (A) (A) (A) (A) (A) (A) (A)
                 (A) (A) (A) (A) (A) (A) (A) (A) (A) (A) (A) (A)
                 (A) (A) (A) (A) (A) (A) (A) (A) (A) (A) (A) (A)
                 (A) (A) (A) (A) (A) (A) (A) (A) (A) (A) (A) (A)
                 (A) (A) (A) (A) (A) (A) (A) (A) (A) (A) (A) (A)
                 (A) (A) (A) (A) (A) (A) (A) (A) (A) (A) (A) (A)
                 (A) (A) (A) (A) (A) (A)
 The electronic state is 1-A.
 Alpha  occ. eigenvalues --  -89.05852 -89.05699 -89.05568 -10.35527 -10.34586
 Alpha  occ. eigenvalues --  -10.33562 -10.33510 -10.33334 -10.33126 -10.32192
 Alpha  occ. eigenvalues --  -10.31814 -10.31663 -10.30574 -10.29047  -8.09797
 Alpha  occ. eigenvalues --   -8.09594  -8.09527  -6.04649  -6.04432  -6.04397
 Alpha  occ. eigenvalues --   -6.04285  -6.04055  -6.04020  -6.03863  -6.03715
 Alpha  occ. eigenvalues --   -6.03564  -1.00744  -0.97795  -0.93552  -0.87830
 Alpha  occ. eigenvalues --   -0.87089  -0.84817  -0.80560  -0.79407  -0.76918
 Alpha  occ. eigenvalues --   -0.70411  -0.66711  -0.66142  -0.62386  -0.60737
 Alpha  occ. eigenvalues --   -0.58093  -0.57772  -0.52935  -0.52306  -0.51868
 Alpha  occ. eigenvalues --   -0.50030  -0.49836  -0.48051  -0.47694  -0.46792
 Alpha  occ. eigenvalues --   -0.45881  -0.45414  -0.44796  -0.43179  -0.42073
 Alpha  occ. eigenvalues --   -0.41451  -0.37277  -0.33404  -0.32911  -0.30597
 Alpha  occ. eigenvalues --   -0.26259
 Alpha virt. eigenvalues --   -0.01422   0.03614   0.05265   0.05619   0.06277
 Alpha virt. eigenvalues --    0.06352   0.06728   0.06991   0.07724   0.08485
 Alpha virt. eigenvalues --    0.08812   0.08945   0.09473   0.09817   0.10410
 Alpha virt. eigenvalues --    0.10590   0.10979   0.11347   0.11730   0.12204
 Alpha virt. eigenvalues --    0.12413   0.12967   0.13156   0.13970   0.14018
 Alpha virt. eigenvalues --    0.14782   0.15517   0.16051   0.16585   0.17031
 Alpha virt. eigenvalues --    0.17315   0.17619   0.18176   0.18491   0.18961
 Alpha virt. eigenvalues --    0.19297   0.19618   0.20397   0.20765   0.21074
 Alpha virt. eigenvalues --    0.21551   0.22090   0.22287   0.22384   0.22641
 Alpha virt. eigenvalues --    0.23345   0.24117   0.24598   0.24943   0.25106
 Alpha virt. eigenvalues --    0.25419   0.25710   0.25993   0.26382   0.26695
 Alpha virt. eigenvalues --    0.26976   0.27374   0.27843   0.27980   0.28635
 Alpha virt. eigenvalues --    0.28741   0.28905   0.29986   0.30152   0.30774
 Alpha virt. eigenvalues --    0.30991   0.31245   0.32201   0.32541   0.32814
 Alpha virt. eigenvalues --    0.33292   0.34169   0.35000   0.35720   0.36019
 Alpha virt. eigenvalues --    0.36923   0.38223   0.38308   0.39700   0.39832
 Alpha virt. eigenvalues --    0.40431   0.41467   0.42181   0.43194   0.43883
 Alpha virt. eigenvalues --    0.44928   0.45380   0.47327   0.49590   0.50113
 Alpha virt. eigenvalues --    0.50487   0.50892   0.52186   0.53350   0.55214
 Alpha virt. eigenvalues --    0.55814   0.57844   0.59790   0.61665   0.62076
 Alpha virt. eigenvalues --    0.63268   0.63594   0.64029   0.64859   0.65890
 Alpha virt. eigenvalues --    0.66091   0.67704   0.68372   0.69229   0.69481
 Alpha virt. eigenvalues --    0.70344   0.70649   0.72494   0.72651   0.73290
 Alpha virt. eigenvalues --    0.74579   0.75772   0.76350   0.77277   0.77620
 Alpha virt. eigenvalues --    0.78204   0.79028   0.79575   0.80277   0.81896
 Alpha virt. eigenvalues --    0.82363   0.82987   0.83368   0.84185   0.84669
 Alpha virt. eigenvalues --    0.85417   0.85918   0.86453   0.88150   0.89545
 Alpha virt. eigenvalues --    0.89668   0.90240   0.91168   0.91357   0.93468
 Alpha virt. eigenvalues --    0.94096   0.95825   0.96069   0.97533   0.98060
 Alpha virt. eigenvalues --    0.99579   1.00069   1.00925   1.01708   1.02919
 Alpha virt. eigenvalues --    1.03732   1.04409   1.05850   1.06492   1.07454
 Alpha virt. eigenvalues --    1.08671   1.10124   1.11434   1.12200   1.13668
 Alpha virt. eigenvalues --    1.14094   1.16013   1.18113   1.19605   1.24160
 Alpha virt. eigenvalues --    1.24921   1.29327   1.30142   1.32765   1.36091
 Alpha virt. eigenvalues --    1.41733   1.42373   1.43844   1.45885   1.47403
 Alpha virt. eigenvalues --    1.49110   1.49617   1.54292   1.55742   1.57977
 Alpha virt. eigenvalues --    1.60102   1.61589   1.61935   1.63946   1.64746
 Alpha virt. eigenvalues --    1.66068   1.67363   1.69097   1.69724   1.70418
 Alpha virt. eigenvalues --    1.71919   1.72723   1.73482   1.75573   1.77070
 Alpha virt. eigenvalues --    1.77512   1.78455   1.79201   1.80679   1.83049
 Alpha virt. eigenvalues --    1.84349   1.85231   1.86757   1.87916   1.89791
 Alpha virt. eigenvalues --    1.90701   1.91778   1.93055   1.94318   1.96748
 Alpha virt. eigenvalues --    1.98513   1.99912   2.02367   2.03218   2.03764
 Alpha virt. eigenvalues --    2.04760   2.06520   2.08564   2.09366   2.10539
 Alpha virt. eigenvalues --    2.11878   2.13727   2.15058   2.16059   2.17895
 Alpha virt. eigenvalues --    2.18165   2.19673   2.22045   2.23186   2.23556
 Alpha virt. eigenvalues --    2.26054   2.26784   2.29678   2.35349   2.39675
 Alpha virt. eigenvalues --    2.42748   2.45246   2.46232   2.48202   2.53120
 Alpha virt. eigenvalues --    2.54003   2.56250   2.59513   2.61165   2.64078
 Alpha virt. eigenvalues --    2.66474   2.69004   2.70494   2.73910   2.74987
 Alpha virt. eigenvalues --    2.78067   2.79578   2.81480   2.81929   2.82277
 Alpha virt. eigenvalues --    2.83001   2.84736   2.88317   2.88936   2.93455
 Alpha virt. eigenvalues --    2.94223   2.96476   3.01946   3.03769   3.04419
 Alpha virt. eigenvalues --    3.08177   3.10068   3.10281   3.12832   3.14280
 Alpha virt. eigenvalues --    3.16052   3.23041   3.25907   3.31069   3.36134
 Alpha virt. eigenvalues --    3.37376   3.41767   3.46316   3.49386   3.50060
 Alpha virt. eigenvalues --    3.58485   3.66728   3.75473   3.89833   3.92013
 Alpha virt. eigenvalues --    4.00653   4.04382   4.15360   4.19780   4.40699
 Alpha virt. eigenvalues --    4.43537   4.61923   8.05545   8.07725   8.11710
 Alpha virt. eigenvalues --   17.41899  17.42890  17.44239  17.56517  17.58382
 Alpha virt. eigenvalues --   17.60642  17.61505  17.65432  17.66141  23.60802
 Alpha virt. eigenvalues --   23.74438  23.86702  23.89907  23.94969  23.98857
 Alpha virt. eigenvalues --   24.01647  24.07406  24.09127  24.09306  24.11943
 Alpha virt. eigenvalues --  189.30014 189.32754 189.37317
          Condensed to atoms (all electrons):
               1          2          3          4          5          6
     1  C   11.838440  -9.524450   9.254123  -2.022803  -1.219449   0.346371
     2  C   -9.524450  30.592391 -24.829593   2.592073   2.867629   0.002769
     3  C    9.254123 -24.829593  37.173519  -6.003673  -2.912484  -0.015555
     4  C   -2.022803   2.592073  -6.003673   9.407479   0.278754   0.011584
     5  C   -1.219449   2.867629  -2.912484   0.278754   6.045754   0.000710
     6  H    0.346371   0.002769  -0.015555   0.011584   0.000710   0.490804
     7  S   -0.902094   0.186579  -2.055694   0.750352   0.028125   0.005509
     8  H    0.015901  -0.013133  -0.001529   0.002927   0.393139  -0.003303
     9  C   -1.348690   2.896293  -3.428019   0.262108   0.430382  -0.000826
    10  S   -0.215087   0.965371  -0.097006   0.012583   0.070197  -0.000278
    11  C   -0.064203   0.553688  -1.221797   0.199484   0.030509  -0.000083
    12  C   -0.097694  -0.169134   0.969689  -0.209974  -0.009298   0.000303
    13  C    0.316204  -0.865169  -0.846603   0.438696  -0.046953   0.001177
    14  H    0.003798  -0.006008   0.053274  -0.023035  -0.001377  -0.000002
    15  S    0.001722  -0.039908   0.021804   0.009922   0.001203  -0.000002
    16  C    0.002239  -0.026654   0.008430  -0.006003  -0.001317   0.000000
    17  C    0.002604   0.081244  -0.096385   0.035724  -0.004355  -0.000007
    18  H   -0.000000   0.000096   0.000069   0.000008  -0.000000  -0.000000
    19  H   -0.000008  -0.000350  -0.000753  -0.000024   0.000016  -0.000000
    20  H    0.053670  -0.093535  -0.063255   0.455246   0.016046   0.001688
    21  H   -0.029392   0.022349   0.116596   0.236915  -0.004314   0.000127
    22  H   -0.012517   0.003094  -0.098561   0.458486   0.005687   0.000080
               7          8          9         10         11         12
     1  C   -0.902094   0.015901  -1.348690  -0.215087  -0.064203  -0.097694
     2  C    0.186579  -0.013133   2.896293   0.965371   0.553688  -0.169134
     3  C   -2.055694  -0.001529  -3.428019  -0.097006  -1.221797   0.969689
     4  C    0.750352   0.002927   0.262108   0.012583   0.199484  -0.209974
     5  C    0.028125   0.393139   0.430382   0.070197   0.030509  -0.009298
     6  H    0.005509  -0.003303  -0.000826  -0.000278  -0.000083   0.000303
     7  S   18.219087  -0.021739   0.133893  -0.464334   0.057683  -0.160447
     8  H   -0.021739   0.442774  -0.006318  -0.000197   0.000109  -0.000132
     9  C    0.133893  -0.006318  11.854420   0.501184  -1.437289   2.926335
    10  S   -0.464334  -0.000197   0.501184  18.662445  -1.026709   2.135754
    11  C    0.057683   0.000109  -1.437289  -1.026709  13.563696  -6.961407
    12  C   -0.160447  -0.000132   2.926335   2.135754  -6.961407  19.667347
    13  C    0.696403  -0.000424  -6.117615  -3.737207   3.728472 -10.568483
    14  H   -0.002200  -0.000000   0.135898   0.010827  -0.056801   0.114254
    15  S    0.012835  -0.000003  -0.423972   0.077638   0.600304  -1.510754
    16  C   -0.009454   0.000000   0.281272  -0.011296   0.697115  -0.188083
    17  C    0.065336   0.000009  -0.728542  -0.322636  -2.698055  -0.231656
    18  H   -0.000035   0.000000  -0.005277   0.001364  -0.031150   0.011192
    19  H    0.000250  -0.000000   0.006124   0.014179   0.018715  -0.029165
    20  H   -0.000179  -0.000018  -0.002183  -0.000408   0.000676  -0.001986
    21  H   -0.003174   0.000004   0.014597   0.003070  -0.007418   0.030986
    22  H    0.002196   0.000005   0.009874  -0.000552   0.001992  -0.023552
              13         14         15         16         17         18
     1  C    0.316204   0.003798   0.001722   0.002239   0.002604  -0.000000
     2  C   -0.865169  -0.006008  -0.039908  -0.026654   0.081244   0.000096
     3  C   -0.846603   0.053274   0.021804   0.008430  -0.096385   0.000069
     4  C    0.438696  -0.023035   0.009922  -0.006003   0.035724   0.000008
     5  C   -0.046953  -0.001377   0.001203  -0.001317  -0.004355  -0.000000
     6  H    0.001177  -0.000002  -0.000002   0.000000  -0.000007  -0.000000
     7  S    0.696403  -0.002200   0.012835  -0.009454   0.065336  -0.000035
     8  H   -0.000424  -0.000000  -0.000003   0.000000   0.000009   0.000000
     9  C   -6.117615   0.135898  -0.423972   0.281272  -0.728542  -0.005277
    10  S   -3.737207   0.010827   0.077638  -0.011296  -0.322636   0.001364
    11  C    3.728472  -0.056801   0.600304   0.697115  -2.698055  -0.031150
    12  C  -10.568483   0.114254  -1.510754  -0.188083  -0.231656   0.011192
    13  C   20.609444   0.124749   0.888532  -0.463662   1.619751   0.012229
    14  H    0.124749   0.490152   0.005860   0.002481  -0.013404  -0.000003
    15  S    0.888532   0.005860  16.596991   0.284702  -0.332199  -0.023896
    16  C   -0.463662   0.002481   0.284702   5.673733  -0.320750   0.372957
    17  C    1.619751  -0.013404  -0.332199  -0.320750   8.640916   0.025264
    18  H    0.012229  -0.000003  -0.023896   0.372957   0.025264   0.438858
    19  H   -0.004894   0.000010  -0.000006   0.010670   0.343639  -0.002640
    20  H    0.005491   0.000065   0.000037  -0.000009   0.000039   0.000000
    21  H   -0.033138   0.002274   0.000211   0.000146  -0.000591  -0.000000
    22  H    0.017277  -0.000330   0.000337  -0.000138   0.000617   0.000000
              19         20         21         22
     1  C   -0.000008   0.053670  -0.029392  -0.012517
     2  C   -0.000350  -0.093535   0.022349   0.003094
     3  C   -0.000753  -0.063255   0.116596  -0.098561
     4  C   -0.000024   0.455246   0.236915   0.458486
     5  C    0.000016   0.016046  -0.004314   0.005687
     6  H   -0.000000   0.001688   0.000127   0.000080
     7  S    0.000250  -0.000179  -0.003174   0.002196
     8  H   -0.000000  -0.000018   0.000004   0.000005
     9  C    0.006124  -0.002183   0.014597   0.009874
    10  S    0.014179  -0.000408   0.003070  -0.000552
    11  C    0.018715   0.000676  -0.007418   0.001992
    12  C   -0.029165  -0.001986   0.030986  -0.023552
    13  C   -0.004894   0.005491  -0.033138   0.017277
    14  H    0.000010   0.000065   0.002274  -0.000330
    15  S   -0.000006   0.000037   0.000211   0.000337
    16  C    0.010670  -0.000009   0.000146  -0.000138
    17  C    0.343639   0.000039  -0.000591   0.000617
    18  H   -0.002640   0.000000  -0.000000   0.000000
    19  H    0.475650  -0.000000   0.000000   0.000000
    20  H   -0.000000   0.514160  -0.025119  -0.021613
    21  H    0.000000  -0.025119   0.531240  -0.025708
    22  H    0.000000  -0.021613  -0.025708   0.486773
 Mulliken charges:
               1
     1  C   -0.398686
     2  C    0.804358
     3  C    0.073404
     4  C   -0.886829
     5  C    0.031395
     6  H    0.158934
     7  S   -0.538900
     8  H    0.191927
     9  C    0.046349
    10  S   -0.578899
    11  C    0.052471
    12  C    0.305904
    13  C    0.225722
    14  H    0.159519
    15  S   -0.171358
    16  C   -0.306379
    17  C   -0.066562
    18  H    0.200964
    19  H    0.168586
    20  H    0.161188
    21  H    0.170340
    22  H    0.196553
 Sum of Mulliken charges =  -0.00000
 Mulliken charges with hydrogens summed into heavy atoms:
               1
     1  C   -0.239752
     2  C    0.804358
     3  C    0.073404
     4  C   -0.358749
     5  C    0.223322
     7  S   -0.538900
     9  C    0.046349
    10  S   -0.578899
    11  C    0.052471
    12  C    0.305904
    13  C    0.385241
    15  S   -0.171358
    16  C   -0.105415
    17  C    0.102025
 Electronic spatial extent (au):  <R**2>=           4437.5370
 Charge=              0.0000 electrons
 Dipole moment (field-independent basis, Debye):
    X=             -0.8022    Y=              0.7343    Z=             -0.9613  Tot=              1.4515
 Quadrupole moment (field-independent basis, Debye-Ang):
   XX=            -88.2831   YY=            -96.0440   ZZ=           -109.0642
   XY=             -5.9248   XZ=             -3.1762   YZ=              0.6287
 Traceless Quadrupole moment (field-independent basis, Debye-Ang):
   XX=              9.5140   YY=              1.7531   ZZ=            -11.2671
   XY=             -5.9248   XZ=             -3.1762   YZ=              0.6287
 Octapole moment (field-independent basis, Debye-Ang**2):
  XXX=            -24.8709  YYY=              1.9624  ZZZ=             -1.2748  XYY=             -6.3302
  XXY=            -14.3096  XXZ=            -30.1323  XZZ=              1.8240  YZZ=              1.4374
  YYZ=             -2.7243  XYZ=             -7.4631
 Hexadecapole moment (field-independent basis, Debye-Ang**3):
 XXXX=          -4292.1821 YYYY=          -1104.2990 ZZZZ=           -257.1826 XXXY=            -53.1488
 XXXZ=            -78.0249 YYYX=            -36.3758 YYYZ=             -3.2428 ZZZX=            -16.0293
 ZZZY=              3.6491 XXYY=           -922.0709 XXZZ=           -902.6494 YYZZ=           -237.3498
 XXYZ=             30.8161 YYXZ=             -3.6486 ZZXY=              7.5686
 N-N= 1.107257673735D+03 E-N=-6.037610036348D+03  KE= 1.613977607357D+03
 Calling FoFJK, ICntrl=      2127 FMM=F ISym2X=0 I1Cent= 0 IOpClX= 0 NMat=1 NMatS=1 NMatT=0.
 ***** Axes restored to original set *****
 -------------------------------------------------------------------
 Center     Atomic                   Forces (Hartrees/Bohr)
 Number     Number              X              Y              Z
 -------------------------------------------------------------------
      1        6           0.024209448   -0.062915049    0.007008074
      2        6           0.014305357   -0.047036516    0.005326049
      3        6          -0.045561580    0.017575369    0.009285712
      4        6           0.008430547    0.005840029    0.001943559
      5        6           0.014351329    0.053786148   -0.014757778
      6        1          -0.000888154    0.001968869   -0.000258218
      7       16          -0.007599879    0.028625424   -0.005090381
      8        1           0.003155940   -0.004391579    0.000939113
      9        6           0.038539466    0.033923952   -0.039452971
     10       16          -0.008554128    0.020245940    0.000935726
     11        6          -0.003203493    0.016917730   -0.036760663
     12        6          -0.021089109   -0.032324881    0.019388420
     13        6          -0.019725422   -0.038524322    0.042466802
     14        1          -0.003489542    0.003304909    0.003720009
     15       16           0.014580526   -0.013372190    0.013141821
     16        6          -0.033406373   -0.022043292    0.050429735
     17        6           0.013979164    0.025639953   -0.055819951
     18        1           0.002883958    0.006746230    0.000908535
     19        1           0.006148155    0.006694281    0.002810419
     20        1          -0.000646973   -0.002521392    0.000232607
     21        1           0.002803477    0.002726204   -0.001655610
     22        1           0.000777285   -0.000865819   -0.004741009
 -------------------------------------------------------------------
 Cartesian Forces:  Max     0.062915049 RMS     0.022912489

 GradGradGradGradGradGradGradGradGradGradGradGradGradGradGradGradGradGrad
 Berny optimization.
 FormGI is forming the generalized inverse of G from B-inverse, IUseBI=4.
 Internal  Forces:  Max     0.069733993 RMS     0.014058845
 Search for a local minimum.
 Step number   1 out of a maximum of  127
 All quantities printed in internal units (Hartrees-Bohrs-Radians)
 Mixed Optimization -- RFO/linear search
 Second derivative matrix not updated -- first step.
 ITU=  0
     Eigenvalues ---    0.00935   0.00982   0.01055   0.01214   0.01241
     Eigenvalues ---    0.01277   0.01298   0.01423   0.01457   0.01490
     Eigenvalues ---    0.01498   0.01592   0.01599   0.01776   0.02201
     Eigenvalues ---    0.02654   0.07307   0.07353   0.15079   0.15684
     Eigenvalues ---    0.15738   0.15997   0.16000   0.16000   0.16000
     Eigenvalues ---    0.16000   0.17994   0.22443   0.22545   0.23320
     Eigenvalues ---    0.23977   0.24718   0.24978   0.24995   0.25000
     Eigenvalues ---    0.26147   0.26546   0.28392   0.30920   0.31325
     Eigenvalues ---    0.31529   0.33757   0.33818   0.34533   0.34830
     Eigenvalues ---    0.34935   0.35160   0.35808   0.35877   0.36006
     Eigenvalues ---    0.36155   0.36185   0.36335   0.37598   0.38299
     Eigenvalues ---    0.38438   0.39458   0.39632   0.407341000.00000
     Eigenvalues --- 1000.000001000.000001000.000001000.000001000.00000
     Eigenvalues --- 1000.000001000.000001000.000001000.000001000.00000
     Eigenvalues --- 1000.000001000.000001000.000001000.000001000.00000
     Eigenvalues --- 1000.000001000.000001000.000001000.000001000.00000
     Eigenvalues --- 1000.000001000.000001000.000001000.000001000.00000
     Eigenvalues --- 1000.000001000.000001000.000001000.000001000.00000
     Eigenvalues --- 1000.000001000.000001000.000001000.000001000.00000
     Eigenvalues --- 1000.000001000.000001000.000001000.000001000.00000
     Eigenvalues --- 1000.000001000.000001000.000001000.000001000.00000
     Eigenvalues --- 1000.000001000.000001000.000001000.000001000.00000
     Eigenvalues --- 1000.000001000.000001000.000001000.000001000.00000
     Eigenvalues --- 1000.000001000.00000
 RFO step:  Lambda=-6.05698717D-02 EMin= 9.35106172D-03
 Linear search not attempted -- first point.
 Maximum step size (   0.300) exceeded in Quadratic search.
    -- Step size scaled by   0.814
 Iteration  1 RMS(Cart)=  0.10155220 RMS(Int)=  0.00225569
 Iteration  2 RMS(Cart)=  0.00358760 RMS(Int)=  0.00047888
 Iteration  3 RMS(Cart)=  0.00000482 RMS(Int)=  0.00047887
 Iteration  4 RMS(Cart)=  0.00000000 RMS(Int)=  0.00047887
 Iteration  1 RMS(Cart)=  0.00000046 RMS(Int)=  0.00000017
 Variable       Old X    -DE/DX   Delta X   Delta X   Delta X     New X
                                 (Linear)    (Quad)   (Total)
    R1        2.71917  -0.01822   0.00000  -0.03448  -0.03442   2.68475
    R2        2.71391  -0.05750   0.00000  -0.10255  -0.10261   2.61130
    R3        2.03793   0.00189   0.00000   0.00364   0.00364   2.04157
    R4        2.75906  -0.06467   0.00000  -0.12281  -0.12271   2.63635
    R5        2.81042   0.00800   0.00000   0.01636   0.01636   2.82678
    R6        3.39578  -0.02629   0.00000  -0.06341  -0.06339   3.33239
    R7        2.74954  -0.01375   0.00000  -0.02563  -0.02563   2.72391
    R8        2.06439  -0.00088   0.00000  -0.00176  -0.00176   2.06263
    R9        2.05781   0.00261   0.00000   0.00517   0.00517   2.06298
   R10        2.07638  -0.00258   0.00000  -0.00528  -0.00528   2.07110
   R11        3.28671  -0.02215   0.00000  -0.04651  -0.04660   3.24011
   R12        2.04073  -0.00029   0.00000  -0.00055  -0.00055   2.04017
   R13        3.38332  -0.01770   0.00000  -0.03976  -0.04022   3.34310
   R14        2.76730  -0.06973   0.00000  -0.13333  -0.13359   2.63371
   R15        3.27029  -0.00518   0.00000  -0.00990  -0.00980   3.26049
   R16        2.72239  -0.03973   0.00000  -0.07468  -0.07380   2.64859
   R17        2.69329  -0.00252   0.00000  -0.00675  -0.00632   2.68697
   R18        2.70829  -0.01325   0.00000  -0.02572  -0.02547   2.68282
   R19        3.27347  -0.00449   0.00000  -0.00778  -0.00789   3.26558
   R20        2.03840   0.00137   0.00000   0.00263   0.00263   2.04103
   R21        3.33555  -0.01763   0.00000  -0.03803  -0.03853   3.29703
   R22        2.73049  -0.06551   0.00000  -0.11906  -0.11916   2.61133
   R23        2.04383  -0.00140   0.00000  -0.00272  -0.00272   2.04111
   R24        2.05415  -0.00411   0.00000  -0.00811  -0.00811   2.04605
    A1        1.97020   0.00698   0.00000   0.01444   0.01444   1.98464
    A2        2.17330  -0.00459   0.00000  -0.01128  -0.01128   2.16202
    A3        2.13967  -0.00239   0.00000  -0.00316  -0.00316   2.13651
    A4        1.97187  -0.00232   0.00000  -0.01017  -0.01004   1.96183
    A5        2.09905   0.01313   0.00000   0.03646   0.03638   2.13543
    A6        2.21227  -0.01081   0.00000  -0.02628  -0.02635   2.18591
    A7        1.90440   0.00603   0.00000   0.01732   0.01743   1.92182
    A8        2.31891  -0.01528   0.00000  -0.04087  -0.04093   2.27798
    A9        2.05972   0.00925   0.00000   0.02345   0.02339   2.08311
   A10        1.94548  -0.00383   0.00000  -0.01299  -0.01295   1.93253
   A11        1.93409   0.00365   0.00000   0.01260   0.01261   1.94671
   A12        1.93331   0.00182   0.00000   0.00643   0.00644   1.93975
   A13        1.87410   0.00033   0.00000   0.00174   0.00178   1.87588
   A14        1.86607   0.00194   0.00000   0.00887   0.00889   1.87496
   A15        1.90848  -0.00409   0.00000  -0.01727  -0.01728   1.89120
   A16        1.95339  -0.00242   0.00000  -0.00765  -0.00780   1.94559
   A17        2.17580   0.00675   0.00000   0.02425   0.02433   2.20013
   A18        2.15384  -0.00433   0.00000  -0.01662  -0.01655   2.13730
   A19        1.62490  -0.00828   0.00000  -0.01395  -0.01410   1.61080
   A20        2.12891  -0.00175   0.00000  -0.00442  -0.00450   2.12441
   A21        2.24023  -0.00599   0.00000  -0.01556  -0.01565   2.22458
   A22        1.91336   0.00783   0.00000   0.02081   0.02073   1.93409
   A23        1.61906  -0.00664   0.00000  -0.01350  -0.01313   1.60593
   A24        1.96146  -0.01047   0.00000  -0.02219  -0.02313   1.93833
   A25        2.23816   0.00838   0.00000   0.03979   0.03811   2.27627
   A26        1.96557   0.00591   0.00000   0.01564   0.01573   1.98131
   A27        1.96659   0.00788   0.00000   0.01904   0.01907   1.98566
   A28        1.96659  -0.01311   0.00000  -0.02914  -0.02970   1.93689
   A29        2.23711   0.00867   0.00000   0.03911   0.03756   2.27467
   A30        1.96356   0.00145   0.00000  -0.00364  -0.00317   1.96040
   A31        2.16080  -0.00435   0.00000  -0.00983  -0.01035   2.15046
   A32        2.14690   0.00340   0.00000   0.01880   0.01826   2.16517
   A33        1.59297   0.00080   0.00000   0.00448   0.00473   1.59770
   A34        1.95974   0.00142   0.00000   0.00242   0.00223   1.96198
   A35        2.13516  -0.00433   0.00000  -0.01147  -0.01230   2.12286
   A36        2.17123   0.00398   0.00000   0.01984   0.01914   2.19037
   A37        1.93959   0.00497   0.00000   0.00650   0.00689   1.94648
   A38        2.16582   0.00034   0.00000   0.01373   0.01229   2.17811
   A39        2.14109  -0.00336   0.00000  -0.00077  -0.00227   2.13882
    D1        0.00683  -0.00014   0.00000  -0.00357  -0.00353   0.00331
    D2       -3.13456   0.00019   0.00000   0.00017   0.00029  -3.13427
    D3       -3.13952  -0.00029   0.00000  -0.00433  -0.00435   3.13932
    D4        0.00227   0.00003   0.00000  -0.00059  -0.00053   0.00174
    D5       -0.00671  -0.00036   0.00000  -0.00450  -0.00453  -0.01124
    D6       -3.13020  -0.00035   0.00000  -0.00335  -0.00340  -3.13360
    D7        3.13954  -0.00020   0.00000  -0.00373  -0.00369   3.13584
    D8        0.01605  -0.00019   0.00000  -0.00258  -0.00257   0.01348
    D9       -0.00388   0.00061   0.00000   0.00973   0.00976   0.00588
   D10        3.11762   0.00084   0.00000   0.00393   0.00398   3.12160
   D11        3.13750   0.00027   0.00000   0.00571   0.00581  -3.13987
   D12       -0.02418   0.00049   0.00000  -0.00009   0.00003  -0.02415
   D13        0.03777   0.00006   0.00000   0.00218   0.00216   0.03993
   D14       -2.04840  -0.00028   0.00000   0.00014   0.00015  -2.04825
   D15        2.11332   0.00120   0.00000   0.00911   0.00908   2.12240
   D16       -3.10360   0.00043   0.00000   0.00647   0.00648  -3.09712
   D17        1.09342   0.00010   0.00000   0.00443   0.00447   1.09789
   D18       -1.02805   0.00157   0.00000   0.01340   0.01340  -1.01465
   D19        0.00006  -0.00066   0.00000  -0.01035  -0.01042  -0.01036
   D20       -3.12486  -0.00052   0.00000  -0.00470  -0.00454  -3.12939
   D21        2.70527  -0.00169   0.00000   0.00000  -0.00000   2.70527
   D22       -0.48056   0.00158   0.00000   0.02684   0.02686  -0.45369
   D23       -0.45783  -0.00151   0.00000  -0.00635  -0.00637  -0.46420
   D24        2.63953   0.00176   0.00000   0.02049   0.02049   2.66003
   D25        0.00376   0.00060   0.00000   0.00864   0.00853   0.01229
   D26        3.12751   0.00072   0.00000   0.00800   0.00795   3.13546
   D27        3.13783   0.00087   0.00000   0.00756   0.00770  -3.13765
   D28        0.03306  -0.00157   0.00000  -0.01404  -0.01437   0.01869
   D29       -3.13859  -0.00192   0.00000  -0.01471  -0.01451   3.13008
   D30       -0.15818   0.00183   0.00000   0.02295   0.02290  -0.13529
   D31       -0.03683   0.00086   0.00000   0.00904   0.00952  -0.02731
   D32        2.94358   0.00462   0.00000   0.04670   0.04692   2.99050
   D33       -0.02150   0.00231   0.00000   0.01669   0.01644  -0.00506
   D34       -2.61604  -0.00667   0.00000  -0.05590  -0.05637  -2.67242
   D35        0.00367  -0.00181   0.00000  -0.01360  -0.01341  -0.00974
   D36       -2.68828  -0.01069   0.00000  -0.07824  -0.07645  -2.76473
   D37        2.68675   0.00751   0.00000   0.05749   0.05622   2.74296
   D38       -0.00520  -0.00137   0.00000  -0.00715  -0.00683  -0.01203
   D39        2.61313   0.00611   0.00000   0.07044   0.07175   2.68488
   D40       -0.24646  -0.00072   0.00000  -0.00219  -0.00163  -0.24809
   D41        0.01962   0.00125   0.00000   0.00723   0.00705   0.02667
   D42       -2.83997  -0.00558   0.00000  -0.06540  -0.06633  -2.90630
   D43        0.02202   0.00061   0.00000   0.00254   0.00233   0.02435
   D44       -2.95988  -0.00228   0.00000  -0.03174  -0.03236  -2.99224
   D45        2.62823   0.00423   0.00000   0.05653   0.05767   2.68591
   D46       -0.35366   0.00133   0.00000   0.02225   0.02298  -0.33068
   D47       -0.00817   0.00114   0.00000   0.00436   0.00425  -0.00392
   D48       -2.61439  -0.00768   0.00000  -0.06157  -0.06142  -2.67581
   D49        0.01943  -0.00031   0.00000  -0.00000  -0.00007   0.01936
   D50        2.97160   0.00606   0.00000   0.06169   0.06102   3.03262
   D51       -0.02569  -0.00035   0.00000  -0.00383  -0.00357  -0.02925
   D52        2.83859   0.00704   0.00000   0.07031   0.07060   2.90918
   D53       -2.97325  -0.00580   0.00000  -0.06297  -0.06335  -3.03660
   D54       -0.10898   0.00158   0.00000   0.01117   0.01081  -0.09817
         Item               Value     Threshold  Converged?
 Maximum Force            0.069731     0.000450     NO 
 RMS     Force            0.014117     0.000300     NO 
 Maximum Displacement     0.341241     0.001800     NO 
 RMS     Displacement     0.101792     0.001200     NO 
 Predicted change in Energy=-3.344912D-02
 GradGradGradGradGradGradGradGradGradGradGradGradGradGradGradGradGradGrad

                          Input orientation:                          
 ---------------------------------------------------------------------
 Center     Atomic      Atomic             Coordinates (Angstroms)
 Number     Number       Type             X           Y           Z
 ---------------------------------------------------------------------
      1          6           0       -4.194060   -1.366343   -0.206180
      2          6           0       -2.884374   -1.005656   -0.622154
      3          6           0       -2.008366   -2.091431   -0.621615
      4          6           0       -2.523238    0.394631   -1.004774
      5          6           0       -4.326823   -2.704071    0.113736
      6          1           0       -5.016980   -0.669841   -0.136582
      7         16           0       -2.852456   -3.551311   -0.105933
      8          1           0       -5.231492   -3.191587    0.444598
      9          6           0       -0.616933   -2.172286   -0.989167
     10         16           0        0.448326   -3.421124   -0.329379
     11          6           0        1.801449   -2.821174   -1.215968
     12          6           0        1.442840   -1.710178   -1.991534
     13          6           0        0.073721   -1.351826   -1.879248
     14          1           0       -0.410551   -0.611680   -2.499092
     15         16           0        2.556453   -1.478488   -3.292461
     16          6           0        3.499326   -2.859115   -2.793584
     17          6           0        2.965468   -3.489169   -1.685635
     18          1           0        4.325730   -3.224423   -3.385393
     19          1           0        3.286525   -4.471624   -1.363158
     20          1           0       -3.377012    1.062478   -0.876637
     21          1           0       -2.211931    0.457078   -2.049263
     22          1           0       -1.709622    0.778141   -0.378576
 ---------------------------------------------------------------------
                    Distance matrix (angstroms):
                    1          2          3          4          5
     1  C    0.000000
     2  C    1.420706   0.000000
     3  C    2.339999   1.395098   0.000000
     4  C    2.555470   1.495868   2.567569   0.000000
     5  C    1.381843   2.346659   2.508249   3.755788   0.000000
     6  H    1.080350   2.212817   3.362727   2.847035   2.162653
     7  S    2.565937   2.597664   1.763424   4.060389   1.714593
     8  H    2.198020   3.380121   3.568710   4.721894   1.079614
     9  C    3.749460   2.576240   1.441430   3.197391   3.906722
    10  S    5.078292   4.126389   2.808704   4.883270   4.848975
    11  C    6.251586   5.060203   3.924343   5.393414   6.271965
    12  C    5.922866   4.593074   3.732674   4.597139   6.221655
    13  C    4.584028   3.232714   2.542389   3.249463   5.016507
    14  H    4.487973   3.130162   2.875343   2.776526   5.151908
    15  S    7.423418   6.079203   5.324162   5.877529   7.777129
    16  C    8.252951   6.992999   5.970047   7.075166   8.350159
    17  C    7.612754   6.443561   5.274925   6.758207   7.551929
    18  H    9.281523   8.033929   7.003065   8.103904   9.347799
    19  H    8.181719   7.116320   5.852442   7.586977   7.954152
    20  H    2.648821   2.141176   3.447517   1.091499   4.008725
    21  H    3.263534   2.151374   2.928228   1.091682   4.375409
    22  H    3.286481   2.149721   2.895300   1.095980   4.383824
                    6          7          8          9         10
     6  H    0.000000
     7  S    3.604021   0.000000
     8  H    2.596726   2.468258   0.000000
     9  C    4.727014   2.771169   4.938503   0.000000
    10  S    6.121788   3.310897   5.736903   1.769093   0.000000
    11  C    7.230787   4.839846   7.235810   2.514172   1.725376
    12  C    6.800913   5.039328   7.257824   2.336866   2.584406
    13  C    5.423764   4.067541   6.077027   1.393700   2.612358
    14  H    5.177260   4.509051   6.209887   2.181274   3.652163
    15  S    8.244415   6.611116   8.806385   3.982072   4.122850
    16  C    9.185861   6.931647   9.317915   4.546563   3.961914
    17  C    8.606257   6.028894   8.474468   3.879799   2.860082
    18  H   10.216012   7.898612  10.296135   5.592746   4.940868
    19  H    9.214458   6.333615   8.801312   4.545746   3.198066
    20  H    2.497620   4.707036   4.825124   4.253752   5.919069
    21  H    3.577233   4.500443   5.352555   3.252904   5.007536
    22  H    3.618539   4.486040   5.370281   3.204967   4.721544
                   11         12         13         14         15
    11  C    0.000000
    12  C    1.401576   0.000000
    13  C    2.363042   1.419687   0.000000
    14  H    3.379529   2.213452   1.080066   0.000000
    15  S    2.585471   1.728070   2.859577   3.191223   0.000000
    16  C    2.317995   2.488468   3.852622   4.519383   1.744711
    17  C    1.421881   2.361520   3.601100   4.509896   2.606150
    18  H    3.352762   3.542151   4.884125   5.481269   2.487421
    19  H    2.225107   3.379292   4.507948   5.464237   3.635117
    20  H    6.481848   5.671119   4.329163   3.772938   6.891932
    21  H    5.248670   4.249434   2.919803   2.142326   5.294285
    22  H    5.097442   4.327977   3.157386   2.848820   5.637597
                   16         17         18         19         20
    16  C    0.000000
    17  C    1.381855   0.000000
    18  H    1.080107   2.193075   0.000000
    19  H    2.166007   1.082722   2.593239   0.000000
    20  H    8.144790   7.848505   9.165349   8.675581   0.000000
    21  H    6.646022   6.520012   7.621005   7.415920   1.760391
    22  H    6.796693   6.463343   7.841361   7.313749   1.763264
                   21         22
    21  H    0.000000
    22  H    1.773863   0.000000
 Stoichiometry    C11H8S3
 Framework group  C1[X(C11H8S3)]
 Deg. of freedom    60
 Full point group                 C1      NOp   1
 Largest Abelian subgroup         C1      NOp   1
 Largest concise Abelian subgroup C1      NOp   1
                         Standard orientation:                         
 ---------------------------------------------------------------------
 Center     Atomic      Atomic             Coordinates (Angstroms)
 Number     Number       Type             X           Y           Z
 ---------------------------------------------------------------------
      1          6           0       -3.951916    0.733092   -0.072916
      2          6           0       -2.602233    1.107770    0.164529
      3          6           0       -1.718835    0.038930    0.011274
      4          6           0       -2.212930    2.502314    0.540444
      5          6           0       -4.109237   -0.600419   -0.399245
      6          1           0       -4.787239    1.414657   -0.003198
      7         16           0       -2.603080   -1.418790   -0.439089
      8          1           0       -5.042757   -1.093577   -0.624860
      9          6           0       -0.283727   -0.015022    0.134860
     10         16           0        0.559465   -1.517652    0.535884
     11          6           0        2.098061   -0.738298    0.488441
     12          6           0        1.964881    0.620160    0.170209
     13          6           0        0.622545    1.027993   -0.047318
     14          1           0        0.339407    1.997819   -0.429172
     15         16           0        3.442943    1.255535   -0.460552
     16          6           0        4.234455   -0.290066   -0.291309
     17          6           0        3.389115   -1.263191    0.206637
     18          1           0        5.233708   -0.458701   -0.665057
     19          1           0        3.635672   -2.317175    0.181847
     20          1           0       -3.095666    3.136923    0.637494
     21          1           0       -1.565219    2.954509   -0.213055
     22          1           0       -1.688225    2.520484    1.502487
 ---------------------------------------------------------------------
 Rotational constants (GHZ):           1.2422818           0.2853979           0.2401598
 Standard basis: 6-311+G(d,p) (5D, 7F)
 There are   394 symmetry adapted cartesian basis functions of A   symmetry.
 There are   380 symmetry adapted basis functions of A   symmetry.
   380 basis functions,   610 primitive gaussians,   394 cartesian basis functions
    61 alpha electrons       61 beta electrons
       nuclear repulsion energy      1125.5598987209 Hartrees.
 NAtoms=   22 NActive=   22 NUniq=   22 SFac= 1.00D+00 NAtFMM=   60 NAOKFM=F Big=F
 Integral buffers will be    131072 words long.
 Raffenetti 2 integral format.
 Two-electron integral symmetry is turned on.
 Nuclear repulsion after empirical dispersion term =     1125.5471546695 Hartrees.
 One-electron integrals computed using PRISM.
 NBasis=   380 RedAO= T EigKep=  1.72D-06  NBF=   380
 NBsUse=   378 1.00D-06 EigRej=  8.45D-07 NBFU=   378
 Initial guess from the checkpoint file:  "/tmp/pbs.4762230[330].pbs/Gau-1358657.chk"
 B after Tr=     0.000000   -0.000000   -0.000000
         Rot=    0.999977   -0.003521   -0.001578    0.005631 Ang=  -0.78 deg.
 ExpMin= 4.05D-02 ExpMax= 9.34D+04 ExpMxC= 3.17D+03 IAcc=3 IRadAn=         5 AccDes= 0.00D+00
 Harris functional with IExCor= 4639 and IRadAn=       5 diagonalized for initial guess.
 HarFok:  IExCor= 4639 AccDes= 0.00D+00 IRadAn=         5 IDoV= 1 UseB2=F ITyADJ=14
 ICtDFT=  3500011 ScaDFX=  1.000000  1.000000  1.000000  1.000000
 FoFCou: FMM=F IPFlag=           0 FMFlag=      100000 FMFlg1=           0
         NFxFlg=           0 DoJE=T BraDBF=F KetDBF=T FulRan=T
         wScrn=  0.000000 ICntrl=       500 IOpCl=  0 I1Cent=   200000004 NGrid=           0
         NMat0=    1 NMatS0=      1 NMatT0=    0 NMatD0=    1 NMtDS0=    0 NMtDT0=    0
 Petite list used in FoFCou.
 Requested convergence on RMS density matrix=1.00D-08 within 128 cycles.
 Requested convergence on MAX density matrix=1.00D-06.
 Requested convergence on             energy=1.00D-06.
 No special actions if energy rises.
 SCF Done:  E(RwB97XD) =  -1618.49469789     A.U. after   17 cycles
            NFock= 17  Conv=0.19D-08     -V/T= 2.0022
 Calling FoFJK, ICntrl=      2127 FMM=F ISym2X=0 I1Cent= 0 IOpClX= 0 NMat=1 NMatS=1 NMatT=0.
 ***** Axes restored to original set *****
 -------------------------------------------------------------------
 Center     Atomic                   Forces (Hartrees/Bohr)
 Number     Number              X              Y              Z
 -------------------------------------------------------------------
      1        6           0.000345762   -0.021502070    0.004408589
      2        6           0.009152243   -0.011308129   -0.000669599
      3        6          -0.022573482   -0.000886800    0.007257727
      4        6           0.001826481    0.003409996    0.001368626
      5        6           0.002305730    0.020297929   -0.005493935
      6        1          -0.000376939    0.001784821   -0.000299139
      7       16           0.001567471    0.008078523   -0.002168576
      8        1           0.002002033   -0.002865584    0.000636047
      9        6           0.021133240    0.012881088   -0.015741268
     10       16          -0.005502875    0.007724371    0.006614017
     11        6          -0.005439005    0.004496120   -0.017260749
     12        6          -0.003919391   -0.018126387    0.002594813
     13        6          -0.009630163   -0.011048531    0.014762914
     14        1           0.000515493    0.001629855    0.002734622
     15       16           0.010030135    0.000607291    0.001898395
     16        6          -0.013600771   -0.009500438    0.017014147
     17        6           0.006206598    0.005757500   -0.020055458
     18        1           0.001932940    0.005017314    0.000229004
     19        1           0.003794085    0.003758970    0.004432003
     20        1          -0.000501423   -0.000724628    0.000181668
     21        1          -0.000209323    0.001520360    0.000011158
     22        1           0.000941160   -0.001001570   -0.002455009
 -------------------------------------------------------------------
 Cartesian Forces:  Max     0.022573482 RMS     0.008856406

 GradGradGradGradGradGradGradGradGradGradGradGradGradGradGradGradGradGrad
 Berny optimization.
 Using GEDIIS/GDIIS optimizer.
 FormGI is forming the generalized inverse of G from B-inverse, IUseBI=4.
 Internal  Forces:  Max     0.021419771 RMS     0.004514238
 Search for a local minimum.
 Step number   2 out of a maximum of  127
 All quantities printed in internal units (Hartrees-Bohrs-Radians)
 Mixed Optimization -- RFO/linear search
 Update second derivatives using D2CorX and points    1    2
 DE= -3.36D-02 DEPred=-3.34D-02 R= 1.01D+00
 TightC=F SS=  1.41D+00  RLast= 3.72D-01 DXNew= 5.0454D-01 1.1162D+00
 Trust test= 1.01D+00 RLast= 3.72D-01 DXMaxT set to 5.05D-01
 ITU=  1  0
 Use linear search instead of GDIIS.
     Eigenvalues ---    0.00934   0.00981   0.01047   0.01208   0.01240
     Eigenvalues ---    0.01273   0.01294   0.01380   0.01462   0.01479
     Eigenvalues ---    0.01499   0.01589   0.01592   0.01709   0.02028
     Eigenvalues ---    0.02317   0.07243   0.07372   0.15506   0.15747
     Eigenvalues ---    0.15842   0.15956   0.15999   0.16000   0.16000
     Eigenvalues ---    0.16013   0.18873   0.22461   0.22546   0.23452
     Eigenvalues ---    0.24249   0.24585   0.24799   0.24996   0.25275
     Eigenvalues ---    0.26101   0.26499   0.28335   0.30944   0.31045
     Eigenvalues ---    0.31445   0.33657   0.33816   0.34530   0.34603
     Eigenvalues ---    0.34943   0.35161   0.35692   0.35809   0.36006
     Eigenvalues ---    0.36120   0.36175   0.36248   0.36877   0.38242
     Eigenvalues ---    0.39030   0.39476   0.40559   0.434201000.00000
     Eigenvalues --- 1000.000001000.000001000.000001000.000001000.00000
     Eigenvalues --- 1000.000001000.000001000.000001000.000001000.00000
     Eigenvalues --- 1000.000001000.000001000.000001000.000001000.00000
     Eigenvalues --- 1000.000001000.000001000.000001000.000001000.00000
     Eigenvalues --- 1000.000001000.000001000.000001000.000001000.00000
     Eigenvalues --- 1000.000001000.000001000.000001000.000001000.00000
     Eigenvalues --- 1000.000001000.000001000.000001000.000001000.00000
     Eigenvalues --- 1000.000001000.000001000.000001000.000001000.00000
     Eigenvalues --- 1000.000001000.000001000.000001000.000001000.00000
     Eigenvalues --- 1000.000001000.000001000.000001000.000001000.00000
     Eigenvalues --- 1000.000001000.000001000.000001000.000001000.00000
     Eigenvalues --- 1000.000001000.00000
 RFO step:  Lambda=-7.45885661D-03 EMin= 9.33869269D-03
 Quartic linear search produced a step of  0.40272.
 Iteration  1 RMS(Cart)=  0.09712260 RMS(Int)=  0.00678009
 Iteration  2 RMS(Cart)=  0.00892394 RMS(Int)=  0.00211331
 Iteration  3 RMS(Cart)=  0.00004359 RMS(Int)=  0.00211295
 Iteration  4 RMS(Cart)=  0.00000004 RMS(Int)=  0.00211295
 Iteration  1 RMS(Cart)=  0.00003163 RMS(Int)=  0.00001195
 Iteration  2 RMS(Cart)=  0.00001731 RMS(Int)=  0.00001335
 Iteration  3 RMS(Cart)=  0.00000948 RMS(Int)=  0.00001508
 Iteration  4 RMS(Cart)=  0.00000519 RMS(Int)=  0.00001623
 Iteration  5 RMS(Cart)=  0.00000284 RMS(Int)=  0.00001691
 Iteration  6 RMS(Cart)=  0.00000155 RMS(Int)=  0.00001729
 Iteration  7 RMS(Cart)=  0.00000085 RMS(Int)=  0.00001750
 Variable       Old X    -DE/DX   Delta X   Delta X   Delta X     New X
                                 (Linear)    (Quad)   (Total)
    R1        2.68475   0.00021  -0.01386   0.01901   0.00517   2.68991
    R2        2.61130  -0.01807  -0.04132  -0.00581  -0.04718   2.56413
    R3        2.04157   0.00142   0.00147   0.00328   0.00475   2.04631
    R4        2.63635  -0.01516  -0.04942   0.01286  -0.03649   2.59986
    R5        2.82678   0.00373   0.00659   0.00566   0.01225   2.83903
    R6        3.33239  -0.01000  -0.02553  -0.01156  -0.03706   3.29533
    R7        2.72391   0.00586  -0.01032   0.03533   0.02501   2.74891
    R8        2.06263  -0.00003  -0.00071   0.00087   0.00017   2.06280
    R9        2.06298   0.00002   0.00208  -0.00285  -0.00077   2.06221
   R10        2.07110  -0.00105  -0.00212  -0.00122  -0.00335   2.06775
   R11        3.24011  -0.00359  -0.01877   0.01156  -0.00727   3.23284
   R12        2.04017  -0.00019  -0.00022  -0.00040  -0.00062   2.03955
   R13        3.34310  -0.00628  -0.01620   0.00159  -0.01698   3.32612
   R14        2.63371  -0.02142  -0.05380  -0.00135  -0.05679   2.57692
   R15        3.26049   0.00213  -0.00395   0.01287   0.00969   3.27018
   R16        2.64859  -0.01278  -0.02972  -0.01480  -0.04029   2.60831
   R17        2.68697   0.00181  -0.00255   0.00602   0.00503   2.69199
   R18        2.68282   0.00055  -0.01026   0.01249   0.00337   2.68619
   R19        3.26558   0.00228  -0.00318   0.01352   0.01008   3.27566
   R20        2.04103  -0.00068   0.00106  -0.00404  -0.00298   2.03805
   R21        3.29703  -0.00588  -0.01552   0.00285  -0.01461   3.28241
   R22        2.61133  -0.02012  -0.04799  -0.00199  -0.05054   2.56079
   R23        2.04111  -0.00034  -0.00109   0.00022  -0.00087   2.04023
   R24        2.04605  -0.00096  -0.00326   0.00084  -0.00242   2.04362
    A1        1.98464   0.00098   0.00581  -0.00562   0.00017   1.98481
    A2        2.16202  -0.00170  -0.00454  -0.00430  -0.00884   2.15319
    A3        2.13651   0.00072  -0.00127   0.00994   0.00868   2.14519
    A4        1.96183  -0.00154  -0.00404  -0.00284  -0.00693   1.95491
    A5        2.13543   0.00130   0.01465  -0.01505  -0.00057   2.13485
    A6        2.18591   0.00024  -0.01061   0.01779   0.00699   2.19291
    A7        1.92182   0.00227   0.00702   0.00291   0.00999   1.93181
    A8        2.27798  -0.00368  -0.01648   0.00473  -0.01183   2.26615
    A9        2.08311   0.00143   0.00942  -0.00727   0.00207   2.08517
   A10        1.93253  -0.00146  -0.00522  -0.00231  -0.00750   1.92503
   A11        1.94671   0.00190   0.00508   0.00505   0.01014   1.95685
   A12        1.93975   0.00040   0.00259  -0.00018   0.00242   1.94217
   A13        1.87588  -0.00047   0.00072  -0.00729  -0.00653   1.86935
   A14        1.87496   0.00121   0.00358   0.00682   0.01042   1.88538
   A15        1.89120  -0.00163  -0.00696  -0.00224  -0.00921   1.88199
   A16        1.94559   0.00020  -0.00314   0.00496   0.00168   1.94728
   A17        2.20013   0.00348   0.00980   0.01268   0.02248   2.22261
   A18        2.13730  -0.00367  -0.00666  -0.01734  -0.02400   2.11330
   A19        1.61080  -0.00191  -0.00568   0.00066  -0.00506   1.60573
   A20        2.12441  -0.00482  -0.00181  -0.02425  -0.02593   2.09848
   A21        2.22458   0.00235  -0.00630   0.02111   0.01494   2.23952
   A22        1.93409   0.00249   0.00835   0.00322   0.01109   1.94518
   A23        1.60593  -0.00177  -0.00529  -0.00584  -0.00901   1.59692
   A24        1.93833  -0.00302  -0.00932   0.00644  -0.00546   1.93287
   A25        2.27627   0.00453   0.01535   0.04638   0.05175   2.32803
   A26        1.98131   0.00103   0.00634  -0.00018   0.00531   1.98662
   A27        1.98566   0.00092   0.00768  -0.00305   0.00377   1.98943
   A28        1.93689  -0.00285  -0.01196   0.01193  -0.00237   1.93452
   A29        2.27467   0.00430   0.01513   0.04317   0.04873   2.32340
   A30        1.96040   0.00140  -0.00128  -0.00068  -0.00025   1.96015
   A31        2.15046  -0.00075  -0.00417   0.01248   0.00579   2.15625
   A32        2.16517  -0.00034   0.00735  -0.00396   0.00081   2.16597
   A33        1.59770  -0.00159   0.00191  -0.01697  -0.01248   1.58522
   A34        1.96198   0.00262   0.00090   0.01633   0.01602   1.97800
   A35        2.12286  -0.00450  -0.00495  -0.01902  -0.02852   2.09434
   A36        2.19037   0.00246   0.00771   0.01728   0.02039   2.21077
   A37        1.94648   0.00080   0.00278  -0.01053  -0.00616   1.94032
   A38        2.17811  -0.00027   0.00495   0.00917   0.00751   2.18562
   A39        2.13882   0.00049  -0.00091   0.02445   0.01702   2.15584
    D1        0.00331  -0.00019  -0.00142  -0.01704  -0.01842  -0.01511
    D2       -3.13427   0.00032   0.00012   0.01028   0.01033  -3.12394
    D3        3.13932  -0.00025  -0.00175  -0.01281  -0.01459   3.12472
    D4        0.00174   0.00027  -0.00021   0.01451   0.01415   0.01589
    D5       -0.01124   0.00011  -0.00182   0.01397   0.01210   0.00086
    D6       -3.13360  -0.00026  -0.00137  -0.00321  -0.00479  -3.13839
    D7        3.13584   0.00017  -0.00149   0.00985   0.00836  -3.13898
    D8        0.01348  -0.00020  -0.00103  -0.00732  -0.00853   0.00495
    D9        0.00588   0.00021   0.00393   0.01212   0.01605   0.02193
   D10        3.12160   0.00110   0.00160   0.02932   0.03084  -3.13075
   D11       -3.13987  -0.00032   0.00234  -0.01623  -0.01386   3.12945
   D12       -0.02415   0.00057   0.00001   0.00097   0.00093  -0.02322
   D13        0.03993   0.00027   0.00087   0.03832   0.03913   0.07906
   D14       -2.04825   0.00059   0.00006   0.04573   0.04575  -2.00250
   D15        2.12240   0.00109   0.00366   0.04524   0.04883   2.17123
   D16       -3.09712   0.00086   0.00261   0.06931   0.07196  -3.02516
   D17        1.09789   0.00118   0.00180   0.07671   0.07858   1.17647
   D18       -1.01465   0.00167   0.00540   0.07623   0.08166  -0.93299
   D19       -0.01036  -0.00011  -0.00420  -0.00372  -0.00805  -0.01841
   D20       -3.12939  -0.00079  -0.00183  -0.01890  -0.02084   3.13296
   D21        2.70527  -0.00218  -0.00000   0.00000  -0.00000   2.70527
   D22       -0.45369   0.00014   0.01082   0.00594   0.01710  -0.43659
   D23       -0.46420  -0.00123  -0.00257   0.01868   0.01596  -0.44823
   D24        2.66003   0.00110   0.00825   0.02462   0.03306   2.69309
   D25        0.01229   0.00000   0.00344  -0.00572  -0.00236   0.00993
   D26        3.13546   0.00044   0.00320   0.01111   0.01389  -3.13383
   D27       -3.13765   0.00082   0.00310   0.00208   0.00498  -3.13268
   D28        0.01869  -0.00117  -0.00579  -0.00318  -0.00955   0.00914
   D29        3.13008  -0.00109  -0.00584  -0.00137  -0.00707   3.12301
   D30       -0.13529   0.00157   0.00922   0.06558   0.07504  -0.06024
   D31       -0.02731   0.00097   0.00383   0.00378   0.00848  -0.01883
   D32        2.99050   0.00362   0.01890   0.07073   0.09060   3.08110
   D33       -0.00506   0.00115   0.00662   0.00177   0.00830   0.00323
   D34       -2.67242  -0.00518  -0.02270  -0.13064  -0.15610  -2.82852
   D35       -0.00974  -0.00073  -0.00540   0.00013  -0.00489  -0.01464
   D36       -2.76473  -0.00683  -0.03079  -0.12079  -0.14547  -2.91020
   D37        2.74296   0.00573   0.02264   0.12204   0.13933   2.88229
   D38       -0.01203  -0.00037  -0.00275   0.00113  -0.00125  -0.01327
[...]
     16          6           0        4.284907   -0.250325   -0.000708
     17          6           0        3.419287   -1.259123    0.284397
     18          1           0        5.363589   -0.295591   -0.013060
     19          1           0        3.729000   -2.262196    0.541386
     20          1           0       -2.905455    3.041643    1.075943
     21          1           0       -1.830836    3.084942   -0.320434
     22          1           0       -1.237449    2.468861    1.225824
 ---------------------------------------------------------------------
 Rotational constants (GHZ):           1.2843775           0.2830761           0.2377259

 **********************************************************************

            Population analysis using the SCF Density.

 **********************************************************************

 Orbital symmetries:
       Occupied  (A) (A) (A) (A) (A) (A) (A) (A) (A) (A) (A) (A)
                 (A) (A) (A) (A) (A) (A) (A) (A) (A) (A) (A) (A)
                 (A) (A) (A) (A) (A) (A) (A) (A) (A) (A) (A) (A)
                 (A) (A) (A) (A) (A) (A) (A) (A) (A) (A) (A) (A)
                 (A) (A) (A) (A) (A) (A) (A) (A) (A) (A) (A) (A)
                 (A)
       Virtual   (A) (A) (A) (A) (A) (A) (A) (A) (A) (A) (A) (A)
                 (A) (A) (A) (A) (A) (A) (A) (A) (A) (A) (A) (A)
                 (A) (A) (A) (A) (A) (A) (A) (A) (A) (A) (A) (A)
                 (A) (A) (A) (A) (A) (A) (A) (A) (A) (A) (A) (A)
                 (A) (A) (A) (A) (A) (A) (A) (A) (A) (A) (A) (A)
                 (A) (A) (A) (A) (A) (A) (A) (A) (A) (A) (A) (A)
                 (A) (A) (A) (A) (A) (A) (A) (A) (A) (A) (A) (A)
                 (A) (A) (A) (A) (A) (A) (A) (A) (A) (A) (A) (A)
                 (A) (A) (A) (A) (A) (A) (A) (A) (A) (A) (A) (A)
                 (A) (A) (A) (A) (A) (A) (A) (A) (A) (A) (A) (A)
                 (A) (A) (A) (A) (A) (A) (A) (A) (A) (A) (A) (A)
                 (A) (A) (A) (A) (A) (A) (A) (A) (A) (A) (A) (A)
                 (A) (A) (A) (A) (A) (A) (A) (A) (A) (A) (A) (A)
                 (A) (A) (A) (A) (A) (A) (A) (A) (A) (A) (A) (A)
                 (A) (A) (A) (A) (A) (A) (A) (A) (A) (A) (A) (A)
                 (A) (A) (A) (A) (A) (A) (A) (A) (A) (A) (A) (A)
                 (A) (A) (A) (A) (A) (A) (A) (A) (A) (A) (A) (A)
                 (A) (A) (A) (A) (A) (A) (A) (A) (A) (A) (A) (A)
                 (A) (A) (A) (A) (A) (A) (A) (A) (A) (A) (A) (A)
                 (A) (A) (A) (A) (A) (A) (A) (A) (A) (A) (A) (A)
                 (A) (A) (A) (A) (A) (A) (A) (A) (A) (A) (A) (A)
                 (A) (A) (A) (A) (A) (A) (A) (A) (A) (A) (A) (A)
                 (A) (A) (A) (A) (A) (A) (A) (A) (A) (A) (A) (A)
                 (A) (A) (A) (A) (A) (A) (A) (A) (A) (A) (A) (A)
                 (A) (A) (A) (A) (A) (A) (A) (A) (A) (A) (A) (A)
                 (A) (A) (A) (A) (A) (A) (A) (A) (A) (A) (A) (A)
                 (A) (A) (A) (A)
 The electronic state is 1-A.
 Alpha  occ. eigenvalues --  -89.05115 -89.05009 -89.04799 -10.33932 -10.32914
 Alpha  occ. eigenvalues --  -10.32446 -10.32375 -10.32346 -10.31789 -10.30553
 Alpha  occ. eigenvalues --  -10.30548 -10.30496 -10.29329 -10.28922  -8.09161
 Alpha  occ. eigenvalues --   -8.09065  -8.08893  -6.04010  -6.03923  -6.03725
 Alpha  occ. eigenvalues --   -6.03637  -6.03550  -6.03338  -6.03223  -6.03102
 Alpha  occ. eigenvalues --   -6.02995  -1.02288  -0.99800  -0.95329  -0.88084
 Alpha  occ. eigenvalues --   -0.86813  -0.85828  -0.81093  -0.80282  -0.77830
 Alpha  occ. eigenvalues --   -0.70690  -0.66644  -0.66431  -0.63051  -0.61070
 Alpha  occ. eigenvalues --   -0.58878  -0.58550  -0.52953  -0.52532  -0.52228
 Alpha  occ. eigenvalues --   -0.50758  -0.50026  -0.48235  -0.47734  -0.47127
 Alpha  occ. eigenvalues --   -0.46375  -0.45919  -0.44307  -0.43089  -0.42834
 Alpha  occ. eigenvalues --   -0.41700  -0.37136  -0.34102  -0.32824  -0.30833
 Alpha  occ. eigenvalues --   -0.27615
 Alpha virt. eigenvalues --    0.00605   0.05117   0.05676   0.06004   0.06443
 Alpha virt. eigenvalues --    0.06775   0.07127   0.07638   0.08089   0.09003
 Alpha virt. eigenvalues --    0.09213   0.09388   0.09606   0.10004   0.10648
 Alpha virt. eigenvalues --    0.11162   0.11294   0.11631   0.12046   0.12794
 Alpha virt. eigenvalues --    0.13263   0.13393   0.13718   0.14019   0.14626
 Alpha virt. eigenvalues --    0.15167   0.15610   0.16247   0.16804   0.17166
 Alpha virt. eigenvalues --    0.17679   0.18089   0.18876   0.19280   0.19400
 Alpha virt. eigenvalues --    0.20101   0.20429   0.20518   0.20702   0.21659
 Alpha virt. eigenvalues --    0.21997   0.22200   0.22459   0.23089   0.23285
 Alpha virt. eigenvalues --    0.23880   0.24290   0.24928   0.25118   0.25220
 Alpha virt. eigenvalues --    0.25524   0.26037   0.26501   0.27096   0.27237
 Alpha virt. eigenvalues --    0.27560   0.27910   0.28338   0.28430   0.29093
 Alpha virt. eigenvalues --    0.29400   0.29601   0.30709   0.31059   0.31596
 Alpha virt. eigenvalues --    0.32454   0.32778   0.32852   0.33458   0.34342
 Alpha virt. eigenvalues --    0.34931   0.35379   0.37070   0.37894   0.38643
 Alpha virt. eigenvalues --    0.39034   0.40633   0.40797   0.41498   0.41929
 Alpha virt. eigenvalues --    0.42936   0.43560   0.45101   0.46713   0.47256
 Alpha virt. eigenvalues --    0.49662   0.50008   0.52050   0.52296   0.52642
 Alpha virt. eigenvalues --    0.54108   0.54558   0.56258   0.57774   0.58856
 Alpha virt. eigenvalues --    0.60031   0.62071   0.62855   0.63550   0.64346
 Alpha virt. eigenvalues --    0.64591   0.64903   0.66745   0.66899   0.67886
 Alpha virt. eigenvalues --    0.69225   0.70190   0.70832   0.71266   0.72084
 Alpha virt. eigenvalues --    0.73004   0.73161   0.74169   0.75634   0.77146
 Alpha virt. eigenvalues --    0.78020   0.78587   0.79563   0.80030   0.81036
 Alpha virt. eigenvalues --    0.81264   0.81847   0.82645   0.83467   0.85228
 Alpha virt. eigenvalues --    0.85400   0.86333   0.86915   0.87657   0.87912
 Alpha virt. eigenvalues --    0.88339   0.90476   0.90800   0.91474   0.92081
 Alpha virt. eigenvalues --    0.92405   0.93054   0.94816   0.95578   0.96452
 Alpha virt. eigenvalues --    0.96942   0.97693   0.97885   0.99514   0.99882
 Alpha virt. eigenvalues --    1.02382   1.04053   1.05670   1.06068   1.07018
 Alpha virt. eigenvalues --    1.07729   1.10734   1.11366   1.11908   1.13031
 Alpha virt. eigenvalues --    1.13520   1.14699   1.15034   1.16625   1.17655
 Alpha virt. eigenvalues --    1.20095   1.22278   1.22856   1.27112   1.28934
 Alpha virt. eigenvalues --    1.29630   1.31281   1.35415   1.42792   1.43144
 Alpha virt. eigenvalues --    1.43916   1.44385   1.46126   1.48268   1.51503
 Alpha virt. eigenvalues --    1.51705   1.57062   1.59403   1.60452   1.63845
 Alpha virt. eigenvalues --    1.64673   1.65396   1.66971   1.67208   1.68988
 Alpha virt. eigenvalues --    1.69231   1.71230   1.72134   1.73291   1.75610
 Alpha virt. eigenvalues --    1.76749   1.78486   1.79761   1.81511   1.82229
 Alpha virt. eigenvalues --    1.82532   1.83817   1.85175   1.86051   1.86635
 Alpha virt. eigenvalues --    1.89412   1.91103   1.92455   1.92887   1.94098
 Alpha virt. eigenvalues --    1.96355   1.98187   1.99025   2.01558   2.03630
 Alpha virt. eigenvalues --    2.05808   2.07080   2.07472   2.07878   2.10956
 Alpha virt. eigenvalues --    2.12367   2.13734   2.15226   2.15941   2.16984
 Alpha virt. eigenvalues --    2.17324   2.18986   2.19547   2.21720   2.23417
 Alpha virt. eigenvalues --    2.25013   2.25819   2.27244   2.28979   2.30487
 Alpha virt. eigenvalues --    2.34331   2.40053   2.44783   2.46633   2.49771
 Alpha virt. eigenvalues --    2.50915   2.53187   2.55480   2.58879   2.62351
 Alpha virt. eigenvalues --    2.62952   2.65242   2.69942   2.70687   2.71878
 Alpha virt. eigenvalues --    2.74784   2.78422   2.79874   2.81122   2.81794
 Alpha virt. eigenvalues --    2.82665   2.83166   2.83933   2.84490   2.88206
 Alpha virt. eigenvalues --    2.89527   2.93746   2.94116   2.97639   3.01202
 Alpha virt. eigenvalues --    3.04725   3.05780   3.09583   3.13107   3.13356
 Alpha virt. eigenvalues --    3.17643   3.18248   3.23031   3.25500   3.29144
 Alpha virt. eigenvalues --    3.31554   3.39612   3.40893   3.42495   3.47887
 Alpha virt. eigenvalues --    3.52859   3.55827   3.58357   3.64290   3.67926
 Alpha virt. eigenvalues --    3.80295   3.89914   3.92839   4.04198   4.07650
 Alpha virt. eigenvalues --    4.17326   4.22500   4.44267   4.47107   4.69775
 Alpha virt. eigenvalues --    8.08998   8.11439   8.14130  17.42006  17.43196
 Alpha virt. eigenvalues --   17.44378  17.59749  17.60744  17.64892  17.66514
 Alpha virt. eigenvalues --   17.69552  17.71767  23.60661  23.77429  23.90931
 Alpha virt. eigenvalues --   23.94324  23.98481  24.08764  24.17786  24.22772
 Alpha virt. eigenvalues --   24.26328  24.29922  24.30438 189.34031 189.36703
 Alpha virt. eigenvalues --  189.39744
          Condensed to atoms (all electrons):
               1          2          3          4          5          6
     1  C    7.366894   0.234795  -0.903726  -0.446753   0.455910   0.375213
     2  C    0.234795   7.402311   0.074110  -1.253467  -0.068817  -0.053288
     3  C   -0.903726   0.074110   7.966424   0.075600   0.008600   0.022545
     4  C   -0.446753  -1.253467   0.075600   7.323436  -0.313375   0.002118
     5  C    0.455910  -0.068817   0.008600  -0.313375   5.519050   0.003905
     6  H    0.375213  -0.053288   0.022545   0.002118   0.003905   0.499144
     7  S   -0.670538  -0.445145  -0.944595   0.542216  -0.051076   0.007402
     8  H    0.007054  -0.004441   0.000826   0.002667   0.399463  -0.004190
     9  C   -0.391701   0.372236  -0.227670  -0.174865   0.121303  -0.004903
    10  S    0.107805   0.103194   0.318279  -0.050838  -0.032044  -0.000630
    11  C   -0.021982  -0.212419  -0.542067   0.102147  -0.005385  -0.000306
    12  C   -0.011530  -0.376521   0.179872   0.050583   0.003634   0.000211
    13  C   -0.126118  -0.094072  -0.734149   0.165902   0.040590   0.003106
    14  H    0.009935   0.023585   0.000198  -0.001649  -0.000086  -0.000011
    15  S    0.000458  -0.000049  -0.047957  -0.023187   0.002051   0.000007
    16  C    0.001831  -0.004879  -0.046344   0.005817  -0.001137  -0.000001
    17  C   -0.002210  -0.093024   0.298196  -0.003546  -0.003358  -0.000012
    18  H   -0.000001  -0.000001   0.000021  -0.000002  -0.000000   0.000000
    19  H   -0.000006  -0.000107  -0.001004   0.000008   0.000010  -0.000000
    20  H    0.026123  -0.077479  -0.002324   0.403749   0.011754   0.001602
    21  H    0.057252   0.050950  -0.046768   0.319063   0.003070  -0.000091
    22  H   -0.082684  -0.079671   0.069319   0.427065   0.000064   0.000122
               7          8          9         10         11         12
     1  C   -0.670538   0.007054  -0.391701   0.107805  -0.021982  -0.011530
     2  C   -0.445145  -0.004441   0.372236   0.103194  -0.212419  -0.376521
     3  C   -0.944595   0.000826  -0.227670   0.318279  -0.542067   0.179872
     4  C    0.542216   0.002667  -0.174865  -0.050838   0.102147   0.050583
     5  C   -0.051076   0.399463   0.121303  -0.032044  -0.005385   0.003634
     6  H    0.007402  -0.004190  -0.004903  -0.000630  -0.000306   0.000211
     7  S   18.000547  -0.026647   0.016004  -0.247037   0.003616   0.154569
     8  H   -0.026647   0.447934  -0.007545   0.000174  -0.000013  -0.000163
     9  C    0.016004  -0.007545   9.364545   0.258375  -1.219500  -1.430667
    10  S   -0.247037   0.000174   0.258375  18.016039  -0.114928  -0.724268
    11  C    0.003616  -0.000013  -1.219500  -0.114928  16.381849  -4.776182
    12  C    0.154569  -0.000163  -1.430667  -0.724268  -4.776182  11.228728
    13  C    0.211336  -0.001137  -0.090764  -0.694679  -0.176937   0.696482
    14  H   -0.001999  -0.000000   0.005351   0.008505  -0.058609  -0.044991
    15  S    0.001204  -0.000003  -0.818283   0.089949   0.421187  -0.633544
    16  C   -0.004865   0.000001  -0.216891   0.015476   0.861556  -0.880880
    17  C   -0.026673  -0.000004   0.055983  -0.515596  -5.185363   2.454727
    18  H   -0.000001   0.000000   0.004817  -0.000783   0.008260   0.031437
    19  H    0.000143   0.000000  -0.006058   0.013213   0.026807  -0.051632
    20  H    0.001454  -0.000014  -0.016427  -0.001138  -0.000790   0.004346
    21  H   -0.004218   0.000001   0.026226   0.003050  -0.001872  -0.011712
    22  H    0.006500   0.000010   0.033953  -0.001926  -0.014046  -0.015272
              13         14         15         16         17         18
     1  C   -0.126118   0.009935   0.000458   0.001831  -0.002210  -0.000001
     2  C   -0.094072   0.023585  -0.000049  -0.004879  -0.093024  -0.000001
     3  C   -0.734149   0.000198  -0.047957  -0.046344   0.298196   0.000021
     4  C    0.165902  -0.001649  -0.023187   0.005817  -0.003546  -0.000002
     5  C    0.040590  -0.000086   0.002051  -0.001137  -0.003358  -0.000000
     6  H    0.003106  -0.000011   0.000007  -0.000001  -0.000012   0.000000
     7  S    0.211336  -0.001999   0.001204  -0.004865  -0.026673  -0.000001
     8  H   -0.001137  -0.000000  -0.000003   0.000001  -0.000004   0.000000
     9  C   -0.090764   0.005351  -0.818283  -0.216891   0.055983   0.004817
    10  S   -0.694679   0.008505   0.089949   0.015476  -0.515596  -0.000783
    11  C   -0.176937  -0.058609   0.421187   0.861556  -5.185363   0.008260
    12  C    0.696482  -0.044991  -0.633544  -0.880880   2.454727   0.031437
    13  C    7.616661   0.398128  -0.173729  -0.024129  -0.908922  -0.000383
    14  H    0.398128   0.485369   0.011128  -0.001906   0.006589  -0.000002
    15  S   -0.173729   0.011128  17.573371   0.371058  -0.286469  -0.041458
    16  C   -0.024129  -0.001906   0.371058   5.710242  -0.085033   0.384095
    17  C   -0.908922   0.006589  -0.286469  -0.085033  10.387175  -0.018011
    18  H   -0.000383  -0.000002  -0.041458   0.384095  -0.018011   0.442453
    19  H    0.000196   0.000002   0.007585   0.024787   0.345675  -0.003632
    20  H    0.017970   0.000464   0.000187  -0.000006  -0.000083   0.000000
    21  H   -0.039290   0.001135   0.000054  -0.000042   0.000580   0.000000
    22  H    0.019592  -0.003479   0.001077  -0.000231  -0.002019   0.000000
              19         20         21         22
     1  C   -0.000006   0.026123   0.057252  -0.082684
     2  C   -0.000107  -0.077479   0.050950  -0.079671
     3  C   -0.001004  -0.002324  -0.046768   0.069319
     4  C    0.000008   0.403749   0.319063   0.427065
     5  C    0.000010   0.011754   0.003070   0.000064
     6  H   -0.000000   0.001602  -0.000091   0.000122
     7  S    0.000143   0.001454  -0.004218   0.006500
     8  H    0.000000  -0.000014   0.000001   0.000010
     9  C   -0.006058  -0.016427   0.026226   0.033953
    10  S    0.013213  -0.001138   0.003050  -0.001926
    11  C    0.026807  -0.000790  -0.001872  -0.014046
    12  C   -0.051632   0.004346  -0.011712  -0.015272
    13  C    0.000196   0.017970  -0.039290   0.019592
    14  H    0.000002   0.000464   0.001135  -0.003479
    15  S    0.007585   0.000187   0.000054   0.001077
    16  C    0.024787  -0.000006  -0.000042  -0.000231
    17  C    0.345675  -0.000083   0.000580  -0.002019
    18  H   -0.003632   0.000000   0.000000   0.000000
    19  H    0.481292   0.000000  -0.000000  -0.000000
    20  H    0.000000   0.507591  -0.021768  -0.019366
    21  H   -0.000000  -0.021768   0.505772  -0.029061
    22  H   -0.000000  -0.019366  -0.029061   0.510633
 Mulliken charges:
               1
     1  C    0.013980
     2  C    0.502202
     3  C    0.482615
     4  C   -1.152687
     5  C   -0.094125
     6  H    0.148059
     7  S   -0.522197
     8  H    0.186028
     9  C    0.346483
    10  S   -0.550192
    11  C    0.524977
    12  C    0.152774
    13  C   -0.105652
    14  H    0.162342
    15  S   -0.454638
    16  C   -0.108520
    17  C   -0.418603
    18  H    0.193191
    19  H    0.162720
    20  H    0.164156
    21  H    0.187667
    22  H    0.179421
 Sum of Mulliken charges =  -0.00000
 Mulliken charges with hydrogens summed into heavy atoms:
               1
     1  C    0.162039
     2  C    0.502202
     3  C    0.482615
     4  C   -0.621443
     5  C    0.091903
     7  S   -0.522197
     9  C    0.346483
    10  S   -0.550192
    11  C    0.524977
    12  C    0.152774
    13  C    0.056690
    15  S   -0.454638
    16  C    0.084671
    17  C   -0.255883
 Electronic spatial extent (au):  <R**2>=           4319.4536
 Charge=             -0.0000 electrons
 Dipole moment (field-independent basis, Debye):
    X=             -0.3089    Y=              0.8893    Z=              0.1241  Tot=              0.9495
 Quadrupole moment (field-independent basis, Debye-Ang):
   XX=            -86.4001   YY=            -96.7132   ZZ=           -108.4457
   XY=             -5.3209   XZ=              0.7677   YZ=             -0.4793
 Traceless Quadrupole moment (field-independent basis, Debye-Ang):
   XX=             10.7862   YY=              0.4732   ZZ=            -11.2594
   XY=             -5.3209   XZ=              0.7677   YZ=             -0.4793
 Octapole moment (field-independent basis, Debye-Ang**2):
  XXX=              0.7806  YYY=              3.4254  ZZZ=              0.4789  XYY=             -4.9013
  XXY=            -15.3965  XXZ=             -0.3599  XZZ=             -0.8032  YZZ=              1.3866
  YYZ=              1.3267  XYZ=             -9.5192
 Hexadecapole moment (field-independent basis, Debye-Ang**3):
 XXXX=          -4076.9337 YYYY=          -1072.3339 ZZZZ=           -211.0251 XXXY=            -25.3603
 XXXZ=             24.7818 YYYX=            -33.6519 YYYZ=             -9.0315 ZZZX=             -3.6988
 ZZZY=              1.9933 XXYY=           -909.9714 XXZZ=           -895.6532 YYZZ=           -220.7011
 XXYZ=              9.5179 YYXZ=              4.6802 ZZXY=              2.2974
 N-N= 1.127614415063D+03 E-N=-6.079610334282D+03  KE= 1.615210077194D+03
 Unable to Open any file for archive entry.
 1\1\GINC-CX3-12-28\FOpt\RwB97XD\6-311+G(d,p)\C11H8S3\NS5018\26-Oct-202
 1\0\\# opt=modredundant wb97xd/6-311+g(d,p)\\pBTTT_155.pdb\\0,1\C,-4.1
 894883884,-1.3132583014,-0.1523347502\C,-2.874453609,-1.0167467735,-0.
 619924262\C,-2.0739820724,-2.1353062352,-0.638473659\C,-2.4460708564,0
 .3706404344,-0.9986819776\C,-4.3722286726,-2.6215525581,0.1677494243\H
 ,-4.9632886214,-0.5626504573,-0.0507004528\S,-2.9491131761,-3.54175852
 99,-0.1035904854\H,-5.2614039298,-3.0983439051,0.5513337495\C,-0.69719
 24944,-2.2576593397,-1.097397666\S,0.3335132216,-3.5316234204,-0.46207
 36872\C,1.6406891018,-3.0377544937,-1.4816929049\C,1.2805770497,-1.947
 5232134,-2.247651839\C,-0.0535538333,-1.504159545,-2.0405451172\H,-0.5
 259264923,-0.7003769858,-2.5847701901\S,2.5893925137,-1.4516879934,-3.
 2671205562\C,3.5946346116,-2.721442086,-2.638257273\C,2.9738918539,-3.
 4870963819,-1.7019300202\H,4.6040565791,-2.8261085862,-3.0068604954\H,
 3.4429896882,-4.3221097236,-1.2011104576\H,-3.0693273186,1.1112712943,
 -0.4936217829\H,-2.5428135635,0.5411122523,-2.0761049139\H,-1.40490159
 11,0.5551345488,-0.7242406832\\Version=ES64L-G16RevC.01\State=1-A\HF=-
 1618.5084825\RMSD=2.887e-09\RMSF=5.433e-04\Dipole=-0.1291264,0.3466811
 ,-0.0518507\Quadrupole=7.1202607,-0.8786416,-6.2416191,-4.8729937,-3.2
 574921,-1.9455787\PG=C01 [X(C11H8S3)]\\@
 The archive entry for this job was punched.


 FROM AN ANONYMOUS WRITER, ON PERSPECTIVE:

 MAN, DESPITE HIS ARTISTIC PRETENSIONS, HIS SOPHISTICATION AND MANY 
 ACCOMPLISHMENTS, OWES THE FACT OF HIS EXISTENCE TO A SIX-INCH LAYER OF 
 TOPSOIL AND THE FACT THAT IT RAINS.
 Job cpu time:       0 days  3 hours 24 minutes 24.6 seconds.
 Elapsed time:       0 days  0 hours 25 minutes 43.9 seconds.
 File lengths (MBytes):  RWF=     91 Int=      0 D2E=      0 Chk=     11 Scr=      1
 Normal termination of Gaussian 16 at Tue Oct 26 02:07:14 2021.
