 Entering Gaussian System, Link 0=g16
 Input=pBTTT_35.gjf
 Output=pBTTT_35.log
 Initial command:
 /apps/gaussian/g16-c01-avx/g16/l1.exe "/tmp/pbs.4762230[210].pbs/Gau-106889.inp" -scrdir="/tmp/pbs.4762230[210].pbs/"
 Entering Link 1 = /apps/gaussian/g16-c01-avx/g16/l1.exe PID=    106890.
  
 Copyright (c) 1988-2019, Gaussian, Inc.  All Rights Reserved.
  
 This is part of the Gaussian(R) 16 program.  It is based on
 the Gaussian(R) 09 system (copyright 2009, Gaussian, Inc.),
 the Gaussian(R) 03 system (copyright 2003, Gaussian, Inc.),
 the Gaussian(R) 98 system (copyright 1998, Gaussian, Inc.),
 the Gaussian(R) 94 system (copyright 1995, Gaussian, Inc.),
 the Gaussian 92(TM) system (copyright 1992, Gaussian, Inc.),
 the Gaussian 90(TM) system (copyright 1990, Gaussian, Inc.),
 the Gaussian 88(TM) system (copyright 1988, Gaussian, Inc.),
 the Gaussian 86(TM) system (copyright 1986, Carnegie Mellon
 University), and the Gaussian 82(TM) system (copyright 1983,
 Carnegie Mellon University). Gaussian is a federally registered
 trademark of Gaussian, Inc.
  
 This software contains proprietary and confidential information,
 including trade secrets, belonging to Gaussian, Inc.
  
 This software is provided under written license and may be
 used, copied, transmitted, or stored only in accord with that
 written license.
  
 The following legend is applicable only to US Government
 contracts under FAR:
  
                    RESTRICTED RIGHTS LEGEND
  
 Use, reproduction and disclosure by the US Government is
 subject to restrictions as set forth in subparagraphs (a)
 and (c) of the Commercial Computer Software - Restricted
 Rights clause in FAR 52.227-19.
  
 Gaussian, Inc.
 340 Quinnipiac St., Bldg. 40, Wallingford CT 06492
  
  
 ---------------------------------------------------------------
 Warning -- This program may not be used in any manner that
 competes with the business of Gaussian, Inc. or will provide
 assistance to any competitor of Gaussian, Inc.  The licensee
 of this program is prohibited from giving any competitor of
 Gaussian, Inc. access to this program.  By using this program,
 the user acknowledges that Gaussian, Inc. is engaged in the
 business of creating and licensing software in the field of
 computational chemistry and represents and warrants to the
 licensee that it is not a competitor of Gaussian, Inc. and that
 it will not use this program in any manner prohibited above.
 ---------------------------------------------------------------
  

 Cite this work as:
 Gaussian 16, Revision C.01,
 M. J. Frisch, G. W. Trucks, H. B. Schlegel, G. E. Scuseria, 
 M. A. Robb, J. R. Cheeseman, G. Scalmani, V. Barone, 
 G. A. Petersson, H. Nakatsuji, X. Li, M. Caricato, A. V. Marenich, 
 J. Bloino, B. G. Janesko, R. Gomperts, B. Mennucci, H. P. Hratchian, 
 J. V. Ortiz, A. F. Izmaylov, J. L. Sonnenberg, D. Williams-Young, 
 F. Ding, F. Lipparini, F. Egidi, J. Goings, B. Peng, A. Petrone, 
 T. Henderson, D. Ranasinghe, V. G. Zakrzewski, J. Gao, N. Rega, 
 G. Zheng, W. Liang, M. Hada, M. Ehara, K. Toyota, R. Fukuda, 
 J. Hasegawa, M. Ishida, T. Nakajima, Y. Honda, O. Kitao, H. Nakai, 
 T. Vreven, K. Throssell, J. A. Montgomery, Jr., J. E. Peralta, 
 F. Ogliaro, M. J. Bearpark, J. J. Heyd, E. N. Brothers, K. N. Kudin, 
 V. N. Staroverov, T. A. Keith, R. Kobayashi, J. Normand, 
 K. Raghavachari, A. P. Rendell, J. C. Burant, S. S. Iyengar, 
 J. Tomasi, M. Cossi, J. M. Millam, M. Klene, C. Adamo, R. Cammi, 
 J. W. Ochterski, R. L. Martin, K. Morokuma, O. Farkas, 
 J. B. Foresman, and D. J. Fox, Gaussian, Inc., Wallingford CT, 2019.
 
 ******************************************
 Gaussian 16:  ES64L-G16RevC.01  3-Jul-2019
                26-Oct-2021 
 ******************************************
 %mem=100GB
 %nprocshared=8
 Will use up to    8 processors via shared memory.
 --------------------------------------
 # opt=modredundant wb97xd/6-311+g(d,p)
 --------------------------------------
 1/18=120,19=15,26=3,38=1/1,3;
 2/9=110,12=2,17=6,18=5,40=1/2;
 3/5=4,6=6,7=111,11=2,25=1,30=1,71=1,74=-58/1,2,3;
 4//1;
 5/5=2,38=5/2;
 6/7=2,8=2,9=2,10=2,28=1/1;
 7//1,2,3,16;
 1/18=20,19=15,26=3/3(2);
 2/9=110/2;
 99//99;
 2/9=110/2;
 3/5=4,6=6,7=111,11=2,25=1,30=1,71=1,74=-58/1,2,3;
 4/5=5,16=3,69=1/1;
 5/5=2,38=5/2;
 7//1,2,3,16;
 1/18=20,19=15,26=3/3(-5);
 2/9=110/2;
 6/7=2,8=2,9=2,10=2,19=2,28=1/1;
 99/9=1/99;
 ------------
 pBTTT_35.pdb
 ------------
 Symbolic Z-matrix:
 Charge =  0 Multiplicity = 1
 C                    -4.25     -1.36     -0.21 
 C                    -2.93     -0.95     -0.61 
 C                    -1.97     -2.05     -0.62 
 C                    -2.66      0.47     -0.96 
 C                    -4.33     -2.76      0.1 
 H                    -5.1      -0.7      -0.14 
 S                    -2.8      -3.56     -0.11 
 H                    -5.23     -3.27      0.41 
 C                    -0.56     -2.13     -0.97 
 S                     0.577    -0.787    -0.64 
 C                     1.92     -1.649    -1.307 
 C                     1.555    -2.965    -1.765 
 C                     0.166    -3.254    -1.565 
 H                    -0.253    -4.239    -1.693 
 S                     2.891    -4.069    -1.756 
 C                     3.977    -2.812    -1.159 
 C                     3.296    -1.555    -0.945 
 H                     4.98     -3.028    -0.82 
 H                     3.713    -0.758    -0.336 
 H                    -3.55      1.09     -0.83 
 H                    -2.35      0.56     -2. 
 H                    -1.88      0.89     -0.31 
 
 The following ModRedundant input section has been read:
 D       2       3       9      10 F                                           
 

 GradGradGradGradGradGradGradGradGradGradGradGradGradGradGradGradGradGrad
 Berny optimization.
 Initialization pass.
                           ----------------------------
                           !    Initial Parameters    !
                           ! (Angstroms and Degrees)  !
 --------------------------                            --------------------------
 ! Name  Definition              Value          Derivative Info.                !
 --------------------------------------------------------------------------------
 ! R1    R(1,2)                  1.4389         estimate D2E/DX2                !
 ! R2    R(1,5)                  1.4361         estimate D2E/DX2                !
 ! R3    R(1,6)                  1.0784         estimate D2E/DX2                !
 ! R4    R(2,3)                  1.46           estimate D2E/DX2                !
 ! R5    R(2,4)                  1.4872         estimate D2E/DX2                !
 ! R6    R(3,7)                  1.797          estimate D2E/DX2                !
 ! R7    R(3,9)                  1.455          estimate D2E/DX2                !
 ! R8    R(4,20)                 1.0924         estimate D2E/DX2                !
 ! R9    R(4,21)                 1.0889         estimate D2E/DX2                !
 ! R10   R(4,22)                 1.0988         estimate D2E/DX2                !
 ! R11   R(5,7)                  1.7393         estimate D2E/DX2                !
 ! R12   R(5,8)                  1.0799         estimate D2E/DX2                !
 ! R13   R(9,10)                 1.7903         estimate D2E/DX2                !
 ! R14   R(9,13)                 1.4644         estimate D2E/DX2                !
 ! R15   R(10,11)                1.7296         estimate D2E/DX2                !
 ! R16   R(11,12)                1.4404         estimate D2E/DX2                !
 ! R17   R(11,17)                1.4259         estimate D2E/DX2                !
 ! R18   R(12,13)                1.4328         estimate D2E/DX2                !
 ! R19   R(12,15)                1.7331         estimate D2E/DX2                !
 ! R20   R(13,14)                1.078          estimate D2E/DX2                !
 ! R21   R(15,16)                1.7652         estimate D2E/DX2                !
 ! R22   R(16,17)                1.4455         estimate D2E/DX2                !
 ! R23   R(16,18)                1.0805         estimate D2E/DX2                !
 ! R24   R(17,19)                1.0863         estimate D2E/DX2                !
 ! A1    A(2,1,5)              112.8843         estimate D2E/DX2                !
 ! A2    A(2,1,6)              124.5209         estimate D2E/DX2                !
 ! A3    A(5,1,6)              122.5942         estimate D2E/DX2                !
 ! A4    A(1,2,3)              112.9799         estimate D2E/DX2                !
 ! A5    A(1,2,4)              120.2665         estimate D2E/DX2                !
 ! A6    A(3,2,4)              126.7536         estimate D2E/DX2                !
 ! A7    A(2,3,7)              109.1138         estimate D2E/DX2                !
 ! A8    A(2,3,9)              132.8639         estimate D2E/DX2                !
 ! A9    A(7,3,9)              118.0132         estimate D2E/DX2                !
 ! A10   A(2,4,20)             111.468          estimate D2E/DX2                !
 ! A11   A(2,4,21)             110.8154         estimate D2E/DX2                !
 ! A12   A(2,4,22)             110.7706         estimate D2E/DX2                !
 ! A13   A(20,4,21)            107.3779         estimate D2E/DX2                !
 ! A14   A(20,4,22)            106.918          estimate D2E/DX2                !
 ! A15   A(21,4,22)            109.3476         estimate D2E/DX2                !
 ! A16   A(1,5,7)              111.9209         estimate D2E/DX2                !
 ! A17   A(1,5,8)              124.6643         estimate D2E/DX2                !
 ! A18   A(7,5,8)              123.4062         estimate D2E/DX2                !
 ! A19   A(3,7,5)               93.0997         estimate D2E/DX2                !
 ! A20   A(3,9,10)             121.9955         estimate D2E/DX2                !
 ! A21   A(3,9,13)             128.3435         estimate D2E/DX2                !
 ! A22   A(10,9,13)            109.6218         estimate D2E/DX2                !
 ! A23   A(9,10,11)             92.762          estimate D2E/DX2                !
 ! A24   A(10,11,12)           112.4071         estimate D2E/DX2                !
 ! A25   A(10,11,17)           128.209          estimate D2E/DX2                !
 ! A26   A(12,11,17)           112.6731         estimate D2E/DX2                !
 ! A27   A(11,12,13)           112.6781         estimate D2E/DX2                !
 ! A28   A(11,12,15)           112.6427         estimate D2E/DX2                !
 ! A29   A(13,12,15)           128.1769         estimate D2E/DX2                !
 ! A30   A(9,13,12)            112.4896         estimate D2E/DX2                !
 ! A31   A(9,13,14)            123.8389         estimate D2E/DX2                !
 ! A32   A(12,13,14)           122.9917         estimate D2E/DX2                !
 ! A33   A(12,15,16)            91.2838         estimate D2E/DX2                !
 ! A34   A(15,16,17)           112.3001         estimate D2E/DX2                !
 ! A35   A(15,16,18)           122.3329         estimate D2E/DX2                !
 ! A36   A(17,16,18)           124.3795         estimate D2E/DX2                !
 ! A37   A(11,17,16)           111.0818         estimate D2E/DX2                !
 ! A38   A(11,17,19)           124.1346         estimate D2E/DX2                !
 ! A39   A(16,17,19)           122.6941         estimate D2E/DX2                !
 ! D1    D(5,1,2,3)              0.3915         estimate D2E/DX2                !
 ! D2    D(5,1,2,4)           -179.5973         estimate D2E/DX2                !
 ! D3    D(6,1,2,3)           -179.8811         estimate D2E/DX2                !
 ! D4    D(6,1,2,4)              0.13           estimate D2E/DX2                !
 ! D5    D(2,1,5,7)             -0.3845         estimate D2E/DX2                !
 ! D6    D(2,1,5,8)           -179.3471         estimate D2E/DX2                !
 ! D7    D(6,1,5,7)            179.8822         estimate D2E/DX2                !
 ! D8    D(6,1,5,8)              0.9196         estimate D2E/DX2                !
 ! D9    D(1,2,3,7)             -0.2224         estimate D2E/DX2                !
 ! D10   D(1,2,3,9)            178.6265         estimate D2E/DX2                !
 ! D11   D(4,2,3,7)            179.7656         estimate D2E/DX2                !
 ! D12   D(4,2,3,9)             -1.3855         estimate D2E/DX2                !
 ! D13   D(1,2,4,20)             2.1641         estimate D2E/DX2                !
 ! D14   D(1,2,4,21)          -117.3645         estimate D2E/DX2                !
 ! D15   D(1,2,4,22)           121.0843         estimate D2E/DX2                !
 ! D16   D(3,2,4,20)          -177.8231         estimate D2E/DX2                !
 ! D17   D(3,2,4,21)            62.6483         estimate D2E/DX2                !
 ! D18   D(3,2,4,22)           -58.9029         estimate D2E/DX2                !
 ! D19   D(2,3,7,5)              0.0033         estimate D2E/DX2                !
 ! D20   D(9,3,7,5)           -179.041          estimate D2E/DX2                !
 ! D21   D(2,3,9,10)            34.9873         Frozen                          !
 ! D22   D(2,3,9,13)          -147.5324         estimate D2E/DX2                !
 ! D23   D(7,3,9,10)          -146.2447         estimate D2E/DX2                !
 ! D24   D(7,3,9,13)            31.2356         estimate D2E/DX2                !
 ! D25   D(1,5,7,3)              0.2153         estimate D2E/DX2                !
 ! D26   D(8,5,7,3)            179.1932         estimate D2E/DX2                !
 ! D27   D(3,9,10,11)          179.7565         estimate D2E/DX2                !
 ! D28   D(13,9,10,11)           1.8544         estimate D2E/DX2                !
 ! D29   D(3,9,13,12)         -179.8461         estimate D2E/DX2                !
 ! D30   D(3,9,13,14)           -9.0651         estimate D2E/DX2                !
 ! D31   D(10,9,13,12)          -2.1147         estimate D2E/DX2                !
 ! D32   D(10,9,13,14)         168.6663         estimate D2E/DX2                !
 ! D33   D(9,10,11,12)          -1.1571         estimate D2E/DX2                !
 ! D34   D(9,10,11,17)        -149.9391         estimate D2E/DX2                !
 ! D35   D(10,11,12,13)          0.1191         estimate D2E/DX2                !
 ! D36   D(10,11,12,15)       -154.0561         estimate D2E/DX2                !
 ! D37   D(17,11,12,13)        153.928          estimate D2E/DX2                !
 ! D38   D(17,11,12,15)         -0.2471         estimate D2E/DX2                !
 ! D39   D(10,11,17,16)        149.8176         estimate D2E/DX2                !
 ! D40   D(10,11,17,19)        -14.0737         estimate D2E/DX2                !
 ! D41   D(12,11,17,16)          1.1027         estimate D2E/DX2                !
 ! D42   D(12,11,17,19)       -162.7886         estimate D2E/DX2                !
 ! D43   D(11,12,13,9)           1.3216         estimate D2E/DX2                !
 ! D44   D(11,12,13,14)       -169.5497         estimate D2E/DX2                !
 ! D45   D(15,12,13,9)         150.5619         estimate D2E/DX2                !
 ! D46   D(15,12,13,14)        -20.3094         estimate D2E/DX2                !
 ! D47   D(11,12,15,16)         -0.5185         estimate D2E/DX2                !
 ! D48   D(13,12,15,16)       -149.7676         estimate D2E/DX2                !
 ! D49   D(12,15,16,17)          1.1516         estimate D2E/DX2                !
 ! D50   D(12,15,16,18)        170.2377         estimate D2E/DX2                !
 ! D51   D(15,16,17,11)         -1.4874         estimate D2E/DX2                !
 ! D52   D(15,16,17,19)        162.6759         estimate D2E/DX2                !
 ! D53   D(18,16,17,11)       -170.3105         estimate D2E/DX2                !
 ! D54   D(18,16,17,19)         -6.1472         estimate D2E/DX2                !
 --------------------------------------------------------------------------------
 Trust Radius=3.00D-01 FncErr=1.00D-07 GrdErr=1.00D-06 EigMax=2.50D+02 EigMin=1.00D-04
 Number of steps in this run=    127 maximum allowed number of steps=    132.
 GradGradGradGradGradGradGradGradGradGradGradGradGradGradGradGradGradGrad

                          Input orientation:                          
 ---------------------------------------------------------------------
 Center     Atomic      Atomic             Coordinates (Angstroms)
 Number     Number       Type             X           Y           Z
 ---------------------------------------------------------------------
      1          6           0       -4.250000   -1.360000   -0.210000
      2          6           0       -2.930000   -0.950000   -0.610000
      3          6           0       -1.970000   -2.050000   -0.620000
      4          6           0       -2.660000    0.470000   -0.960000
      5          6           0       -4.330000   -2.760000    0.100000
      6          1           0       -5.100000   -0.700000   -0.140000
      7         16           0       -2.800000   -3.560000   -0.110000
      8          1           0       -5.230000   -3.270000    0.410000
      9          6           0       -0.560000   -2.130000   -0.970000
     10         16           0        0.577000   -0.787000   -0.640000
     11          6           0        1.920000   -1.649000   -1.307000
     12          6           0        1.555000   -2.965000   -1.765000
     13          6           0        0.166000   -3.254000   -1.565000
     14          1           0       -0.253000   -4.239000   -1.693000
     15         16           0        2.891000   -4.069000   -1.756000
     16          6           0        3.977000   -2.812000   -1.159000
     17          6           0        3.296000   -1.555000   -0.945000
     18          1           0        4.980000   -3.028000   -0.820000
     19          1           0        3.713000   -0.758000   -0.336000
     20          1           0       -3.550000    1.090000   -0.830000
     21          1           0       -2.350000    0.560000   -2.000000
     22          1           0       -1.880000    0.890000   -0.310000
 ---------------------------------------------------------------------
                    Distance matrix (angstroms):
                    1          2          3          4          5
     1  C    0.000000
     2  C    1.438923   0.000000
     3  C    2.417147   1.460034   0.000000
     4  C    2.537617   1.487212   2.634787   0.000000
     5  C    1.436141   2.395871   2.567509   3.787532   0.000000
     6  H    1.078425   2.234346   3.442354   2.827525   2.212261
     7  S    2.636759   2.660639   1.796970   4.121044   1.739253
     8  H    2.234480   3.422397   3.630000   4.740190   1.079907
     9  C    3.845335   2.671872   1.454991   3.342170   3.969219
    10  S    4.879873   3.510914   2.843023   3.487208   5.340316
    11  C    6.273423   4.949435   3.970500   5.058356   6.502036
    12  C    6.220295   5.050691   3.817574   5.496679   6.176850
    13  C    4.992426   3.975633   2.627763   4.713860   4.819780
    14  H    5.144311   4.376841   2.981801   5.339065   4.692997
    15  S    7.792476   6.702650   5.384810   7.214550   7.569746
    16  C    8.407879   7.174615   6.019799   7.406814   8.402026
    17  C    7.584218   6.264290   5.299189   6.290849   7.791016
    18  H    9.399320   8.181093   7.021324   8.403880   9.359184
    19  H    7.986717   6.651420   5.834930   6.520160   8.299876
    20  H    2.622384   2.143455   3.521378   1.092428   4.036806
    21  H    3.240447   2.132745   2.976726   1.088944   4.399182
    22  H    3.269465   2.139650   2.957668   1.098772   4.415099
                    6          7          8          9         10
     6  H    0.000000
     7  S    3.670218   0.000000
     8  H    2.631406   2.501879   0.000000
     9  C    4.831708   2.793224   5.001290   0.000000
    10  S    5.699640   4.401654   6.402268   1.790340   0.000000
    11  C    7.179338   5.230978   7.529823   2.548594   1.729619
    12  C    7.215253   4.696709   7.131611   2.408833   2.639279
    13  C    6.023645   3.317803   5.746103   1.464403   2.666577
    14  H    6.199172   3.074758   5.489271   2.250524   3.703244
    15  S    8.821434   5.946081   8.442784   4.035705   4.167922
    16  C    9.375011   6.898379   9.350956   4.591864   3.991239
    17  C    8.477728   6.471357   8.801700   3.898716   2.841797
    18  H   10.367660   7.830423  10.286669   5.614312   4.943773
    19  H    8.815370   7.093761   9.319008   4.532424   3.150834
    20  H    2.466313   4.764808   4.834211   4.396374   4.537770
    21  H    3.551014   4.555107   5.363898   3.391327   3.497333
    22  H    3.595191   4.548505   5.389480   3.361309   2.993005
                   11         12         13         14         15
    11  C    0.000000
    12  C    1.440432   0.000000
    13  C    2.391465   1.432774   0.000000
    14  H    3.402797   2.212945   1.078040   0.000000
    15  S    2.645910   1.733145   2.850672   3.149223   0.000000
    16  C    2.367641   2.501345   3.857969   4.496041   1.765178
    17  C    1.425923   2.385703   3.614955   4.512068   2.672441
    18  H    3.391520   3.553536   4.876546   5.441777   2.514696
    19  H    2.225213   3.401449   4.507956   5.448666   3.695241
    20  H    6.136004   6.586219   5.763611   6.325600   8.304170
    21  H    4.857245   5.265916   4.589780   5.246147   6.996803
    22  H    4.677663   5.364445   4.788933   5.555759   7.031717
                   16         17         18         19         20
    16  C    0.000000
    17  C    1.445547   0.000000
    18  H    1.080549   2.240806   0.000000
    19  H    2.228439   1.086268   2.644323   0.000000
    20  H    8.484667   7.340093   9.472007   7.510680   0.000000
    21  H    7.218628   6.120749   8.245911   6.423861   1.757783
    22  H    6.980692   5.759533   7.916465   5.830800   1.760483
                   21         22
    21  H    0.000000
    22  H    1.784909   0.000000
 Stoichiometry    C11H8S3
 Framework group  C1[X(C11H8S3)]
 Deg. of freedom    60
 Full point group                 C1      NOp   1
 Largest Abelian subgroup         C1      NOp   1
 Largest concise Abelian subgroup C1      NOp   1
                         Standard orientation:                         
 ---------------------------------------------------------------------
 Center     Atomic      Atomic             Coordinates (Angstroms)
 Number     Number       Type             X           Y           Z
 ---------------------------------------------------------------------
      1          6           0        4.112807    0.196762    0.022545
      2          6           0        2.827979    0.816133    0.212534
      3          6           0        1.715635   -0.113038    0.036375
      4          6           0        2.735245    2.261225    0.551521
      5          6           0        4.017249   -1.197677   -0.307469
      6          1           0        5.057423    0.709675    0.109842
      7         16           0        2.365314   -1.738069   -0.371411
      8          1           0        4.862449   -1.847370   -0.479913
      9          6           0        0.272863    0.037491    0.149295
     10         16           0       -0.563438    1.547489   -0.325913
     11          6           0       -2.118932    0.915611    0.089720
     12          6           0       -2.050689   -0.442127    0.565886
     13          6           0       -0.712375   -0.953288    0.587632
     14          1           0       -0.483892   -1.993299    0.755984
     15         16           0       -3.526413   -1.314082    0.309515
     16          6           0       -4.282733    0.102702   -0.422986
     17          6           0       -3.382948    1.232121   -0.489367
     18          1           0       -5.237340    0.052667   -0.926780
     19          1           0       -3.560109    2.086196   -1.136784
     20          1           0        3.722288    2.728149    0.585105
     21          1           0        2.276040    2.400705    1.529006
     22          1           0        2.151133    2.802365   -0.205632
 ---------------------------------------------------------------------
 Rotational constants (GHZ):           1.1870274           0.2773371           0.2320869
 Standard basis: 6-311+G(d,p) (5D, 7F)
 There are   394 symmetry adapted cartesian basis functions of A   symmetry.
 There are   380 symmetry adapted basis functions of A   symmetry.
   380 basis functions,   610 primitive gaussians,   394 cartesian basis functions
    61 alpha electrons       61 beta electrons
       nuclear repulsion energy      1106.5807309589 Hartrees.
 NAtoms=   22 NActive=   22 NUniq=   22 SFac= 1.00D+00 NAtFMM=   60 NAOKFM=F Big=F
 Integral buffers will be    131072 words long.
 Raffenetti 2 integral format.
 Two-electron integral symmetry is turned on.
 Nuclear repulsion after empirical dispersion term =     1106.5685528458 Hartrees.
 One-electron integrals computed using PRISM.
 NBasis=   380 RedAO= T EigKep=  1.23D-06  NBF=   380
 NBsUse=   379 1.00D-06 EigRej=  3.06D-07 NBFU=   379
 ExpMin= 4.05D-02 ExpMax= 9.34D+04 ExpMxC= 3.17D+03 IAcc=3 IRadAn=         5 AccDes= 0.00D+00
 Harris functional with IExCor= 4639 and IRadAn=       5 diagonalized for initial guess.
 HarFok:  IExCor= 4639 AccDes= 0.00D+00 IRadAn=         5 IDoV= 1 UseB2=F ITyADJ=14
 ICtDFT=  3500011 ScaDFX=  1.000000  1.000000  1.000000  1.000000
 FoFCou: FMM=F IPFlag=           0 FMFlag=      100000 FMFlg1=           0
         NFxFlg=           0 DoJE=T BraDBF=F KetDBF=T FulRan=T
         wScrn=  0.000000 ICntrl=       500 IOpCl=  0 I1Cent=   200000004 NGrid=           0
         NMat0=    1 NMatS0=      1 NMatT0=    0 NMatD0=    1 NMtDS0=    0 NMtDT0=    0
 Petite list used in FoFCou.
 Requested convergence on RMS density matrix=1.00D-08 within 128 cycles.
 Requested convergence on MAX density matrix=1.00D-06.
 Requested convergence on             energy=1.00D-06.
 No special actions if energy rises.
 SCF Done:  E(RwB97XD) =  -1618.46056989     A.U. after   19 cycles
            NFock= 19  Conv=0.32D-08     -V/T= 2.0028

 **********************************************************************

            Population analysis using the SCF Density.

 **********************************************************************

 Orbital symmetries:
       Occupied  (A) (A) (A) (A) (A) (A) (A) (A) (A) (A) (A) (A)
                 (A) (A) (A) (A) (A) (A) (A) (A) (A) (A) (A) (A)
                 (A) (A) (A) (A) (A) (A) (A) (A) (A) (A) (A) (A)
                 (A) (A) (A) (A) (A) (A) (A) (A) (A) (A) (A) (A)
                 (A) (A) (A) (A) (A) (A) (A) (A) (A) (A) (A) (A)
                 (A)
       Virtual   (A) (A) (A) (A) (A) (A) (A) (A) (A) (A) (A) (A)
                 (A) (A) (A) (A) (A) (A) (A) (A) (A) (A) (A) (A)
                 (A) (A) (A) (A) (A) (A) (A) (A) (A) (A) (A) (A)
                 (A) (A) (A) (A) (A) (A) (A) (A) (A) (A) (A) (A)
                 (A) (A) (A) (A) (A) (A) (A) (A) (A) (A) (A) (A)
                 (A) (A) (A) (A) (A) (A) (A) (A) (A) (A) (A) (A)
                 (A) (A) (A) (A) (A) (A) (A) (A) (A) (A) (A) (A)
                 (A) (A) (A) (A) (A) (A) (A) (A) (A) (A) (A) (A)
                 (A) (A) (A) (A) (A) (A) (A) (A) (A) (A) (A) (A)
                 (A) (A) (A) (A) (A) (A) (A) (A) (A) (A) (A) (A)
                 (A) (A) (A) (A) (A) (A) (A) (A) (A) (A) (A) (A)
                 (A) (A) (A) (A) (A) (A) (A) (A) (A) (A) (A) (A)
                 (A) (A) (A) (A) (A) (A) (A) (A) (A) (A) (A) (A)
                 (A) (A) (A) (A) (A) (A) (A) (A) (A) (A) (A) (A)
                 (A) (A) (A) (A) (A) (A) (A) (A) (A) (A) (A) (A)
                 (A) (A) (A) (A) (A) (A) (A) (A) (A) (A) (A) (A)
                 (A) (A) (A) (A) (A) (A) (A) (A) (A) (A) (A) (A)
                 (A) (A) (A) (A) (A) (A) (A) (A) (A) (A) (A) (A)
                 (A) (A) (A) (A) (A) (A) (A) (A) (A) (A) (A) (A)
                 (A) (A) (A) (A) (A) (A) (A) (A) (A) (A) (A) (A)
                 (A) (A) (A) (A) (A) (A) (A) (A) (A) (A) (A) (A)
                 (A) (A) (A) (A) (A) (A) (A) (A) (A) (A) (A) (A)
                 (A) (A) (A) (A) (A) (A) (A) (A) (A) (A) (A) (A)
                 (A) (A) (A) (A) (A) (A) (A) (A) (A) (A) (A) (A)
                 (A) (A) (A) (A) (A) (A) (A) (A) (A) (A) (A) (A)
                 (A) (A) (A) (A) (A) (A) (A) (A) (A) (A) (A) (A)
                 (A) (A) (A) (A) (A) (A)
 The electronic state is 1-A.
 Alpha  occ. eigenvalues --  -89.05874 -89.05710 -89.05653 -10.35543 -10.34484
 Alpha  occ. eigenvalues --  -10.33622 -10.33524 -10.33444 -10.32968 -10.32010
 Alpha  occ. eigenvalues --  -10.31790 -10.31744 -10.30440 -10.28815  -8.09816
 Alpha  occ. eigenvalues --   -8.09662  -8.09535  -6.04668  -6.04526  -6.04376
 Alpha  occ. eigenvalues --   -6.04304  -6.04154  -6.03998  -6.03882  -6.03708
 Alpha  occ. eigenvalues --   -6.03653  -1.00778  -0.97676  -0.93573  -0.87694
 Alpha  occ. eigenvalues --   -0.87189  -0.84697  -0.80735  -0.79199  -0.76864
 Alpha  occ. eigenvalues --   -0.70411  -0.66955  -0.65830  -0.62167  -0.60816
 Alpha  occ. eigenvalues --   -0.58115  -0.57797  -0.52841  -0.52156  -0.51844
 Alpha  occ. eigenvalues --   -0.50299  -0.49627  -0.47843  -0.47496  -0.47099
 Alpha  occ. eigenvalues --   -0.46129  -0.45162  -0.44776  -0.43034  -0.42139
 Alpha  occ. eigenvalues --   -0.41368  -0.37256  -0.33225  -0.32849  -0.30696
 Alpha  occ. eigenvalues --   -0.26268
 Alpha virt. eigenvalues --   -0.01084   0.03198   0.05195   0.05754   0.06041
 Alpha virt. eigenvalues --    0.06436   0.06895   0.07071   0.07524   0.08613
 Alpha virt. eigenvalues --    0.08690   0.08988   0.09124   0.09924   0.10338
 Alpha virt. eigenvalues --    0.10653   0.10975   0.11525   0.11720   0.11948
 Alpha virt. eigenvalues --    0.12718   0.12735   0.13286   0.13702   0.14067
 Alpha virt. eigenvalues --    0.14932   0.15566   0.15700   0.16454   0.16795
 Alpha virt. eigenvalues --    0.17199   0.17950   0.18168   0.18672   0.18829
 Alpha virt. eigenvalues --    0.19487   0.19880   0.20597   0.20825   0.21336
 Alpha virt. eigenvalues --    0.21581   0.22146   0.22250   0.22760   0.22865
 Alpha virt. eigenvalues --    0.23414   0.23865   0.24292   0.24884   0.24980
 Alpha virt. eigenvalues --    0.25670   0.25790   0.26138   0.26318   0.26597
 Alpha virt. eigenvalues --    0.26979   0.27247   0.27652   0.27894   0.28590
 Alpha virt. eigenvalues --    0.28877   0.29324   0.30029   0.30317   0.30774
 Alpha virt. eigenvalues --    0.31113   0.31243   0.31760   0.32501   0.32995
 Alpha virt. eigenvalues --    0.33613   0.34017   0.34840   0.35390   0.36295
 Alpha virt. eigenvalues --    0.36479   0.37813   0.38078   0.39028   0.39807
 Alpha virt. eigenvalues --    0.41520   0.41671   0.42347   0.42641   0.43814
 Alpha virt. eigenvalues --    0.44352   0.45627   0.47383   0.48816   0.49637
 Alpha virt. eigenvalues --    0.50317   0.51930   0.52528   0.53556   0.54763
 Alpha virt. eigenvalues --    0.55987   0.59961   0.61154   0.62113   0.63247
 Alpha virt. eigenvalues --    0.63283   0.63559   0.64285   0.64613   0.65040
 Alpha virt. eigenvalues --    0.65889   0.66687   0.68409   0.69487   0.69646
 Alpha virt. eigenvalues --    0.70250   0.71151   0.71689   0.72881   0.74590
 Alpha virt. eigenvalues --    0.74667   0.75724   0.76931   0.76962   0.77643
 Alpha virt. eigenvalues --    0.78187   0.78860   0.79581   0.79791   0.81028
 Alpha virt. eigenvalues --    0.81549   0.82479   0.83301   0.84048   0.84256
 Alpha virt. eigenvalues --    0.85560   0.86102   0.86699   0.87540   0.89652
 Alpha virt. eigenvalues --    0.90090   0.90244   0.91304   0.92139   0.93143
 Alpha virt. eigenvalues --    0.94344   0.95223   0.97310   0.97725   0.98623
 Alpha virt. eigenvalues --    0.99027   1.00165   1.01376   1.01977   1.02507
 Alpha virt. eigenvalues --    1.03736   1.04432   1.05548   1.06296   1.07954
 Alpha virt. eigenvalues --    1.08016   1.09878   1.10047   1.11539   1.13981
 Alpha virt. eigenvalues --    1.14921   1.15052   1.17204   1.19282   1.22442
 Alpha virt. eigenvalues --    1.26032   1.27744   1.28945   1.34043   1.36719
 Alpha virt. eigenvalues --    1.39634   1.42427   1.44138   1.45076   1.49002
 Alpha virt. eigenvalues --    1.49341   1.51487   1.55426   1.56165   1.56461
 Alpha virt. eigenvalues --    1.60371   1.61253   1.62488   1.64071   1.64677
 Alpha virt. eigenvalues --    1.66304   1.66622   1.67574   1.69679   1.70410
 Alpha virt. eigenvalues --    1.72483   1.73108   1.73667   1.74767   1.76118
 Alpha virt. eigenvalues --    1.77684   1.79065   1.80213   1.81191   1.82822
 Alpha virt. eigenvalues --    1.83227   1.85459   1.87396   1.88706   1.89312
 Alpha virt. eigenvalues --    1.90027   1.91426   1.93291   1.95137   1.96615
 Alpha virt. eigenvalues --    1.98349   1.99385   2.02799   2.03186   2.03815
 Alpha virt. eigenvalues --    2.05050   2.07209   2.08728   2.08836   2.11440
 Alpha virt. eigenvalues --    2.11814   2.14259   2.15553   2.15577   2.17646
 Alpha virt. eigenvalues --    2.18906   2.19782   2.20939   2.22491   2.23141
 Alpha virt. eigenvalues --    2.24992   2.27150   2.30187   2.35926   2.37863
 Alpha virt. eigenvalues --    2.43824   2.45095   2.46256   2.48964   2.52887
 Alpha virt. eigenvalues --    2.53879   2.55927   2.60509   2.60942   2.63875
 Alpha virt. eigenvalues --    2.65761   2.69445   2.69690   2.74354   2.74879
 Alpha virt. eigenvalues --    2.78298   2.78593   2.81410   2.81985   2.82364
 Alpha virt. eigenvalues --    2.83435   2.85350   2.87686   2.90797   2.91698
 Alpha virt. eigenvalues --    2.93665   2.97012   3.02221   3.02991   3.04472
 Alpha virt. eigenvalues --    3.07731   3.09569   3.10366   3.13344   3.13932
 Alpha virt. eigenvalues --    3.15960   3.21507   3.26476   3.31726   3.35890
 Alpha virt. eigenvalues --    3.37571   3.41789   3.46279   3.49226   3.50247
 Alpha virt. eigenvalues --    3.57487   3.67279   3.75195   3.90113   3.91831
 Alpha virt. eigenvalues --    4.01831   4.05133   4.14861   4.20630   4.40844
 Alpha virt. eigenvalues --    4.43749   4.57905   8.06115   8.07786   8.09103
 Alpha virt. eigenvalues --   17.42149  17.42634  17.44132  17.56310  17.59518
 Alpha virt. eigenvalues --   17.60984  17.62524  17.64346  17.66534  23.61029
 Alpha virt. eigenvalues --   23.74122  23.86710  23.90622  23.94934  23.99312
 Alpha virt. eigenvalues --   24.01324  24.07266  24.09057  24.09290  24.12044
 Alpha virt. eigenvalues --  189.30562 189.32661 189.34376
          Condensed to atoms (all electrons):
               1          2          3          4          5          6
     1  C   12.551471  -9.065215   8.027742  -1.880118  -1.166423   0.322688
     2  C   -9.065215  33.379001 -27.700769   2.777162   3.230360   0.025514
     3  C    8.027742 -27.700769  40.916154  -6.302191  -3.398637  -0.032470
     4  C   -1.880118   2.777162  -6.302191   9.473096   0.291464   0.018762
     5  C   -1.166423   3.230360  -3.398637   0.291464   6.299054   0.005862
     6  H    0.322688   0.025514  -0.032470   0.018762   0.005862   0.491269
     7  S   -1.011740  -0.206873  -1.183274   0.687081   0.001298   0.007149
     8  H    0.030836  -0.029277   0.004113   0.002293   0.386895  -0.003213
     9  C   -1.229984   1.891467  -2.545473   0.308026   0.426678   0.002775
    10  S   -0.081618   0.825256  -0.131414  -0.174364   0.082395   0.000296
    11  C    0.000113  -0.670339  -0.023896   0.113990  -0.066301   0.000103
    12  C   -0.121215   1.212049  -0.906479   0.072238   0.084884  -0.000078
    13  C    0.083054  -0.256914  -0.910776   0.263564  -0.214118   0.000056
    14  H    0.000089  -0.044763   0.044252  -0.003284   0.000727   0.000000
    15  S    0.004452   0.082905  -0.065125   0.001774  -0.001628  -0.000003
    16  C    0.001235  -0.044525   0.009687  -0.008009  -0.000856   0.000001
    17  C    0.009513  -0.240896   0.357464   0.009438  -0.007991  -0.000000
    18  H   -0.000001   0.000161   0.000160   0.000007   0.000001  -0.000000
    19  H    0.000023   0.000152  -0.000742  -0.000172   0.000001  -0.000000
    20  H    0.050543  -0.059007  -0.088387   0.442193   0.021188   0.001581
    21  H   -0.015196   0.021757  -0.066870   0.423734   0.003014   0.000115
    22  H   -0.044660  -0.066221   0.190079   0.266256  -0.009363   0.000178
               7          8          9         10         11         12
     1  C   -1.011740   0.030836  -1.229984  -0.081618   0.000113  -0.121215
     2  C   -0.206873  -0.029277   1.891467   0.825256  -0.670339   1.212049
     3  C   -1.183274   0.004113  -2.545473  -0.131414  -0.023896  -0.906479
     4  C    0.687081   0.002293   0.308026  -0.174364   0.113990   0.072238
     5  C    0.001298   0.386895   0.426678   0.082395  -0.066301   0.084884
     6  H    0.007149  -0.003213   0.002775   0.000296   0.000103  -0.000078
     7  S   17.911407  -0.020807   0.203245  -0.097801   0.257253  -0.435265
     8  H   -0.020807   0.443724  -0.006852  -0.000392  -0.000044   0.000134
     9  C    0.203245  -0.006852  10.147487   0.273669  -0.912161   0.538150
    10  S   -0.097801  -0.000392   0.273669  17.665140  -1.085427   1.368089
    11  C    0.257253  -0.000044  -0.912161  -1.085427  13.795601  -4.857430
    12  C   -0.435265   0.000134   0.538150   1.368089  -4.857430  16.346085
    13  C    0.363877   0.000403  -3.211919  -2.209155   1.177315  -5.738898
    14  H    0.004840  -0.000001   0.115445   0.010575  -0.042918   0.110993
    15  S   -0.040638   0.000012  -0.323317   0.195237   0.913636  -0.718560
    16  C    0.002570  -0.000000   0.229015  -0.008294   0.806016  -0.341997
    17  C    0.089439  -0.000009  -0.027290  -0.137257  -3.499065  -0.621469
    18  H   -0.000046   0.000000  -0.004719   0.000532  -0.036506   0.018033
    19  H   -0.000046   0.000000   0.005524   0.010066   0.005467  -0.024162
    20  H   -0.003384  -0.000019   0.005934   0.001966  -0.001866   0.001760
    21  H    0.003301  -0.000000   0.001303  -0.001375   0.000816  -0.006619
    22  H    0.004019   0.000000  -0.011206   0.009815   0.009421  -0.005496
              13         14         15         16         17         18
     1  C    0.083054   0.000089   0.004452   0.001235   0.009513  -0.000001
     2  C   -0.256914  -0.044763   0.082905  -0.044525  -0.240896   0.000161
     3  C   -0.910776   0.044252  -0.065125   0.009687   0.357464   0.000160
     4  C    0.263564  -0.003284   0.001774  -0.008009   0.009438   0.000007
     5  C   -0.214118   0.000727  -0.001628  -0.000856  -0.007991   0.000001
     6  H    0.000056   0.000000  -0.000003   0.000001  -0.000000  -0.000000
     7  S    0.363877   0.004840  -0.040638   0.002570   0.089439  -0.000046
     8  H    0.000403  -0.000001   0.000012  -0.000000  -0.000009   0.000000
     9  C   -3.211919   0.115445  -0.323317   0.229015  -0.027290  -0.004719
    10  S   -2.209155   0.010575   0.195237  -0.008294  -0.137257   0.000532
    11  C    1.177315  -0.042918   0.913636   0.806016  -3.499065  -0.036506
    12  C   -5.738898   0.110993  -0.718560  -0.341997  -0.621469   0.018033
    13  C   15.512616   0.165501  -0.111205  -0.547419   1.091376   0.018818
    14  H    0.165501   0.476183  -0.002323   0.003243  -0.010684  -0.000005
    15  S   -0.111205  -0.002323  16.625808   0.480705  -0.866276  -0.022362
    16  C   -0.547419   0.003243   0.480705   5.621235  -0.205069   0.363311
    17  C    1.091376  -0.010684  -0.866276  -0.205069   9.860625   0.025061
    18  H    0.018818  -0.000005  -0.022362   0.363311   0.025061   0.438550
    19  H   -0.000496   0.000007  -0.000965   0.013323   0.351191  -0.002668
    20  H   -0.000651  -0.000001   0.000018   0.000003  -0.000148   0.000000
    21  H   -0.006946   0.000001  -0.000149  -0.000063   0.001528   0.000000
    22  H    0.003824   0.000013  -0.000135   0.000149   0.000336  -0.000000
              19         20         21         22
     1  C    0.000023   0.050543  -0.015196  -0.044660
     2  C    0.000152  -0.059007   0.021757  -0.066221
     3  C   -0.000742  -0.088387  -0.066870   0.190079
     4  C   -0.000172   0.442193   0.423734   0.266256
     5  C    0.000001   0.021188   0.003014  -0.009363
     6  H   -0.000000   0.001581   0.000115   0.000178
     7  S   -0.000046  -0.003384   0.003301   0.004019
     8  H    0.000000  -0.000019  -0.000000   0.000000
     9  C    0.005524   0.005934   0.001303  -0.011206
    10  S    0.010066   0.001966  -0.001375   0.009815
    11  C    0.005467  -0.001866   0.000816   0.009421
    12  C   -0.024162   0.001760  -0.006619  -0.005496
    13  C   -0.000496  -0.000651  -0.006946   0.003824
    14  H    0.000007  -0.000001   0.000001   0.000013
    15  S   -0.000965   0.000018  -0.000149  -0.000135
    16  C    0.013323   0.000003  -0.000063   0.000149
    17  C    0.351191  -0.000148   0.001528   0.000336
    18  H   -0.002668   0.000000   0.000000  -0.000000
    19  H    0.475152   0.000000  -0.000000  -0.000002
    20  H    0.000000   0.514861  -0.022081  -0.025122
    21  H   -0.000000  -0.022081   0.485090  -0.023916
    22  H   -0.000002  -0.025122  -0.023916   0.524085
 Mulliken charges:
               1
     1  C   -0.465589
     2  C    0.939016
     3  C   -0.193148
     4  C   -0.782938
     5  C    0.031496
     6  H    0.159418
     7  S   -0.535605
     8  H    0.192203
     9  C    0.124203
    10  S   -0.515939
    11  C    0.116224
    12  C    0.025252
    13  C    0.528093
    14  H    0.172111
    15  S   -0.151861
    16  C   -0.374261
    17  C   -0.179817
    18  H    0.201674
    19  H    0.168347
    20  H    0.160620
    21  H    0.202555
    22  H    0.177946
 Sum of Mulliken charges =  -0.00000
 Mulliken charges with hydrogens summed into heavy atoms:
               1
     1  C   -0.306171
     2  C    0.939016
     3  C   -0.193148
     4  C   -0.241817
     5  C    0.223699
     7  S   -0.535605
     9  C    0.124203
    10  S   -0.515939
    11  C    0.116224
    12  C    0.025252
    13  C    0.700204
    15  S   -0.151861
    16  C   -0.172587
    17  C   -0.011471
 Electronic spatial extent (au):  <R**2>=           4441.0360
 Charge=             -0.0000 electrons
 Dipole moment (field-independent basis, Debye):
    X=              0.7499    Y=              0.4868    Z=             -0.8260  Tot=              1.2172
 Quadrupole moment (field-independent basis, Debye-Ang):
   XX=            -88.0367   YY=            -97.2883   ZZ=           -108.1444
   XY=              0.6302   XZ=              5.2767   YZ=             -1.3582
 Traceless Quadrupole moment (field-independent basis, Debye-Ang):
   XX=              9.7864   YY=              0.5349   ZZ=            -10.3213
   XY=              0.6302   XZ=              5.2767   YZ=             -1.3582
 Octapole moment (field-independent basis, Debye-Ang**2):
  XXX=             22.8370  YYY=             -2.2397  ZZZ=             -1.9692  XYY=             10.6148
  XXY=              1.1097  XXZ=            -29.2039  XZZ=             -6.1350  YZZ=              3.0084
  YYZ=             -3.9264  XYZ=             13.0204
 Hexadecapole moment (field-independent basis, Debye-Ang**3):
 XXXX=          -4308.3578 YYYY=          -1123.1841 ZZZZ=           -240.9271 XXXY=             -6.6994
 XXXZ=            121.6006 YYYX=             -7.1071 YYYZ=            -12.4672 ZZZX=             11.1454
 ZZZY=              0.3263 XXYY=           -932.1548 XXZZ=           -897.6135 YYZZ=           -229.0919
 XXYZ=              8.0031 YYXZ=              9.1068 ZZXY=              0.6951
 N-N= 1.106568552846D+03 E-N=-6.036253032068D+03  KE= 1.613976893810D+03
 Calling FoFJK, ICntrl=      2127 FMM=F ISym2X=0 I1Cent= 0 IOpClX= 0 NMat=1 NMatS=1 NMatT=0.
 ***** Axes restored to original set *****
 -------------------------------------------------------------------
 Center     Atomic                   Forces (Hartrees/Bohr)
 Number     Number              X              Y              Z
 -------------------------------------------------------------------
      1        6           0.024031195   -0.063208565    0.008574023
      2        6           0.015108541   -0.048379928    0.007800935
      3        6          -0.049918608    0.019176462    0.005894259
      4        6           0.008510341    0.006648640    0.002240663
      5        6           0.013463266    0.053996355   -0.016563789
      6        1          -0.000870641    0.001978568   -0.000175190
      7       16          -0.004715549    0.029319028   -0.003703661
      8        1           0.002987333   -0.004514364    0.000366088
      9        6           0.040436978   -0.035483261   -0.025660997
     10       16          -0.014310682   -0.011895189   -0.012315799
     11        6           0.003675813   -0.039975773    0.001588438
     12        6          -0.014745772    0.029093324    0.029024479
     13        6          -0.018393990    0.053747854    0.024207245
     14        1          -0.006092396    0.000441781   -0.004549695
     15       16           0.013112986    0.020120293   -0.000025853
     16        6          -0.040366764    0.050204852    0.010348902
     17        6           0.021792619   -0.058981714   -0.004861862
     18        1           0.001070965   -0.002306181   -0.006831363
     19        1           0.002983982    0.000230408   -0.008772578
     20        1          -0.000667387   -0.002550508    0.000435678
     21        1           0.004175255    0.001959932   -0.002015946
     22        1          -0.001267485    0.000377986   -0.005003980
 -------------------------------------------------------------------
 Cartesian Forces:  Max     0.063208565 RMS     0.023043046

 GradGradGradGradGradGradGradGradGradGradGradGradGradGradGradGradGradGrad
 Berny optimization.
 FormGI is forming the generalized inverse of G from B-inverse, IUseBI=4.
 Internal  Forces:  Max     0.069547950 RMS     0.014011250
 Search for a local minimum.
 Step number   1 out of a maximum of  127
 All quantities printed in internal units (Hartrees-Bohrs-Radians)
 Mixed Optimization -- RFO/linear search
 Second derivative matrix not updated -- first step.
 ITU=  0
     Eigenvalues ---    0.00935   0.00982   0.01057   0.01215   0.01241
     Eigenvalues ---    0.01275   0.01296   0.01418   0.01457   0.01492
     Eigenvalues ---    0.01498   0.01592   0.01596   0.01767   0.02200
     Eigenvalues ---    0.02652   0.07307   0.07353   0.15082   0.15684
     Eigenvalues ---    0.15736   0.15997   0.16000   0.16000   0.16000
     Eigenvalues ---    0.16000   0.18002   0.22443   0.22545   0.23319
     Eigenvalues ---    0.23980   0.24718   0.24978   0.24995   0.25000
     Eigenvalues ---    0.26147   0.26548   0.28387   0.30920   0.31247
     Eigenvalues ---    0.31609   0.33757   0.33818   0.34533   0.34839
     Eigenvalues ---    0.34935   0.35247   0.35877   0.35928   0.36006
     Eigenvalues ---    0.36185   0.36232   0.36325   0.37598   0.38245
     Eigenvalues ---    0.38438   0.39458   0.39681   0.406441000.00000
     Eigenvalues --- 1000.000001000.000001000.000001000.000001000.00000
     Eigenvalues --- 1000.000001000.000001000.000001000.000001000.00000
     Eigenvalues --- 1000.000001000.000001000.000001000.000001000.00000
     Eigenvalues --- 1000.000001000.000001000.000001000.000001000.00000
     Eigenvalues --- 1000.000001000.000001000.000001000.000001000.00000
     Eigenvalues --- 1000.000001000.000001000.000001000.000001000.00000
     Eigenvalues --- 1000.000001000.000001000.000001000.000001000.00000
     Eigenvalues --- 1000.000001000.000001000.000001000.000001000.00000
     Eigenvalues --- 1000.000001000.000001000.000001000.000001000.00000
     Eigenvalues --- 1000.000001000.000001000.000001000.000001000.00000
     Eigenvalues --- 1000.000001000.000001000.000001000.000001000.00000
     Eigenvalues --- 1000.000001000.00000
 RFO step:  Lambda=-6.02887012D-02 EMin= 9.35106172D-03
 Linear search not attempted -- first point.
 Maximum step size (   0.300) exceeded in Quadratic search.
    -- Step size scaled by   0.818
 Iteration  1 RMS(Cart)=  0.08313756 RMS(Int)=  0.00199335
 Iteration  2 RMS(Cart)=  0.00307800 RMS(Int)=  0.00050429
 Iteration  3 RMS(Cart)=  0.00000442 RMS(Int)=  0.00050428
 Iteration  4 RMS(Cart)=  0.00000000 RMS(Int)=  0.00050428
 Iteration  1 RMS(Cart)=  0.00001127 RMS(Int)=  0.00000472
 Iteration  2 RMS(Cart)=  0.00000615 RMS(Int)=  0.00000528
 Iteration  3 RMS(Cart)=  0.00000336 RMS(Int)=  0.00000596
 Iteration  4 RMS(Cart)=  0.00000183 RMS(Int)=  0.00000641
 Iteration  5 RMS(Cart)=  0.00000100 RMS(Int)=  0.00000668
 Iteration  6 RMS(Cart)=  0.00000055 RMS(Int)=  0.00000683
 Variable       Old X    -DE/DX   Delta X   Delta X   Delta X     New X
                                 (Linear)    (Quad)   (Total)
    R1        2.71917  -0.01755   0.00000  -0.03346  -0.03341   2.68576
    R2        2.71391  -0.05814   0.00000  -0.10431  -0.10437   2.60954
    R3        2.03793   0.00189   0.00000   0.00365   0.00365   2.04158
    R4        2.75906  -0.06432   0.00000  -0.12285  -0.12274   2.63632
    R5        2.81042   0.00912   0.00000   0.01875   0.01875   2.82917
    R6        3.39578  -0.02759   0.00000  -0.06710  -0.06707   3.32871
    R7        2.74954  -0.01130   0.00000  -0.02120  -0.02120   2.72834
    R8        2.06439  -0.00085   0.00000  -0.00172  -0.00172   2.06267
    R9        2.05781   0.00327   0.00000   0.00654   0.00654   2.06435
   R10        2.07638  -0.00372   0.00000  -0.00763  -0.00763   2.06875
   R11        3.28671  -0.02194   0.00000  -0.04635  -0.04645   3.24026
   R12        2.04073  -0.00025   0.00000  -0.00049  -0.00049   2.04024
   R13        3.38325  -0.01862   0.00000  -0.04213  -0.04264   3.34061
   R14        2.76732  -0.06955   0.00000  -0.13372  -0.13399   2.63333
   R15        3.26851  -0.00537   0.00000  -0.01033  -0.01025   3.25826
   R16        2.72202  -0.03995   0.00000  -0.07570  -0.07472   2.64730
   R17        2.69460  -0.00321   0.00000  -0.00799  -0.00758   2.68703
   R18        2.70755  -0.01274   0.00000  -0.02504  -0.02473   2.68282
   R19        3.27517  -0.00477   0.00000  -0.00855  -0.00862   3.26655
   R20        2.03720   0.00250   0.00000   0.00485   0.00485   2.04205
   R21        3.33570  -0.01782   0.00000  -0.03860  -0.03913   3.29658
   R22        2.73169  -0.06589   0.00000  -0.12056  -0.12072   2.61097
   R23        2.04194  -0.00069   0.00000  -0.00134  -0.00134   2.04060
   R24        2.05275  -0.00360   0.00000  -0.00714  -0.00714   2.04561
    A1        1.97020   0.00720   0.00000   0.01516   0.01514   1.98535
    A2        2.17330  -0.00469   0.00000  -0.01162  -0.01162   2.16169
    A3        2.13967  -0.00251   0.00000  -0.00352  -0.00352   2.13615
    A4        1.97187  -0.00281   0.00000  -0.01147  -0.01132   1.96055
    A5        2.09905   0.01158   0.00000   0.03256   0.03248   2.13152
    A6        2.21227  -0.00877   0.00000  -0.02109  -0.02117   2.19110
    A7        1.90440   0.00625   0.00000   0.01808   0.01821   1.92260
    A8        2.31891  -0.00940   0.00000  -0.02563  -0.02570   2.29322
    A9        2.05972   0.00315   0.00000   0.00747   0.00740   2.06712
   A10        1.94548  -0.00423   0.00000  -0.01483  -0.01478   1.93070
   A11        1.93409   0.00259   0.00000   0.00911   0.00912   1.94321
   A12        1.93331   0.00386   0.00000   0.01397   0.01399   1.94730
   A13        1.87410   0.00121   0.00000   0.00520   0.00523   1.87933
   A14        1.86607   0.00068   0.00000   0.00348   0.00354   1.86961
   A15        1.90848  -0.00433   0.00000  -0.01774  -0.01777   1.89071
   A16        1.95339  -0.00265   0.00000  -0.00841  -0.00857   1.94482
   A17        2.17580   0.00686   0.00000   0.02481   0.02488   2.20068
   A18        2.15384  -0.00420   0.00000  -0.01629  -0.01622   2.13763
   A19        1.62490  -0.00799   0.00000  -0.01332  -0.01345   1.61144
   A20        2.12922  -0.00326   0.00000  -0.00852  -0.00855   2.12067
   A21        2.24002  -0.00420   0.00000  -0.01103  -0.01107   2.22895
   A22        1.91326   0.00752   0.00000   0.02003   0.02002   1.93328
   A23        1.61900  -0.00602   0.00000  -0.01196  -0.01162   1.60738
   A24        1.96187  -0.01085   0.00000  -0.02376  -0.02457   1.93731
   A25        2.23767   0.00834   0.00000   0.03987   0.03805   2.27572
   A26        1.96652   0.00622   0.00000   0.01623   0.01644   1.98296
   A27        1.96660   0.00791   0.00000   0.01973   0.01966   1.98626
   A28        1.96599  -0.01330   0.00000  -0.02936  -0.03012   1.93587
   A29        2.23711   0.00917   0.00000   0.04214   0.04041   2.27752
   A30        1.96331   0.00147   0.00000  -0.00375  -0.00323   1.96008
   A31        2.16140  -0.00427   0.00000  -0.00923  -0.00990   2.15150
   A32        2.14661   0.00337   0.00000   0.01928   0.01861   2.16522
   A33        1.59320   0.00074   0.00000   0.00410   0.00447   1.59767
   A34        1.96001   0.00151   0.00000   0.00290   0.00266   1.96267
   A35        2.13511  -0.00434   0.00000  -0.01162  -0.01244   2.12267
   A36        2.17083   0.00391   0.00000   0.01970   0.01900   2.18983
   A37        1.93874   0.00483   0.00000   0.00607   0.00648   1.94522
   A38        2.16656   0.00041   0.00000   0.01389   0.01250   2.17906
   A39        2.14142  -0.00335   0.00000  -0.00098  -0.00244   2.13897
    D1        0.00683  -0.00017   0.00000  -0.00329  -0.00334   0.00349
    D2       -3.13456  -0.00054   0.00000  -0.00757  -0.00768   3.14094
    D3       -3.13952   0.00020   0.00000   0.00152   0.00149  -3.13803
    D4        0.00227  -0.00017   0.00000  -0.00276  -0.00285  -0.00058
    D5       -0.00671   0.00069   0.00000   0.00746   0.00744   0.00073
    D6       -3.13020   0.00006   0.00000   0.00090   0.00088  -3.12931
    D7        3.13954   0.00034   0.00000   0.00278   0.00272  -3.14093
    D8        0.01605  -0.00030   0.00000  -0.00378  -0.00384   0.01221
    D9       -0.00388  -0.00034   0.00000  -0.00205  -0.00206  -0.00594
   D10        3.11762  -0.00018   0.00000  -0.00662  -0.00661   3.11101
   D11        3.13750   0.00006   0.00000   0.00258   0.00246   3.13996
   D12       -0.02418   0.00022   0.00000  -0.00199  -0.00209  -0.02627
   D13        0.03777  -0.00022   0.00000  -0.00227  -0.00226   0.03551
   D14       -2.04840  -0.00069   0.00000  -0.00513  -0.00510  -2.05350
   D15        2.11332   0.00042   0.00000   0.00166   0.00164   2.11496
   D16       -3.10360  -0.00064   0.00000  -0.00720  -0.00719  -3.11079
   D17        1.09342  -0.00111   0.00000  -0.01006  -0.01003   1.08338
   D18       -1.02805  -0.00000   0.00000  -0.00326  -0.00329  -1.03134
   D19        0.00006   0.00066   0.00000   0.00541   0.00537   0.00543
   D20       -3.12486   0.00070   0.00000   0.00967   0.00971  -3.11514
   D21        0.61064  -0.00138   0.00000   0.00000  -0.00000   0.61064
   D22       -2.57493   0.00076   0.00000   0.01585   0.01588  -2.55904
   D23       -2.55245  -0.00120   0.00000  -0.00484  -0.00480  -2.55725
   D24        0.54516   0.00094   0.00000   0.01101   0.01108   0.55625
   D25        0.00376  -0.00077   0.00000  -0.00738  -0.00727  -0.00352
   D26        3.12751  -0.00001   0.00000  -0.00042  -0.00050   3.12702
   D27        3.13734   0.00071   0.00000   0.00601   0.00597  -3.13987
   D28        0.03236  -0.00084   0.00000  -0.00660  -0.00687   0.02549
   D29       -3.13891  -0.00116   0.00000  -0.00775  -0.00758   3.13670
   D30       -0.15822   0.00312   0.00000   0.03647   0.03639  -0.12182
   D31       -0.03691   0.00058   0.00000   0.00602   0.00640  -0.03051
   D32        2.94378   0.00485   0.00000   0.05024   0.05037   2.99415
   D33       -0.02020   0.00132   0.00000   0.00663   0.00654  -0.01365
   D34       -2.61693  -0.00753   0.00000  -0.06440  -0.06469  -2.68162
   D35        0.00208  -0.00083   0.00000  -0.00354  -0.00338  -0.00130
   D36       -2.68879  -0.01043   0.00000  -0.07529  -0.07340  -2.76218
   D37        2.68655   0.00831   0.00000   0.06621   0.06486   2.75141
   D38       -0.00431  -0.00130   0.00000  -0.00555  -0.00516  -0.00947
   D39        2.61481   0.00571   0.00000   0.06668   0.06794   2.68275
   D40       -0.24563  -0.00091   0.00000  -0.00431  -0.00374  -0.24937
   D41        0.01925   0.00113   0.00000   0.00553   0.00526   0.02450
   D42       -2.84120  -0.00549   0.00000  -0.06545  -0.06642  -2.90762
   D43        0.02307   0.00020   0.00000  -0.00173  -0.00203   0.02104
   D44       -2.95920  -0.00322   0.00000  -0.04250  -0.04335  -3.00255
   D45        2.62780   0.00442   0.00000   0.05950   0.06088   2.68868
   D46       -0.35447   0.00100   0.00000   0.01873   0.01956  -0.33491
   D47       -0.00905   0.00113   0.00000   0.00354   0.00338  -0.00567
   D48       -2.61394  -0.00836   0.00000  -0.06986  -0.06988  -2.68381
   D49        0.02010  -0.00035   0.00000  -0.00013  -0.00019   0.01991
   D50        2.97121   0.00604   0.00000   0.06226   0.06158   3.03279
   D51       -0.02596  -0.00025   0.00000  -0.00277  -0.00249  -0.02845
   D52        2.83923   0.00694   0.00000   0.06980   0.07005   2.90928
   D53       -2.97248  -0.00573   0.00000  -0.06259  -0.06294  -3.03542
   D54       -0.10729   0.00146   0.00000   0.00998   0.00960  -0.09769
         Item               Value     Threshold  Converged?
 Maximum Force            0.069546     0.000450     NO 
 RMS     Force            0.014070     0.000300     NO 
 Maximum Displacement     0.292473     0.001800     NO 
 RMS     Displacement     0.083569     0.001200     NO 
 Predicted change in Energy=-3.341605D-02
 GradGradGradGradGradGradGradGradGradGradGradGradGradGradGradGradGradGrad

                          Input orientation:                          
 ---------------------------------------------------------------------
 Center     Atomic      Atomic             Coordinates (Angstroms)
 Number     Number       Type             X           Y           Z
 ---------------------------------------------------------------------
      1          6           0       -4.204963   -1.396792   -0.240351
      2          6           0       -2.888648   -1.004298   -0.605300
      3          6           0       -1.992837   -2.073642   -0.588615
      4          6           0       -2.550126    0.409029   -0.964905
      5          6           0       -4.322630   -2.740304    0.056359
      6          1           0       -5.044544   -0.718389   -0.195099
      7         16           0       -2.820526   -3.551357   -0.104782
      8          1           0       -5.229096   -3.250842    0.344995
      9          6           0       -0.588340   -2.147578   -0.914817
     10         16           0        0.512338   -0.808448   -0.568022
     11          6           0        1.859444   -1.663037   -1.222115
     12          6           0        1.477683   -2.933842   -1.671346
     13          6           0        0.098966   -3.216973   -1.485641
     14          1           0       -0.348220   -4.185792   -1.656290
     15         16           0        2.840209   -3.994395   -1.753560
     16          6           0        3.912873   -2.735770   -1.198184
     17          6           0        3.247668   -1.553843   -0.934459
     18          1           0        4.950573   -2.934050   -0.974770
     19          1           0        3.704033   -0.737798   -0.388946
     20          1           0       -3.427246    1.051268   -0.866903
     21          1           0       -2.198156    0.483335   -1.996383
     22          1           0       -1.776455    0.817517   -0.306866
 ---------------------------------------------------------------------
                    Distance matrix (angstroms):
                    1          2          3          4          5
     1  C    0.000000
     2  C    1.421241   0.000000
     3  C    2.339426   1.395082   0.000000
     4  C    2.554301   1.497133   2.572124   0.000000
     5  C    1.380908   2.346874   2.507662   3.755403   0.000000
     6  H    1.080358   2.213119   3.362213   2.843553   2.161604
     7  S    2.564605   2.596665   1.761478   4.061722   1.714670
     8  H    2.197494   3.380491   3.568024   4.720951   1.079648
     9  C    3.754803   2.587336   1.443775   3.222942   3.903771
    10  S    4.765128   3.406824   2.806606   3.319405   5.243933
    11  C    6.149128   4.833091   3.925555   4.878926   6.404142
    12  C    6.058279   4.891262   3.735875   5.281770   6.055251
    13  C    4.836074   3.820572   2.547057   4.520702   4.706962
    14  H    4.965670   4.204791   2.881992   5.141867   4.562735
    15  S    7.659752   6.563459   5.329609   7.004844   7.493653
    16  C    8.283089   7.043450   5.973893   7.191282   8.330511
    17  C    7.486532   6.169661   5.277565   6.121128   7.726502
    18  H    9.312700   8.081698   7.007165   8.211989   9.332367
    19  H    7.937794   6.601612   5.854800   6.384469   8.284664
    20  H    2.643938   2.140998   3.449643   1.091519   4.003766
    21  H    3.262790   2.150568   2.926106   1.092406   4.372527
    22  H    3.287132   2.155236   2.912903   1.094735   4.390106
                    6          7          8          9         10
     6  H    0.000000
     7  S    3.602794   0.000000
     8  H    2.595973   2.468566   0.000000
     9  C    4.734799   2.758515   4.933653   0.000000
    10  S    5.570109   4.341212   6.305787   1.767775   0.000000
    11  C    7.043590   5.168781   7.431309   2.514131   1.724197
    12  C    7.044642   4.616281   7.010493   2.336451   2.581960
    13  C    5.862091   3.246847   5.633881   1.393498   2.610343
    14  H    6.017759   2.986969   5.357446   2.182146   3.651211
    15  S    8.679306   5.912586   8.370812   3.983614   4.120042
    16  C    9.236412   6.870179   9.285596   4.548317   3.959206
    17  C    8.366924   6.442158   8.739127   3.881735   2.858658
    18  H   10.267395   7.843974  10.269752   5.594792   4.937769
    19  H    8.750746   7.111029   9.308859   4.548460   3.197496
    20  H    2.489710   4.704582   4.819077   4.277183   4.366714
    21  H    3.576407   4.499359   5.349086   3.268485   3.325010
    22  H    3.612741   4.496441   5.375611   3.251616   2.819669
                   11         12         13         14         15
    11  C    0.000000
    12  C    1.400891   0.000000
    13  C    2.362931   1.419687   0.000000
    14  H    3.380322   2.213939   1.080605   0.000000
    15  S    2.584486   1.728586   2.861919   3.195649   0.000000
    16  C    2.316873   2.488627   3.854876   4.524305   1.744473
    17  C    1.421913   2.362255   3.603350   4.514267   2.606386
    18  H    3.351378   3.542059   4.886627   5.487124   2.486862
    19  H    2.225478   3.379911   4.510605   5.469514   3.635078
    20  H    5.953379   6.370759   5.570896   6.126201   8.094806
    21  H    4.655160   5.029368   4.385191   5.033754   6.744936
    22  H    4.495619   5.150138   4.602589   5.375305   6.823563
                   16         17         18         19         20
    16  C    0.000000
    17  C    1.381665   0.000000
    18  H    1.079839   2.192369   0.000000
    19  H    2.165727   1.082489   2.592408   0.000000
    20  H    8.266120   7.165588   9.278052   7.367791   0.000000
    21  H    6.953016   5.910565   7.989152   6.237857   1.763217
    22  H    6.766738   5.590978   7.731317   5.697499   1.758804
                   21         22
    21  H    0.000000
    22  H    1.773126   0.000000
 Stoichiometry    C11H8S3
 Framework group  C1[X(C11H8S3)]
 Deg. of freedom    60
 Full point group                 C1      NOp   1
 Largest Abelian subgroup         C1      NOp   1
 Largest concise Abelian subgroup C1      NOp   1
                         Standard orientation:                         
 ---------------------------------------------------------------------
 Center     Atomic      Atomic             Coordinates (Angstroms)
 Number     Number       Type             X           Y           Z
 ---------------------------------------------------------------------
      1          6           0        4.028144    0.225088    0.059236
      2          6           0        2.741197    0.805918    0.221506
      3          6           0        1.714145   -0.116838    0.021658
      4          6           0        2.557831    2.249525    0.573329
      5          6           0        3.995886   -1.117171   -0.263576
      6          1           0        4.953537    0.770526    0.174645
      7         16           0        2.385767   -1.695887   -0.376250
      8          1           0        4.853240   -1.754218   -0.420912
      9          6           0        0.279543    0.016548    0.114453
     10         16           0       -0.541769    1.509614   -0.355895
     11          6           0       -2.088234    0.858624    0.040985
     12          6           0       -1.975137   -0.460416    0.499065
     13          6           0       -0.640894   -0.944659    0.527627
     14          1           0       -0.374050   -1.971555    0.732534
     15         16           0       -3.472479   -1.305750    0.321905
     16          6           0       -4.243845    0.106070   -0.352592
     17          6           0       -3.379144    1.178100   -0.462329
     18          1           0       -5.248237    0.068259   -0.747331
     19          1           0       -3.615473    2.059901   -1.044015
     20          1           0        3.523260    2.754227    0.641436
     21          1           0        2.055416    2.363159    1.536665
     22          1           0        1.971073    2.777318   -0.185350
 ---------------------------------------------------------------------
 Rotational constants (GHZ):           1.2380485           0.2857835           0.2394518
 Standard basis: 6-311+G(d,p) (5D, 7F)
 There are   394 symmetry adapted cartesian basis functions of A   symmetry.
 There are   380 symmetry adapted basis functions of A   symmetry.
   380 basis functions,   610 primitive gaussians,   394 cartesian basis functions
    61 alpha electrons       61 beta electrons
       nuclear repulsion energy      1125.1392164728 Hartrees.
 NAtoms=   22 NActive=   22 NUniq=   22 SFac= 1.00D+00 NAtFMM=   60 NAOKFM=F Big=F
 Integral buffers will be    131072 words long.
 Raffenetti 2 integral format.
 Two-electron integral symmetry is turned on.
 Nuclear repulsion after empirical dispersion term =     1125.1268755988 Hartrees.
 One-electron integrals computed using PRISM.
 NBasis=   380 RedAO= T EigKep=  2.50D-06  NBF=   380
 NBsUse=   378 1.00D-06 EigRej=  8.91D-07 NBFU=   378
 Initial guess from the checkpoint file:  "/tmp/pbs.4762230[210].pbs/Gau-106890.chk"
 B after Tr=    -0.000000    0.000000    0.000000
         Rot=    0.999984   -0.000653    0.000578   -0.005512 Ang=  -0.64 deg.
 ExpMin= 4.05D-02 ExpMax= 9.34D+04 ExpMxC= 3.17D+03 IAcc=3 IRadAn=         5 AccDes= 0.00D+00
 Harris functional with IExCor= 4639 and IRadAn=       5 diagonalized for initial guess.
 HarFok:  IExCor= 4639 AccDes= 0.00D+00 IRadAn=         5 IDoV= 1 UseB2=F ITyADJ=14
 ICtDFT=  3500011 ScaDFX=  1.000000  1.000000  1.000000  1.000000
 FoFCou: FMM=F IPFlag=           0 FMFlag=      100000 FMFlg1=           0
         NFxFlg=           0 DoJE=T BraDBF=F KetDBF=T FulRan=T
         wScrn=  0.000000 ICntrl=       500 IOpCl=  0 I1Cent=   200000004 NGrid=           0
         NMat0=    1 NMatS0=      1 NMatT0=    0 NMatD0=    1 NMtDS0=    0 NMtDT0=    0
 Petite list used in FoFCou.
 Requested convergence on RMS density matrix=1.00D-08 within 128 cycles.
 Requested convergence on MAX density matrix=1.00D-06.
 Requested convergence on             energy=1.00D-06.
 No special actions if energy rises.
 SCF Done:  E(RwB97XD) =  -1618.49441040     A.U. after   16 cycles
            NFock= 16  Conv=0.51D-08     -V/T= 2.0022
 Calling FoFJK, ICntrl=      2127 FMM=F ISym2X=0 I1Cent= 0 IOpClX= 0 NMat=1 NMatS=1 NMatT=0.
 ***** Axes restored to original set *****
 -------------------------------------------------------------------
 Center     Atomic                   Forces (Hartrees/Bohr)
 Number     Number              X              Y              Z
 -------------------------------------------------------------------
      1        6           0.000471363   -0.021376465    0.004967901
      2        6           0.010090125   -0.011922080    0.001996466
      3        6          -0.024664750    0.002071204    0.003718496
      4        6           0.001907358    0.003526952    0.000632472
      5        6           0.001463650    0.020050540   -0.005854753
      6        1          -0.000377776    0.001803076   -0.000314059
      7       16           0.002628703    0.007664867   -0.001366308
      8        1           0.001974730   -0.002857116    0.000472611
      9        6           0.022032503   -0.010298158   -0.012095616
     10       16          -0.008195775   -0.000009813   -0.006064284
     11        6          -0.000942408   -0.017491582    0.005149241
     12        6           0.001148503    0.009670147    0.016534852
     13        6          -0.010127315    0.016769020    0.008825232
     14        1          -0.002641463    0.001111532   -0.004372808
     15       16           0.008222852    0.002826637   -0.005290929
     16        6          -0.015229753    0.017117745    0.006048335
     17        6           0.010296142   -0.018791898    0.000589057
     18        1           0.000516377   -0.002090787   -0.004904981
     19        1           0.001058198    0.002557457   -0.006301196
     20        1          -0.000693246   -0.000881577   -0.000133608
     21        1           0.001990011    0.000397764   -0.000099406
     22        1          -0.000928030    0.000152537   -0.002136714
 -------------------------------------------------------------------
 Cartesian Forces:  Max     0.024664750 RMS     0.008823472

 GradGradGradGradGradGradGradGradGradGradGradGradGradGradGradGradGradGrad
 Berny optimization.
 Using GEDIIS/GDIIS optimizer.
 FormGI is forming the generalized inverse of G from B-inverse, IUseBI=4.
 Internal  Forces:  Max     0.021973395 RMS     0.004541865
 Search for a local minimum.
 Step number   2 out of a maximum of  127
 All quantities printed in internal units (Hartrees-Bohrs-Radians)
 Mixed Optimization -- RFO/linear search
 Update second derivatives using D2CorX and points    1    2
 DE= -3.38D-02 DEPred=-3.34D-02 R= 1.01D+00
 TightC=F SS=  1.41D+00  RLast= 3.75D-01 DXNew= 5.0454D-01 1.1259D+00
 Trust test= 1.01D+00 RLast= 3.75D-01 DXMaxT set to 5.05D-01
 ITU=  1  0
 Use linear search instead of GDIIS.
     Eigenvalues ---    0.00935   0.00981   0.01048   0.01210   0.01240
     Eigenvalues ---    0.01271   0.01290   0.01374   0.01462   0.01476
     Eigenvalues ---    0.01500   0.01586   0.01592   0.01700   0.02019
     Eigenvalues ---    0.02298   0.07221   0.07375   0.15504   0.15742
     Eigenvalues ---    0.15854   0.15957   0.16000   0.16000   0.16000
     Eigenvalues ---    0.16016   0.18930   0.22465   0.22551   0.23459
     Eigenvalues ---    0.24290   0.24694   0.24947   0.24994   0.25143
     Eigenvalues ---    0.25974   0.26465   0.28310   0.30935   0.30976
     Eigenvalues ---    0.31436   0.33642   0.33808   0.34522   0.34580
     Eigenvalues ---    0.34936   0.35249   0.35681   0.35928   0.36006
     Eigenvalues ---    0.36098   0.36202   0.36233   0.36884   0.38215
     Eigenvalues ---    0.39020   0.39513   0.40466   0.431771000.00000
     Eigenvalues --- 1000.000001000.000001000.000001000.000001000.00000
     Eigenvalues --- 1000.000001000.000001000.000001000.000001000.00000
     Eigenvalues --- 1000.000001000.000001000.000001000.000001000.00000
     Eigenvalues --- 1000.000001000.000001000.000001000.000001000.00000
     Eigenvalues --- 1000.000001000.000001000.000001000.000001000.00000
     Eigenvalues --- 1000.000001000.000001000.000001000.000001000.00000
     Eigenvalues --- 1000.000001000.000001000.000001000.000001000.00000
     Eigenvalues --- 1000.000001000.000001000.000001000.000001000.00000
     Eigenvalues --- 1000.000001000.000001000.000001000.000001000.00000
     Eigenvalues --- 1000.000001000.000001000.000001000.000001000.00000
     Eigenvalues --- 1000.000001000.000001000.000001000.000001000.00000
     Eigenvalues --- 1000.000001000.00000
 RFO step:  Lambda=-7.45952672D-03 EMin= 9.34791309D-03
 Quartic linear search produced a step of  0.42539.
 Iteration  1 RMS(Cart)=  0.08705826 RMS(Int)=  0.00643857
 Iteration  2 RMS(Cart)=  0.00818461 RMS(Int)=  0.00232287
 Iteration  3 RMS(Cart)=  0.00003737 RMS(Int)=  0.00232264
 Iteration  4 RMS(Cart)=  0.00000003 RMS(Int)=  0.00232264
 Iteration  1 RMS(Cart)=  0.00003774 RMS(Int)=  0.00001634
 Iteration  2 RMS(Cart)=  0.00002067 RMS(Int)=  0.00001825
 Iteration  3 RMS(Cart)=  0.00001132 RMS(Int)=  0.00002063
 Iteration  4 RMS(Cart)=  0.00000620 RMS(Int)=  0.00002220
 Iteration  5 RMS(Cart)=  0.00000339 RMS(Int)=  0.00002312
 Iteration  6 RMS(Cart)=  0.00000186 RMS(Int)=  0.00002365
 Iteration  7 RMS(Cart)=  0.00000102 RMS(Int)=  0.00002394
 Iteration  8 RMS(Cart)=  0.00000056 RMS(Int)=  0.00002410
 Variable       Old X    -DE/DX   Delta X   Delta X   Delta X     New X
                                 (Linear)    (Quad)   (Total)
    R1        2.68576   0.00067  -0.01421   0.02126   0.00707   2.69283
    R2        2.60954  -0.01776  -0.04440  -0.00076  -0.04521   2.56433
    R3        2.04158   0.00141   0.00155   0.00320   0.00475   2.04634
    R4        2.63632  -0.01640  -0.05221   0.01168  -0.04046   2.59586
    R5        2.82917   0.00395   0.00797   0.00476   0.01273   2.84190
    R6        3.32871  -0.00988  -0.02853  -0.00721  -0.03571   3.29300
    R7        2.72834   0.00633  -0.00902   0.03568   0.02666   2.75500
    R8        2.06267   0.00003  -0.00073   0.00114   0.00041   2.06308
    R9        2.06435   0.00076   0.00278  -0.00092   0.00186   2.06621
   R10        2.06875  -0.00188  -0.00325  -0.00305  -0.00629   2.06246
   R11        3.24026  -0.00321  -0.01976   0.01477  -0.00506   3.23520
   R12        2.04024  -0.00018  -0.00021  -0.00040  -0.00061   2.03963
   R13        3.34061  -0.00637  -0.01814   0.00423  -0.01658   3.32403
   R14        2.63333  -0.02197  -0.05700   0.00052  -0.05817   2.57516
   R15        3.25826   0.00253  -0.00436   0.01538   0.01171   3.26997
   R16        2.64730  -0.01250  -0.03179  -0.01199  -0.03903   2.60827
   R17        2.68703   0.00175  -0.00322   0.00676   0.00515   2.69218
   R18        2.68282   0.00052  -0.01052   0.01264   0.00352   2.68634
   R19        3.26655   0.00213  -0.00367   0.01352   0.00973   3.27629
   R20        2.04205   0.00079   0.00206   0.00011   0.00217   2.04422
   R21        3.29658  -0.00580  -0.01664   0.00509  -0.01372   3.28286
   R22        2.61097  -0.01984  -0.05135   0.00340  -0.04872   2.56225
   R23        2.04060  -0.00013  -0.00057   0.00028  -0.00029   2.04031
   R24        2.04561  -0.00080  -0.00304   0.00114  -0.00190   2.04371
    A1        1.98535   0.00092   0.00644  -0.00672  -0.00030   1.98504
    A2        2.16169  -0.00171  -0.00494  -0.00408  -0.00901   2.15267
    A3        2.13615   0.00079  -0.00150   0.01080   0.00932   2.14547
    A4        1.96055  -0.00150  -0.00482  -0.00181  -0.00661   1.95394
    A5        2.13152   0.00177   0.01382  -0.01104   0.00265   2.13417
    A6        2.19110  -0.00027  -0.00900   0.01276   0.00363   2.19473
    A7        1.92260   0.00266   0.00774   0.00372   0.01154   1.93415
    A8        2.29322  -0.00202  -0.01093   0.00520  -0.00578   2.28744
    A9        2.06712  -0.00064   0.00315  -0.00878  -0.00568   2.06144
   A10        1.93070  -0.00163  -0.00629  -0.00156  -0.00782   1.92289
   A11        1.94321   0.00066   0.00388  -0.00215   0.00173   1.94494
   A12        1.94730   0.00173   0.00595   0.00378   0.00974   1.95704
   A13        1.87933   0.00066   0.00223   0.00206   0.00431   1.88364
   A14        1.86961   0.00028   0.00150   0.00126   0.00280   1.87241
   A15        1.89071  -0.00175  -0.00756  -0.00335  -0.01092   1.87979
   A16        1.94482  -0.00004  -0.00365   0.00482   0.00104   1.94585
   A17        2.20068   0.00358   0.01058   0.01209   0.02269   2.22338
   A18        2.13763  -0.00354  -0.00690  -0.01679  -0.02367   2.11395
   A19        1.61144  -0.00204  -0.00572  -0.00010  -0.00589   1.60556
   A20        2.12067   0.00020  -0.00364   0.00559   0.00203   2.12270
   A21        2.22895  -0.00290  -0.00471  -0.00969  -0.01432   2.21463
   A22        1.93328   0.00273   0.00852   0.00440   0.01256   1.94584
   A23        1.60738  -0.00206  -0.00494  -0.00800  -0.01084   1.59654
   A24        1.93731  -0.00285  -0.01045   0.00923  -0.00378   1.93353
   A25        2.27572   0.00453   0.01619   0.04757   0.05284   2.32856
   A26        1.98296   0.00083   0.00699  -0.00231   0.00388   1.98684
   A27        1.98626   0.00052   0.00836  -0.00552   0.00170   1.98796
   A28        1.93587  -0.00263  -0.01281   0.01519  -0.00051   1.93536
   A29        2.27752   0.00462   0.01719   0.04516   0.05130   2.32883
   A30        1.96008   0.00169  -0.00138   0.00058   0.00081   1.96089
   A31        2.15150  -0.00174  -0.00421   0.00567  -0.00218   2.14932
   A32        2.16522   0.00042   0.00792   0.00345   0.00771   2.17293
   A33        1.59767  -0.00167   0.00190  -0.01837  -0.01348   1.58419
   A34        1.96267   0.00264   0.00113   0.01686   0.01647   1.97914
   A35        2.12267  -0.00452  -0.00529  -0.01891  -0.02898   2.09369
   A36        2.18983   0.00245   0.00808   0.01714   0.02038   2.21021
   A37        1.94522   0.00084   0.00276  -0.01065  -0.00608   1.93914
   A38        2.17906  -0.00031   0.00532   0.00856   0.00717   2.18622
   A39        2.13897   0.00048  -0.00104   0.02505   0.01739   2.15636
    D1        0.00349  -0.00002  -0.00142   0.00787   0.00633   0.00982
    D2        3.14094  -0.00048  -0.00327  -0.01296  -0.01628   3.12466
    D3       -3.13803   0.00017   0.00063   0.00778   0.00829  -3.12975
    D4       -0.00058  -0.00029  -0.00121  -0.01304  -0.01433  -0.01491
    D5        0.00073   0.00032   0.00317   0.00146   0.00459   0.00532
    D6       -3.12931  -0.00012   0.00038  -0.01051  -0.01026  -3.13957
    D7       -3.14093   0.00014   0.00116   0.00154   0.00264  -3.13829
    D8        0.01221  -0.00031  -0.00163  -0.01043  -0.01221   0.00000
    D9       -0.00594  -0.00028  -0.00088  -0.01325  -0.01408  -0.02002
   D10        3.11101  -0.00027  -0.00281  -0.00682  -0.00965   3.10136
   D11        3.13996   0.00019   0.00105   0.00850   0.00948  -3.13374
   D12       -0.02627   0.00020  -0.00089   0.01492   0.01391  -0.01236
   D13        0.03551  -0.00033  -0.00096  -0.01772  -0.01865   0.01686
   D14       -2.05350  -0.00051  -0.00217  -0.01786  -0.02000  -2.07350
   D15        2.11496   0.00007   0.00070  -0.01470  -0.01400   2.10096
   D16       -3.11079  -0.00085  -0.00306  -0.04144  -0.04452   3.12788
   D17        1.08338  -0.00103  -0.00427  -0.04159  -0.04587   1.03752
   D18       -1.03134  -0.00045  -0.00140  -0.03842  -0.03987  -1.07121
   D19        0.00543   0.00040   0.00229   0.01203   0.01427   0.01970
   D20       -3.11514   0.00042   0.00413   0.00635   0.01052  -3.10462
   D21        0.61064  -0.00039  -0.00000   0.00000  -0.00000   0.61064
   D22       -2.55904   0.00084   0.00676   0.01506   0.02217  -2.53687
   D23       -2.55725  -0.00034  -0.00204   0.00702   0.00489  -2.55237
   D24        0.55625   0.00089   0.00471   0.02208   0.02706   0.58330
   D25       -0.00352  -0.00040  -0.00309  -0.00771  -0.01066  -0.01417
   D26        3.12702   0.00008  -0.00021   0.00397   0.00347   3.13048
   D27       -3.13987   0.00018   0.00254  -0.00690  -0.00445   3.13886
   D28        0.02549  -0.00078  -0.00292  -0.01943  -0.02313   0.00236
   D29        3.13670  -0.00033  -0.00323   0.00821   0.00550  -3.14099
   D30       -0.12182   0.00307   0.01548   0.09681   0.11236  -0.00946
   D31       -0.03051   0.00077   0.00272   0.02199   0.02570  -0.00481
   D32        2.99415   0.00417   0.02143   0.11059   0.13256   3.12671
   D33       -0.01365   0.00066   0.00278   0.01156   0.01445   0.00079
   D34       -2.68162  -0.00555  -0.02752  -0.12503  -0.15543  -2.83705
[...]
     14          1           0       -0.311967   -1.976792    0.705687
     15         16           0       -3.509244   -1.279407    0.430674
     16          6           0       -4.290489    0.189881   -0.068649
     17          6           0       -3.418852    1.175741   -0.409633
     18          1           0       -5.369191    0.234625   -0.082931
     19          1           0       -3.722830    2.157148   -0.745182
     20          1           0        3.294623    2.625905    1.288132
     21          1           0        1.555782    2.318657    1.363402
     22          1           0        2.289831    2.889283   -0.136647
 ---------------------------------------------------------------------
 Rotational constants (GHZ):           1.2711176           0.2816708           0.2387070

 **********************************************************************

            Population analysis using the SCF Density.

 **********************************************************************

 Orbital symmetries:
       Occupied  (A) (A) (A) (A) (A) (A) (A) (A) (A) (A) (A) (A)
                 (A) (A) (A) (A) (A) (A) (A) (A) (A) (A) (A) (A)
                 (A) (A) (A) (A) (A) (A) (A) (A) (A) (A) (A) (A)
                 (A) (A) (A) (A) (A) (A) (A) (A) (A) (A) (A) (A)
                 (A) (A) (A) (A) (A) (A) (A) (A) (A) (A) (A) (A)
                 (A)
       Virtual   (A) (A) (A) (A) (A) (A) (A) (A) (A) (A) (A) (A)
                 (A) (A) (A) (A) (A) (A) (A) (A) (A) (A) (A) (A)
                 (A) (A) (A) (A) (A) (A) (A) (A) (A) (A) (A) (A)
                 (A) (A) (A) (A) (A) (A) (A) (A) (A) (A) (A) (A)
                 (A) (A) (A) (A) (A) (A) (A) (A) (A) (A) (A) (A)
                 (A) (A) (A) (A) (A) (A) (A) (A) (A) (A) (A) (A)
                 (A) (A) (A) (A) (A) (A) (A) (A) (A) (A) (A) (A)
                 (A) (A) (A) (A) (A) (A) (A) (A) (A) (A) (A) (A)
                 (A) (A) (A) (A) (A) (A) (A) (A) (A) (A) (A) (A)
                 (A) (A) (A) (A) (A) (A) (A) (A) (A) (A) (A) (A)
                 (A) (A) (A) (A) (A) (A) (A) (A) (A) (A) (A) (A)
                 (A) (A) (A) (A) (A) (A) (A) (A) (A) (A) (A) (A)
                 (A) (A) (A) (A) (A) (A) (A) (A) (A) (A) (A) (A)
                 (A) (A) (A) (A) (A) (A) (A) (A) (A) (A) (A) (A)
                 (A) (A) (A) (A) (A) (A) (A) (A) (A) (A) (A) (A)
                 (A) (A) (A) (A) (A) (A) (A) (A) (A) (A) (A) (A)
                 (A) (A) (A) (A) (A) (A) (A) (A) (A) (A) (A) (A)
                 (A) (A) (A) (A) (A) (A) (A) (A) (A) (A) (A) (A)
                 (A) (A) (A) (A) (A) (A) (A) (A) (A) (A) (A) (A)
                 (A) (A) (A) (A) (A) (A) (A) (A) (A) (A) (A) (A)
                 (A) (A) (A) (A) (A) (A) (A) (A) (A) (A) (A) (A)
                 (A) (A) (A) (A) (A) (A) (A) (A) (A) (A) (A) (A)
                 (A) (A) (A) (A) (A) (A) (A) (A) (A) (A) (A) (A)
                 (A) (A) (A) (A) (A) (A) (A) (A) (A) (A) (A) (A)
                 (A) (A) (A) (A) (A) (A) (A) (A) (A) (A) (A) (A)
                 (A) (A) (A) (A) (A) (A) (A) (A) (A) (A) (A) (A)
                 (A) (A) (A) (A)
 The electronic state is 1-A.
 Alpha  occ. eigenvalues --  -89.05106 -89.05078 -89.04739 -10.33864 -10.32830
 Alpha  occ. eigenvalues --  -10.32428 -10.32363 -10.32336 -10.31729 -10.30555
 Alpha  occ. eigenvalues --  -10.30503 -10.30410 -10.29261 -10.28644  -8.09155
 Alpha  occ. eigenvalues --   -8.09122  -8.08829  -6.04011  -6.03972  -6.03660
 Alpha  occ. eigenvalues --   -6.03638  -6.03598  -6.03274  -6.03198  -6.03185
 Alpha  occ. eigenvalues --   -6.02932  -1.02267  -0.99730  -0.95319  -0.87709
 Alpha  occ. eigenvalues --   -0.87179  -0.85612  -0.81085  -0.80191  -0.77708
 Alpha  occ. eigenvalues --   -0.70638  -0.66975  -0.66072  -0.62597  -0.61156
 Alpha  occ. eigenvalues --   -0.58907  -0.58523  -0.52846  -0.52418  -0.52241
 Alpha  occ. eigenvalues --   -0.50656  -0.50087  -0.48079  -0.47518  -0.47083
 Alpha  occ. eigenvalues --   -0.46425  -0.45569  -0.44743  -0.43013  -0.42468
 Alpha  occ. eigenvalues --   -0.41821  -0.37088  -0.33855  -0.32750  -0.30843
 Alpha  occ. eigenvalues --   -0.27762
 Alpha virt. eigenvalues --    0.00789   0.05313   0.05545   0.06010   0.06481
 Alpha virt. eigenvalues --    0.06674   0.07223   0.07557   0.08291   0.08719
 Alpha virt. eigenvalues --    0.09229   0.09305   0.09727   0.09933   0.10809
 Alpha virt. eigenvalues --    0.11006   0.11145   0.11661   0.12245   0.12843
 Alpha virt. eigenvalues --    0.12969   0.13139   0.13758   0.14005   0.14349
 Alpha virt. eigenvalues --    0.15090   0.15634   0.15936   0.16678   0.17279
 Alpha virt. eigenvalues --    0.17488   0.18155   0.18791   0.19084   0.19295
 Alpha virt. eigenvalues --    0.19940   0.20349   0.20672   0.21026   0.21722
 Alpha virt. eigenvalues --    0.22156   0.22514   0.22788   0.23130   0.23428
 Alpha virt. eigenvalues --    0.24016   0.24488   0.24670   0.24870   0.25083
 Alpha virt. eigenvalues --    0.25539   0.26230   0.26343   0.26931   0.27284
 Alpha virt. eigenvalues --    0.27388   0.27953   0.28291   0.28994   0.29095
 Alpha virt. eigenvalues --    0.29721   0.29942   0.30322   0.31039   0.31374
 Alpha virt. eigenvalues --    0.31579   0.32124   0.33013   0.33629   0.34237
 Alpha virt. eigenvalues --    0.35388   0.36301   0.37092   0.37436   0.37691
 Alpha virt. eigenvalues --    0.38162   0.40338   0.40896   0.41457   0.42427
 Alpha virt. eigenvalues --    0.43123   0.43889   0.45027   0.46008   0.46981
 Alpha virt. eigenvalues --    0.50044   0.50159   0.51189   0.51723   0.52400
 Alpha virt. eigenvalues --    0.53932   0.54559   0.56930   0.57923   0.58584
 Alpha virt. eigenvalues --    0.59916   0.61709   0.63158   0.63689   0.64286
 Alpha virt. eigenvalues --    0.64480   0.66164   0.66412   0.67260   0.67747
 Alpha virt. eigenvalues --    0.68992   0.70106   0.70886   0.71296   0.72571
 Alpha virt. eigenvalues --    0.73195   0.74142   0.74646   0.75904   0.77075
 Alpha virt. eigenvalues --    0.77430   0.78753   0.79127   0.79722   0.80970
 Alpha virt. eigenvalues --    0.81339   0.82182   0.82914   0.83908   0.84156
 Alpha virt. eigenvalues --    0.84551   0.85640   0.86600   0.87343   0.87793
 Alpha virt. eigenvalues --    0.88219   0.90628   0.90855   0.91262   0.91747
 Alpha virt. eigenvalues --    0.92197   0.93328   0.94091   0.95752   0.96209
 Alpha virt. eigenvalues --    0.97731   0.98036   0.98803   1.00256   1.01830
 Alpha virt. eigenvalues --    1.02667   1.03932   1.05264   1.05903   1.06189
 Alpha virt. eigenvalues --    1.07455   1.09887   1.11010   1.11622   1.12348
 Alpha virt. eigenvalues --    1.13788   1.15058   1.15449   1.16809   1.17322
 Alpha virt. eigenvalues --    1.20013   1.20319   1.22693   1.25005   1.27073
 Alpha virt. eigenvalues --    1.29423   1.31667   1.35710   1.41885   1.42971
 Alpha virt. eigenvalues --    1.43757   1.44605   1.46460   1.47196   1.51878
 Alpha virt. eigenvalues --    1.56106   1.57157   1.60159   1.62909   1.63308
 Alpha virt. eigenvalues --    1.64637   1.65013   1.66294   1.67647   1.68135
 Alpha virt. eigenvalues --    1.68942   1.69382   1.71232   1.74359   1.74747
 Alpha virt. eigenvalues --    1.76346   1.77949   1.80081   1.80990   1.82114
 Alpha virt. eigenvalues --    1.83530   1.84211   1.85089   1.85701   1.86315
 Alpha virt. eigenvalues --    1.89755   1.90520   1.91771   1.93790   1.94300
 Alpha virt. eigenvalues --    1.96239   1.98165   1.99357   2.00239   2.02262
 Alpha virt. eigenvalues --    2.05388   2.06171   2.07352   2.09154   2.10848
 Alpha virt. eigenvalues --    2.11478   2.13284   2.14752   2.16394   2.17759
 Alpha virt. eigenvalues --    2.18316   2.19193   2.20776   2.21938   2.22410
 Alpha virt. eigenvalues --    2.24813   2.24966   2.27757   2.28130   2.30240
 Alpha virt. eigenvalues --    2.33370   2.40259   2.42761   2.46602   2.50396
 Alpha virt. eigenvalues --    2.52062   2.53267   2.54905   2.58462   2.62313
 Alpha virt. eigenvalues --    2.63341   2.65108   2.69866   2.70895   2.72583
 Alpha virt. eigenvalues --    2.74300   2.76420   2.79434   2.80686   2.81581
 Alpha virt. eigenvalues --    2.82365   2.83645   2.83752   2.84581   2.86751
 Alpha virt. eigenvalues --    2.89496   2.94060   2.94288   2.99090   3.00183
 Alpha virt. eigenvalues --    3.03328   3.05413   3.05989   3.12920   3.13771
 Alpha virt. eigenvalues --    3.16667   3.17218   3.23135   3.25014   3.29653
 Alpha virt. eigenvalues --    3.32262   3.40171   3.40846   3.44351   3.46096
 Alpha virt. eigenvalues --    3.53200   3.55134   3.58152   3.63779   3.67683
 Alpha virt. eigenvalues --    3.80072   3.90284   3.92734   4.04688   4.07816
 Alpha virt. eigenvalues --    4.16571   4.23410   4.43893   4.47007   4.65488
 Alpha virt. eigenvalues --    8.10124   8.11449   8.12749  17.42105  17.43215
 Alpha virt. eigenvalues --   17.44842  17.59934  17.61949  17.65369  17.66337
 Alpha virt. eigenvalues --   17.69088  17.71304  23.60543  23.77046  23.90788
 Alpha virt. eigenvalues --   23.94317  23.98256  24.08994  24.17637  24.22947
 Alpha virt. eigenvalues --   24.27054  24.29959  24.30325 189.35064 189.36643
 Alpha virt. eigenvalues --  189.38378
          Condensed to atoms (all electrons):
               1          2          3          4          5          6
     1  C    8.232136   0.173208  -1.298770  -0.615270   0.458974   0.364385
     2  C    0.173208   8.573526   0.063760  -1.644222   0.020229  -0.041607
     3  C   -1.298770   0.063760   8.105689   0.239720   0.016732   0.025771
     4  C   -0.615270  -1.644222   0.239720   7.596266  -0.356500   0.003167
     5  C    0.458974   0.020229   0.016732  -0.356500   5.712690  -0.003440
     6  H    0.364385  -0.041607   0.025771   0.003167  -0.003440   0.499467
     7  S   -0.748735  -0.672959  -0.670854   0.662416  -0.093104   0.007966
     8  H    0.022102  -0.013545   0.001700   0.001602   0.393450  -0.004083
     9  C   -0.574947   0.398557   0.100160  -0.103214   0.141936  -0.001199
    10  S    0.106606   0.534804   0.155023  -0.236816   0.032614   0.000475
    11  C   -0.044297  -0.178182  -0.677056   0.051981  -0.004784  -0.000047
    12  C   -0.041892  -0.690916   0.275085   0.152901  -0.059477  -0.000289
    13  C   -0.023512  -0.564845  -1.130699   0.131981  -0.164732   0.000072
    14  H   -0.003191  -0.008692   0.018316   0.001789   0.002010   0.000001
    15  S   -0.002959  -0.066678  -0.041548   0.003009  -0.002530  -0.000003
    16  C    0.001274   0.002671  -0.044500  -0.001950  -0.000437  -0.000000
    17  C   -0.010391   0.007593   0.246120  -0.035698   0.005023  -0.000004
    18  H   -0.000001   0.000002   0.000009   0.000002   0.000000   0.000000
    19  H    0.000016  -0.000024  -0.000945   0.000021  -0.000002  -0.000000
    20  H    0.061551  -0.051588  -0.021747   0.371800   0.018680   0.001104
    21  H   -0.037008  -0.034309   0.038391   0.407895  -0.001538   0.000069
    22  H    0.012800  -0.010940  -0.018173   0.366439  -0.000217   0.000107
               7          8          9         10         11         12
     1  C   -0.748735   0.022102  -0.574947   0.106606  -0.044297  -0.041892
     2  C   -0.672959  -0.013545   0.398557   0.534804  -0.178182  -0.690916
     3  C   -0.670854   0.001700   0.100160   0.155023  -0.677056   0.275085
     4  C    0.662416   0.001602  -0.103214  -0.236816   0.051981   0.152901
     5  C   -0.093104   0.393450   0.141936   0.032614  -0.004784  -0.059477
     6  H    0.007966  -0.004083  -0.001199   0.000475  -0.000047  -0.000289
     7  S   17.716649  -0.027081  -0.022487  -0.057269   0.088365   0.153102
     8  H   -0.027081   0.448220  -0.008183  -0.000249  -0.000188   0.000049
     9  C   -0.022487  -0.008183   9.891221   0.362187  -1.520936  -1.843622
    10  S   -0.057269  -0.000249   0.362187  17.849972  -0.533522  -0.491185
    11  C    0.088365  -0.000188  -1.520936  -0.533522  15.262888  -4.947650
    12  C    0.153102   0.000049  -1.843622  -0.491185  -4.947650  12.518083
    13  C    0.148670  -0.000245  -0.678194  -0.962152   0.947195   0.148008
    14  H    0.003376  -0.000001  -0.001854   0.007890  -0.058622   0.012618
    15  S    0.005772   0.000003  -0.844028   0.086479   0.203898  -0.531987
    16  C    0.002692  -0.000001  -0.149461  -0.015407   0.663599  -0.803526
    17  C   -0.010332  -0.000008   0.303306  -0.304357  -3.754358   2.095915
    18  H    0.000002   0.000000   0.004578  -0.000933   0.019895   0.025498
    19  H    0.000012   0.000000  -0.006706   0.013350   0.017640  -0.054147
    20  H   -0.003352  -0.000018  -0.012784   0.007382   0.001414  -0.001213
    21  H    0.003042   0.000007   0.010520   0.017397  -0.011975  -0.006813
    22  H   -0.000140  -0.000002   0.013564  -0.018784   0.000680   0.001935
              13         14         15         16         17         18
     1  C   -0.023512  -0.003191  -0.002959   0.001274  -0.010391  -0.000001
     2  C   -0.564845  -0.008692  -0.066678   0.002671   0.007593   0.000002
     3  C   -1.130699   0.018316  -0.041548  -0.044500   0.246120   0.000009
     4  C    0.131981   0.001789   0.003009  -0.001950  -0.035698   0.000002
     5  C   -0.164732   0.002010  -0.002530  -0.000437   0.005023   0.000000
     6  H    0.000072   0.000001  -0.000003  -0.000000  -0.000004   0.000000
     7  S    0.148670   0.003376   0.005772   0.002692  -0.010332   0.000002
     8  H   -0.000245  -0.000001   0.000003  -0.000001  -0.000008   0.000000
     9  C   -0.678194  -0.001854  -0.844028  -0.149461   0.303306   0.004578
    10  S   -0.962152   0.007890   0.086479  -0.015407  -0.304357  -0.000933
    11  C    0.947195  -0.058622   0.203898   0.663599  -3.754358   0.019895
    12  C    0.148008   0.012618  -0.531987  -0.803526   2.095915   0.025498
    13  C    9.013960   0.358089  -0.196673   0.080480  -0.882799  -0.000082
    14  H    0.358089   0.474876   0.011065  -0.002505   0.012511  -0.000003
    15  S   -0.196673   0.011065  17.587599   0.384037  -0.110663  -0.041362
    16  C    0.080480  -0.002505   0.384037   5.548279   0.056328   0.389843
    17  C   -0.882799   0.012511  -0.110663   0.056328   8.405276  -0.029634
    18  H   -0.000082  -0.000003  -0.041362   0.389843  -0.029634   0.442520
    19  H    0.002283   0.000002   0.007480   0.025970   0.355019  -0.003574
    20  H   -0.005251  -0.000003  -0.000032   0.000021   0.000154   0.000000
    21  H   -0.027979  -0.000018  -0.000390  -0.000393   0.002008  -0.000000
    22  H    0.013951   0.000007   0.000141  -0.000045   0.000412  -0.000000
              19         20         21         22
     1  C    0.000016   0.061551  -0.037008   0.012800
     2  C   -0.000024  -0.051588  -0.034309  -0.010940
     3  C   -0.000945  -0.021747   0.038391  -0.018173
     4  C    0.000021   0.371800   0.407895   0.366439
     5  C   -0.000002   0.018680  -0.001538  -0.000217
     6  H   -0.000000   0.001104   0.000069   0.000107
     7  S    0.000012  -0.003352   0.003042  -0.000140
     8  H    0.000000  -0.000018   0.000007  -0.000002
     9  C   -0.006706  -0.012784   0.010520   0.013564
    10  S    0.013350   0.007382   0.017397  -0.018784
    11  C    0.017640   0.001414  -0.011975   0.000680
    12  C   -0.054147  -0.001213  -0.006813   0.001935
    13  C    0.002283  -0.005251  -0.027979   0.013951
    14  H    0.000002  -0.000003  -0.000018   0.000007
    15  S    0.007480  -0.000032  -0.000390   0.000141
    16  C    0.025970   0.000021  -0.000393  -0.000045
    17  C    0.355019   0.000154   0.002008   0.000412
    18  H   -0.003574   0.000000  -0.000000  -0.000000
    19  H    0.481636   0.000000  -0.000002   0.000000
    20  H    0.000000   0.515862  -0.019676  -0.022643
    21  H   -0.000002  -0.019676   0.505584  -0.028788
    22  H    0.000000  -0.022643  -0.028788   0.492483
 Mulliken charges:
               1
     1  C   -0.032080
     2  C    0.204156
     3  C    0.617816
     4  C   -0.997320
     5  C   -0.115576
     6  H    0.148088
     7  S   -0.485750
     8  H    0.186471
     9  C    0.541586
    10  S   -0.553507
    11  C    0.474058
    12  C    0.089523
    13  C   -0.207526
    14  H    0.172340
    15  S   -0.450632
    16  C   -0.136967
    17  C   -0.351421
    18  H    0.193240
    19  H    0.161972
    20  H    0.160338
    21  H    0.183977
    22  H    0.197213
 Sum of Mulliken charges =  -0.00000
 Mulliken charges with hydrogens summed into heavy atoms:
               1
     1  C    0.116009
     2  C    0.204156
     3  C    0.617816
     4  C   -0.455793
     5  C    0.070895
     7  S   -0.485750
     9  C    0.541586
    10  S   -0.553507
    11  C    0.474058
    12  C    0.089523
    13  C   -0.035186
    15  S   -0.450632
    16  C    0.056273
    17  C   -0.189449
 Electronic spatial extent (au):  <R**2>=           4326.3582
 Charge=              0.0000 electrons
 Dipole moment (field-independent basis, Debye):
    X=              0.3924    Y=              0.9080    Z=              0.2946  Tot=              1.0321
 Quadrupole moment (field-independent basis, Debye-Ang):
   XX=            -86.2843   YY=            -97.2071   ZZ=           -107.9632
   XY=             -2.1042   XZ=              1.7946   YZ=             -0.7312
 Traceless Quadrupole moment (field-independent basis, Debye-Ang):
   XX=             10.8673   YY=             -0.0556   ZZ=            -10.8117
   XY=             -2.1042   XZ=              1.7946   YZ=             -0.7312
 Octapole moment (field-independent basis, Debye-Ang**2):
  XXX=             -2.4815  YYY=              2.8258  ZZZ=              0.8072  XYY=              6.8929
  XXY=             10.4873  XXZ=             -3.2202  XZZ=              0.6169  YZZ=              1.8218
  YYZ=             -0.6471  XYZ=             11.5803
 Hexadecapole moment (field-independent basis, Debye-Ang**3):
 XXXX=          -4107.1625 YYYY=          -1047.5955 ZZZZ=           -241.5879 XXXY=            -81.2945
 XXXZ=             19.7528 YYYX=            -21.4833 YYYZ=            -11.1559 ZZZX=             -2.0606
 ZZZY=              2.0174 XXYY=           -904.3136 XXZZ=           -897.2199 YYZZ=           -217.8907
 XXYZ=              8.9881 YYXZ=              6.1628 ZZXY=              5.5671
 N-N= 1.126856687644D+03 E-N=-6.078149129830D+03  KE= 1.615207053729D+03
 Unable to Open any file for archive entry.
 1\1\GINC-CX3-5-2\FOpt\RwB97XD\6-311+G(d,p)\C11H8S3\NS5018\26-Oct-2021\
 0\\# opt=modredundant wb97xd/6-311+g(d,p)\\pBTTT_35.pdb\\0,1\C,-4.2281
 878678,-1.374516418,-0.3014434441\C,-2.8787956236,-1.0205591619,-0.604
 3901027\C,-2.0403060472,-2.1077142348,-0.5401514079\C,-2.4802233251,0.
 3801831671,-0.9742378475\C,-4.396017196,-2.6919478194,-0.0115641561\H,
 -5.042112054,-0.660467428,-0.3147110391\S,-2.9082702664,-3.5446283732,
 -0.0811290244\H,-5.3096696064,-3.2100228447,0.2376893219\C,-0.60138177
 22,-2.2056671637,-0.7581145478\S,0.4820544105,-0.905171288,-0.29079232
 11\C,1.8586274177,-1.8052737484,-0.8257487907\C,1.4781974533,-3.036552
 9875,-1.3213045025\C,0.0772243402,-3.2672457115,-1.2902325936\H,-0.414
 0105963,-4.1592985318,-1.6541210801\S,2.8549882253,-3.9318246334,-1.86
 9670651\C,3.9135723682,-2.6295984164,-1.4201357138\C,3.2614390118,-1.5
 649626857,-0.8823504093\H,4.9760196712,-2.7344871699,-1.5814067566\H,3
 .7560506284,-0.6654446977,-0.5441447535\H,-3.3431015033,0.9265387802,-
 1.3604647699\H,-1.7020279557,0.3910482636,-1.7396224597\H,-2.102069712
 6,0.931613103,-0.1079529505\\Version=ES64L-G16RevC.01\State=1-A\HF=-16
 18.5085058\RMSD=6.163e-09\RMSF=5.355e-04\Dipole=-0.115678,0.3833339,-0
 .0675225\Quadrupole=8.3965894,-0.4243764,-7.9722131,0.4317796,-1.14182
 27,0.9274035\PG=C01 [X(C11H8S3)]\\@
 The archive entry for this job was punched.


 MOM AND DAD WENT TO ALPHA CENTAURI AND ALL
 I GOT WAS THIS DUMB T-SHIRT.
 Job cpu time:       0 days  3 hours 55 minutes 18.6 seconds.
 Elapsed time:       0 days  0 hours 29 minutes 39.4 seconds.
 File lengths (MBytes):  RWF=     91 Int=      0 D2E=      0 Chk=     11 Scr=      1
 Normal termination of Gaussian 16 at Tue Oct 26 01:54:18 2021.
