 Entering Gaussian System, Link 0=g16
 Input=pBTTT_45.gjf
 Output=pBTTT_45.log
 Initial command:
 /apps/gaussian/g16-c01-avx/g16/l1.exe "/tmp/pbs.4766300[220].pbs/Gau-1878639.inp" -scrdir="/tmp/pbs.4766300[220].pbs/"
 Entering Link 1 = /apps/gaussian/g16-c01-avx/g16/l1.exe PID=   1878640.
  
 Copyright (c) 1988-2019, Gaussian, Inc.  All Rights Reserved.
  
 This is part of the Gaussian(R) 16 program.  It is based on
 the Gaussian(R) 09 system (copyright 2009, Gaussian, Inc.),
 the Gaussian(R) 03 system (copyright 2003, Gaussian, Inc.),
 the Gaussian(R) 98 system (copyright 1998, Gaussian, Inc.),
 the Gaussian(R) 94 system (copyright 1995, Gaussian, Inc.),
 the Gaussian 92(TM) system (copyright 1992, Gaussian, Inc.),
 the Gaussian 90(TM) system (copyright 1990, Gaussian, Inc.),
 the Gaussian 88(TM) system (copyright 1988, Gaussian, Inc.),
 the Gaussian 86(TM) system (copyright 1986, Carnegie Mellon
 University), and the Gaussian 82(TM) system (copyright 1983,
 Carnegie Mellon University). Gaussian is a federally registered
 trademark of Gaussian, Inc.
  
 This software contains proprietary and confidential information,
 including trade secrets, belonging to Gaussian, Inc.
  
 This software is provided under written license and may be
 used, copied, transmitted, or stored only in accord with that
 written license.
  
 The following legend is applicable only to US Government
 contracts under FAR:
  
                    RESTRICTED RIGHTS LEGEND
  
 Use, reproduction and disclosure by the US Government is
 subject to restrictions as set forth in subparagraphs (a)
 and (c) of the Commercial Computer Software - Restricted
 Rights clause in FAR 52.227-19.
  
 Gaussian, Inc.
 340 Quinnipiac St., Bldg. 40, Wallingford CT 06492
  
  
 ---------------------------------------------------------------
 Warning -- This program may not be used in any manner that
 competes with the business of Gaussian, Inc. or will provide
 assistance to any competitor of Gaussian, Inc.  The licensee
 of this program is prohibited from giving any competitor of
 Gaussian, Inc. access to this program.  By using this program,
 the user acknowledges that Gaussian, Inc. is engaged in the
 business of creating and licensing software in the field of
 computational chemistry and represents and warrants to the
 licensee that it is not a competitor of Gaussian, Inc. and that
 it will not use this program in any manner prohibited above.
 ---------------------------------------------------------------
  

 Cite this work as:
 Gaussian 16, Revision C.01,
 M. J. Frisch, G. W. Trucks, H. B. Schlegel, G. E. Scuseria, 
 M. A. Robb, J. R. Cheeseman, G. Scalmani, V. Barone, 
 G. A. Petersson, H. Nakatsuji, X. Li, M. Caricato, A. V. Marenich, 
 J. Bloino, B. G. Janesko, R. Gomperts, B. Mennucci, H. P. Hratchian, 
 J. V. Ortiz, A. F. Izmaylov, J. L. Sonnenberg, D. Williams-Young, 
 F. Ding, F. Lipparini, F. Egidi, J. Goings, B. Peng, A. Petrone, 
 T. Henderson, D. Ranasinghe, V. G. Zakrzewski, J. Gao, N. Rega, 
 G. Zheng, W. Liang, M. Hada, M. Ehara, K. Toyota, R. Fukuda, 
 J. Hasegawa, M. Ishida, T. Nakajima, Y. Honda, O. Kitao, H. Nakai, 
 T. Vreven, K. Throssell, J. A. Montgomery, Jr., J. E. Peralta, 
 F. Ogliaro, M. J. Bearpark, J. J. Heyd, E. N. Brothers, K. N. Kudin, 
 V. N. Staroverov, T. A. Keith, R. Kobayashi, J. Normand, 
 K. Raghavachari, A. P. Rendell, J. C. Burant, S. S. Iyengar, 
 J. Tomasi, M. Cossi, J. M. Millam, M. Klene, C. Adamo, R. Cammi, 
 J. W. Ochterski, R. L. Martin, K. Morokuma, O. Farkas, 
 J. B. Foresman, and D. J. Fox, Gaussian, Inc., Wallingford CT, 2019.
 
 ******************************************
 Gaussian 16:  ES64L-G16RevC.01  3-Jul-2019
                27-Oct-2021 
 ******************************************
 %mem=100GB
 %nprocshared=8
 Will use up to    8 processors via shared memory.
 ----------------------------------
 # opt=modredundant mp2/aug-cc-pvdz
 ----------------------------------
 1/18=120,19=15,38=1/1,3;
 2/9=110,12=2,17=6,18=5,40=1/2;
 3/5=16,7=10,11=9,25=1,30=1,71=1/1,2,3;
 4//1;
 5/5=2,38=5/2;
 8/6=4,10=1/1;
 9/15=2,16=-3/6;
 10/5=1/2;
 6/7=2,8=2,9=2,10=2/1;
 7/12=2/1,2,3,16;
 1/18=20,19=15/3(2);
 2/9=110/2;
 99//99;
 2/9=110/2;
 3/5=16,7=10,11=9,25=1,30=1,71=1/1,2,3;
 4/5=5,16=3,69=1/1;
 5/5=2,38=5/2;
 8/6=4,10=1/1;
 9/15=2,16=-3/6;
 10/5=1/2;
 7/12=2/1,2,3,16;
 1/18=20,19=15/3(-8);
 2/9=110/2;
 6/7=2,8=2,9=2,10=2/1;
 99/9=10/99;
 ------------
 pBTTT_45.pdb
 ------------
 Symbolic Z-matrix:
 Charge =  0 Multiplicity = 1
 C                    -4.02      0.338    -0.28 
 C                    -2.666     0.807    -0.395 
 C                    -1.738    -0.103    -0.013 
 C                    -4.085    -0.925     0.188 
 H                    -4.883     0.93     -0.546 
 S                    -2.524    -1.574     0.515 
 H                    -4.97     -1.511     0.364 
 C                    -0.275    -0.001    -0.019 
 S                     0.538     1.441     0.576 
 C                     2.09      0.714     0.301 
 C                     1.96     -0.547    -0.204 
 C                     0.603    -0.964    -0.39 
 H                     0.301    -1.92     -0.786 
 S                     3.513    -1.269    -0.496 
 C                     4.31      0.174     0.077 
 C                     3.45      1.14      0.463 
 H                     5.386     0.216     0.095 
 H                     3.757     2.1       0.845 
 O                    -2.337     2.034    -0.851 
 H                    -3.107     2.532    -1.068 
 
 The following ModRedundant input section has been read:
 D       2       3       8       9 F                                           
 

 GradGradGradGradGradGradGradGradGradGradGradGradGradGradGradGradGradGrad
 Berny optimization.
 Initialization pass.
                           ----------------------------
                           !    Initial Parameters    !
                           ! (Angstroms and Degrees)  !
 --------------------------                            --------------------------
 ! Name  Definition              Value          Derivative Info.                !
 --------------------------------------------------------------------------------
 ! R1    R(1,2)                  1.4375         estimate D2E/DX2                !
 ! R2    R(1,4)                  1.3485         estimate D2E/DX2                !
 ! R3    R(1,5)                  1.0798         estimate D2E/DX2                !
 ! R4    R(2,3)                  1.3547         estimate D2E/DX2                !
 ! R5    R(2,19)                 1.3497         estimate D2E/DX2                !
 ! R6    R(3,6)                  1.7494         estimate D2E/DX2                !
 ! R7    R(3,8)                  1.4666         estimate D2E/DX2                !
 ! R8    R(4,6)                  1.7219         estimate D2E/DX2                !
 ! R9    R(4,7)                  1.0759         estimate D2E/DX2                !
 ! R10   R(8,9)                  1.7591         estimate D2E/DX2                !
 ! R11   R(8,12)                 1.355          estimate D2E/DX2                !
 ! R12   R(9,10)                 1.7358         estimate D2E/DX2                !
 ! R13   R(10,11)                1.3646         estimate D2E/DX2                !
 ! R14   R(10,16)                1.4343         estimate D2E/DX2                !
 ! R15   R(11,12)                1.4318         estimate D2E/DX2                !
 ! R16   R(11,14)                1.7373         estimate D2E/DX2                !
 ! R17   R(12,13)                1.0779         estimate D2E/DX2                !
 ! R18   R(14,15)                1.7452         estimate D2E/DX2                !
 ! R19   R(15,16)                1.3497         estimate D2E/DX2                !
 ! R20   R(15,17)                1.077          estimate D2E/DX2                !
 ! R21   R(16,18)                1.0779         estimate D2E/DX2                !
 ! R22   R(19,20)                0.9423         estimate D2E/DX2                !
 ! A1    A(2,1,4)              112.2554         estimate D2E/DX2                !
 ! A2    A(2,1,5)              123.6556         estimate D2E/DX2                !
 ! A3    A(4,1,5)              124.0875         estimate D2E/DX2                !
 ! A4    A(1,2,3)              113.7974         estimate D2E/DX2                !
 ! A5    A(1,2,19)             123.5877         estimate D2E/DX2                !
 ! A6    A(3,2,19)             122.6126         estimate D2E/DX2                !
 ! A7    A(2,3,6)              110.0087         estimate D2E/DX2                !
 ! A8    A(2,3,8)              129.456          estimate D2E/DX2                !
 ! A9    A(6,3,8)              120.5254         estimate D2E/DX2                !
 ! A10   A(1,4,6)              112.0386         estimate D2E/DX2                !
 ! A11   A(1,4,7)              127.3401         estimate D2E/DX2                !
 ! A12   A(6,4,7)              120.6206         estimate D2E/DX2                !
 ! A13   A(3,6,4)               91.895          estimate D2E/DX2                !
 ! A14   A(3,8,9)              121.1099         estimate D2E/DX2                !
 ! A15   A(3,8,12)             126.7345         estimate D2E/DX2                !
 ! A16   A(9,8,12)             112.0704         estimate D2E/DX2                !
 ! A17   A(8,9,10)              90.9349         estimate D2E/DX2                !
 ! A18   A(9,10,11)            111.1308         estimate D2E/DX2                !
 ! A19   A(9,10,16)            134.8703         estimate D2E/DX2                !
 ! A20   A(11,10,16)           113.9907         estimate D2E/DX2                !
 ! A21   A(10,11,12)           114.0489         estimate D2E/DX2                !
 ! A22   A(10,11,14)           111.1663         estimate D2E/DX2                !
 ! A23   A(12,11,14)           134.7769         estimate D2E/DX2                !
 ! A24   A(8,12,11)            111.8136         estimate D2E/DX2                !
 ! A25   A(8,12,13)            123.3239         estimate D2E/DX2                !
 ! A26   A(11,12,13)           124.8593         estimate D2E/DX2                !
 ! A27   A(11,14,15)            90.5401         estimate D2E/DX2                !
 ! A28   A(14,15,16)           113.2461         estimate D2E/DX2                !
 ! A29   A(14,15,17)           119.6037         estimate D2E/DX2                !
 ! A30   A(16,15,17)           127.1499         estimate D2E/DX2                !
 ! A31   A(10,16,15)           111.056          estimate D2E/DX2                !
 ! A32   A(10,16,18)           125.0729         estimate D2E/DX2                !
 ! A33   A(15,16,18)           123.8706         estimate D2E/DX2                !
 ! A34   A(2,19,20)            111.042          estimate D2E/DX2                !
 ! D1    D(4,1,2,3)             -0.074          estimate D2E/DX2                !
 ! D2    D(4,1,2,19)           179.3754         estimate D2E/DX2                !
 ! D3    D(5,1,2,3)           -179.6479         estimate D2E/DX2                !
 ! D4    D(5,1,2,19)            -0.1984         estimate D2E/DX2                !
 ! D5    D(2,1,4,6)              0.5389         estimate D2E/DX2                !
 ! D6    D(2,1,4,7)           -179.7898         estimate D2E/DX2                !
 ! D7    D(5,1,4,6)           -179.8894         estimate D2E/DX2                !
 ! D8    D(5,1,4,7)             -0.2181         estimate D2E/DX2                !
 ! D9    D(1,2,3,6)             -0.4129         estimate D2E/DX2                !
 ! D10   D(1,2,3,8)            178.4276         estimate D2E/DX2                !
 ! D11   D(19,2,3,6)          -179.8684         estimate D2E/DX2                !
 ! D12   D(19,2,3,8)            -1.028          estimate D2E/DX2                !
 ! D13   D(1,2,19,20)            0.7105         estimate D2E/DX2                !
 ! D14   D(3,2,19,20)         -179.8875         estimate D2E/DX2                !
 ! D15   D(2,3,6,4)              0.6022         estimate D2E/DX2                !
 ! D16   D(8,3,6,4)           -178.3585         estimate D2E/DX2                !
 ! D17   D(2,3,8,9)             45.0522         Frozen                          !
 ! D18   D(2,3,8,12)          -138.58           estimate D2E/DX2                !
 ! D19   D(6,3,8,9)           -136.2127         estimate D2E/DX2                !
 ! D20   D(6,3,8,12)            40.1552         estimate D2E/DX2                !
 ! D21   D(1,4,6,3)             -0.6582         estimate D2E/DX2                !
 ! D22   D(7,4,6,3)            179.6455         estimate D2E/DX2                !
 ! D23   D(3,8,9,10)           177.209          estimate D2E/DX2                !
 ! D24   D(12,8,9,10)            0.3495         estimate D2E/DX2                !
 ! D25   D(3,8,12,11)         -176.9194         estimate D2E/DX2                !
 ! D26   D(3,8,12,13)            3.7052         estimate D2E/DX2                !
 ! D27   D(9,8,12,11)           -0.2747         estimate D2E/DX2                !
 ! D28   D(9,8,12,13)         -179.6501         estimate D2E/DX2                !
 ! D29   D(8,9,10,11)           -0.3304         estimate D2E/DX2                !
 ! D30   D(8,9,10,16)          178.5357         estimate D2E/DX2                !
 ! D31   D(9,10,11,12)           0.2426         estimate D2E/DX2                !
 ! D32   D(9,10,11,14)         179.3758         estimate D2E/DX2                !
 ! D33   D(16,10,11,12)       -178.8778         estimate D2E/DX2                !
 ! D34   D(16,10,11,14)          0.2554         estimate D2E/DX2                !
 ! D35   D(9,10,16,15)        -179.1434         estimate D2E/DX2                !
 ! D36   D(9,10,16,18)           1.0916         estimate D2E/DX2                !
 ! D37   D(11,10,16,15)         -0.3011         estimate D2E/DX2                !
 ! D38   D(11,10,16,18)        179.9339         estimate D2E/DX2                !
 ! D39   D(10,11,12,8)           0.0223         estimate D2E/DX2                !
 ! D40   D(10,11,12,13)        179.3862         estimate D2E/DX2                !
 ! D41   D(14,11,12,8)        -178.839          estimate D2E/DX2                !
 ! D42   D(14,11,12,13)          0.5249         estimate D2E/DX2                !
 ! D43   D(10,11,14,15)         -0.1143         estimate D2E/DX2                !
 ! D44   D(12,11,14,15)        178.7706         estimate D2E/DX2                !
 ! D45   D(11,14,15,16)         -0.0589         estimate D2E/DX2                !
 ! D46   D(11,14,15,17)        179.7623         estimate D2E/DX2                !
 ! D47   D(14,15,16,10)          0.2073         estimate D2E/DX2                !
 ! D48   D(14,15,16,18)        179.9757         estimate D2E/DX2                !
 ! D49   D(17,15,16,10)       -179.5977         estimate D2E/DX2                !
 ! D50   D(17,15,16,18)          0.1707         estimate D2E/DX2                !
 --------------------------------------------------------------------------------
 Trust Radius=3.00D-01 FncErr=1.00D-07 GrdErr=1.00D-07 EigMax=2.50D+02 EigMin=1.00D-04
 Number of steps in this run=    116 maximum allowed number of steps=    120.
 GradGradGradGradGradGradGradGradGradGradGradGradGradGradGradGradGradGrad

                          Input orientation:                          
 ---------------------------------------------------------------------
 Center     Atomic      Atomic             Coordinates (Angstroms)
 Number     Number       Type             X           Y           Z
 ---------------------------------------------------------------------
      1          6           0       -4.020000    0.338000   -0.280000
      2          6           0       -2.666000    0.807000   -0.395000
      3          6           0       -1.738000   -0.103000   -0.013000
      4          6           0       -4.085000   -0.925000    0.188000
      5          1           0       -4.883000    0.930000   -0.546000
      6         16           0       -2.524000   -1.574000    0.515000
      7          1           0       -4.970000   -1.511000    0.364000
      8          6           0       -0.275000   -0.001000   -0.019000
      9         16           0        0.538000    1.441000    0.576000
     10          6           0        2.090000    0.714000    0.301000
     11          6           0        1.960000   -0.547000   -0.204000
     12          6           0        0.603000   -0.964000   -0.390000
     13          1           0        0.301000   -1.920000   -0.786000
     14         16           0        3.513000   -1.269000   -0.496000
     15          6           0        4.310000    0.174000    0.077000
     16          6           0        3.450000    1.140000    0.463000
     17          1           0        5.386000    0.216000    0.095000
     18          1           0        3.757000    2.100000    0.845000
     19          8           0       -2.337000    2.034000   -0.851000
     20          1           0       -3.107000    2.532000   -1.068000
 ---------------------------------------------------------------------
                    Distance matrix (angstroms):
                    1          2          3          4          5
     1  C    0.000000
     2  C    1.437533   0.000000
     3  C    2.339507   1.354698   0.000000
     4  C    1.348487   2.313714   2.494894   0.000000
     5  H    1.079810   2.225538   3.352939   2.148624   0.000000
     6  S    2.554562   2.552925   1.749406   1.721874   3.600086
     7  H    2.176244   3.355238   3.545478   1.075917   2.606559
     8  C    3.769359   2.551690   1.466564   3.925904   4.730555
     9  S    4.767044   3.407406   2.812656   5.207747   5.559429
    10  C    6.149068   4.807557   3.926789   6.389813   7.027574
    11  C    6.045610   4.823865   3.729453   6.069479   7.008933
    12  C    4.804106   3.717906   2.522644   4.723658   5.805839
    13  H    4.901596   4.048765   2.838404   4.601706   5.920638
    14  S    7.705530   6.519204   5.400541   7.636478   8.679339
    15  C    8.339259   7.020545   6.055009   8.467358   9.245048
    16  C    7.549580   6.184861   5.356022   7.817677   8.396492
    17  H    9.414263   8.088516   7.131956   9.539936  10.313731
    18  H    8.053074   6.668162   5.982006   8.430850   8.829121
    19  O    2.456613   1.349706   2.372301   3.590363   2.791766
    20  H    2.503627   1.903427   3.151255   3.805899   2.448074
                    6          7          8          9         10
     6  S    0.000000
     7  H    2.451466   0.000000
     8  C    2.795977   4.946697   0.000000
     9  S    4.297649   6.252784   1.759079   0.000000
    10  C    5.154584   7.402580   2.491355   1.735759   0.000000
    11  C    4.655958   7.019745   2.308152   2.565663   1.364568
    12  C    3.311986   5.650315   1.354952   2.592567   2.346132
    13  H    3.129368   5.410473   2.145373   3.634217   3.364528
    14  S    6.128663   8.529915   4.022971   4.164602   2.567572
    15  C    7.067595   9.436101   4.589343   4.010271   2.295686
    16  C    6.561797   8.828024   3.925536   2.929695   1.434336
    17  H    8.120874  10.502458   5.666304   5.023454   3.339769
    18  H    7.284102   9.456808   4.627928   3.296756   2.235133
    19  O    3.862459   4.579950   3.014182   3.263986   4.761075
    20  H    4.439033   4.676242   3.941664   4.144761   5.673455
                   11         12         13         14         15
    11  C    0.000000
    12  C    1.431759   0.000000
    13  H    2.230725   1.077941   0.000000
    14  S    1.737342   2.927859   3.290113   0.000000
    15  C    2.474127   3.905763   4.604529   1.745218   0.000000
    16  C    2.347543   3.641405   4.565063   2.593633   1.349723
    17  H    3.522648   4.950224   5.585327   2.462242   1.076970
    18  H    3.366930   4.567388   5.546575   3.634278   2.145952
    19  O    5.054145   4.224231   4.753671   6.727431   6.964438
    20  H    5.991763   5.142548   5.613759   7.655010   7.866580
                   16         17         18         19         20
    16  C    0.000000
    17  H    2.176533   0.000000
    18  H    1.077856   2.601076   0.000000
    19  O    6.001267   7.990292   6.325947   0.000000
    20  H    6.875745   8.879610   7.138676   0.942334   0.000000
 Stoichiometry    C10H6OS3
 Framework group  C1[X(C10H6OS3)]
 Deg. of freedom    54
 Full point group                 C1      NOp   1
 Largest Abelian subgroup         C1      NOp   1
 Largest concise Abelian subgroup C1      NOp   1
                         Standard orientation:                         
 ---------------------------------------------------------------------
 Center     Atomic      Atomic             Coordinates (Angstroms)
 Number     Number       Type             X           Y           Z
 ---------------------------------------------------------------------
      1          6           0        4.019948    0.338157    0.279869
      2          6           0        2.665944    0.807146    0.394869
      3          6           0        1.737952   -0.102862    0.012869
      4          6           0        4.084959   -0.924842   -0.188131
      5          1           0        4.882943    0.930165    0.545869
      6         16           0        2.523964   -1.573856   -0.515131
      7          1           0        4.969964   -1.510835   -0.364131
      8          6           0        0.274951   -0.000875    0.018869
      9         16           0       -0.538061    1.441118   -0.576131
     10          6           0       -2.090055    0.714105   -0.301131
     11          6           0       -1.960045   -0.546894    0.203869
     12          6           0       -0.603041   -0.963882    0.389869
     13          1           0       -0.301033   -1.919880    0.785869
     14         16           0       -3.513038   -1.268907    0.495869
     15          6           0       -4.310051    0.174086   -0.077131
     16          6           0       -3.450059    1.140094   -0.463131
     17          1           0       -5.386051    0.216077   -0.095131
     18          1           0       -3.757067    2.100091   -0.845131
     19          8           0        2.336933    2.034143    0.850869
     20          1           0        3.106929    2.532149    1.067869
 ---------------------------------------------------------------------
 Rotational constants (GHZ):           1.3018498           0.2757062           0.2384121
 Standard basis: Aug-CC-pVDZ (5D, 7F)
 There are   416 symmetry adapted cartesian basis functions of A   symmetry.
 There are   388 symmetry adapted basis functions of A   symmetry.
   388 basis functions,   782 primitive gaussians,   416 cartesian basis functions
    61 alpha electrons       61 beta electrons
       nuclear repulsion energy      1128.7159442938 Hartrees.
 NAtoms=   20 NActive=   20 NUniq=   20 SFac= 1.00D+00 NAtFMM=   60 NAOKFM=F Big=F
 Integral buffers will be    131072 words long.
 Raffenetti 1 integral format.
 Two-electron integral symmetry is turned on.
 One-electron integrals computed using PRISM.
 NBasis=   388 RedAO= T EigKep=  3.35D-06  NBF=   388
 NBsUse=   388 1.00D-06 EigRej= -1.00D+00 NBFU=   388
 ExpMin= 2.97D-02 ExpMax= 1.11D+05 ExpMxC= 1.07D+03 IAcc=3 IRadAn=         5 AccDes= 0.00D+00
 Harris functional with IExCor=  205 and IRadAn=       5 diagonalized for initial guess.
 HarFok:  IExCor=  205 AccDes= 0.00D+00 IRadAn=         5 IDoV= 1 UseB2=F ITyADJ=14
 ICtDFT=  3500011 ScaDFX=  1.000000  1.000000  1.000000  1.000000
 FoFCou: FMM=F IPFlag=           0 FMFlag=      100000 FMFlg1=           0
         NFxFlg=           0 DoJE=T BraDBF=F KetDBF=T FulRan=T
         wScrn=  0.000000 ICntrl=       500 IOpCl=  0 I1Cent=   200000004 NGrid=           0
         NMat0=    1 NMatS0=      1 NMatT0=    0 NMatD0=    1 NMtDS0=    0 NMtDT0=    0
 Petite list used in FoFCou.
 Requested convergence on RMS density matrix=1.00D-08 within 128 cycles.
 Requested convergence on MAX density matrix=1.00D-06.
 Requested convergence on             energy=1.00D-06.
 No special actions if energy rises.
 SCF Done:  E(RHF) =  -1649.64215172     A.U. after   17 cycles
            NFock= 17  Conv=0.63D-08     -V/T= 2.0000
 ExpMin= 2.97D-02 ExpMax= 1.11D+05 ExpMxC= 1.07D+03 IAcc=3 IRadAn=         5 AccDes= 0.00D+00
 HarFok:  IExCor=  205 AccDes= 0.00D+00 IRadAn=         5 IDoV=-2 UseB2=F ITyADJ=14
 ICtDFT= 12500011 ScaDFX=  1.000000  1.000000  1.000000  1.000000
 GSVD:  LWork=        -884 too small for GESVD, short by        3770 words or        3770 for optimal perf.
 Range of M.O.s used for correlation:    27   388
 NBasis=   388 NAE=    61 NBE=    61 NFC=    26 NFV=     0
 NROrb=    362 NOA=    35 NOB=    35 NVA=   327 NVB=   327

 **** Warning!!: The largest alpha MO coefficient is  0.80982089D+02

 Fully direct method using O(ONN) memory.
 JobTyp=1 Pass  1:  I=  27 to  61 NPSUse=  8 ParTrn=T ParDer=T DoDerP=T.
 Spin components of T(2) and E(2):
     alpha-alpha T2 =       0.1137687575D+00 E2=     -0.2741165564D+00
     alpha-beta  T2 =       0.5542743778D+00 E2=     -0.1420957678D+01
     beta-beta   T2 =       0.1137687575D+00 E2=     -0.2741165564D+00
 ANorm=    0.1334845269D+01
 E2 =    -0.1969190791D+01 EUMP2 =    -0.16516113425098D+04
          IDoAtm=11111111111111111111
          Differentiating once with respect to electric field.
                with respect to dipole field.
          Differentiating once with respect to nuclear coordinates.
 Keep R1 ints in memory in canonical form, NReq=2883857471.
          There are     1 degrees of freedom in the 1st order CPHF.  IDoFFX=0 NUNeed=     1.
 LinEq1:  Iter=  0 NonCon=     1 RMS=2.87D-03 Max=5.89D-02 NDo=     1
 AX will form     1 AO Fock derivatives at one time.
 LinEq1:  Iter=  1 NonCon=     1 RMS=6.80D-04 Max=1.30D-02 NDo=     1
 LinEq1:  Iter=  2 NonCon=     1 RMS=3.46D-04 Max=9.81D-03 NDo=     1
 LinEq1:  Iter=  3 NonCon=     1 RMS=8.96D-05 Max=2.27D-03 NDo=     1
 LinEq1:  Iter=  4 NonCon=     1 RMS=3.39D-05 Max=6.06D-04 NDo=     1
 LinEq1:  Iter=  5 NonCon=     1 RMS=1.40D-05 Max=5.85D-04 NDo=     1
 LinEq1:  Iter=  6 NonCon=     1 RMS=5.85D-06 Max=1.63D-04 NDo=     1
 LinEq1:  Iter=  7 NonCon=     1 RMS=2.66D-06 Max=1.08D-04 NDo=     1
 LinEq1:  Iter=  8 NonCon=     1 RMS=1.06D-06 Max=4.01D-05 NDo=     1
 LinEq1:  Iter=  9 NonCon=     1 RMS=4.53D-07 Max=1.63D-05 NDo=     1
 LinEq1:  Iter= 10 NonCon=     1 RMS=1.74D-07 Max=2.46D-06 NDo=     1
 LinEq1:  Iter= 11 NonCon=     1 RMS=7.66D-08 Max=3.48D-06 NDo=     1
 LinEq1:  Iter= 12 NonCon=     1 RMS=2.78D-08 Max=3.91D-07 NDo=     1
 LinEq1:  Iter= 13 NonCon=     1 RMS=1.22D-08 Max=2.60D-07 NDo=     1
 LinEq1:  Iter= 14 NonCon=     1 RMS=4.43D-09 Max=8.75D-08 NDo=     1
 LinEq1:  Iter= 15 NonCon=     1 RMS=1.80D-09 Max=5.48D-08 NDo=     1
 LinEq1:  Iter= 16 NonCon=     1 RMS=6.09D-10 Max=1.38D-08 NDo=     1
 LinEq1:  Iter= 17 NonCon=     1 RMS=2.46D-10 Max=7.56D-09 NDo=     1
 LinEq1:  Iter= 18 NonCon=     1 RMS=8.89D-11 Max=1.44D-09 NDo=     1
 LinEq1:  Iter= 19 NonCon=     0 RMS=3.04D-11 Max=5.20D-10 NDo=     1
 Linear equations converged to 1.000D-10 1.000D-09 after    19 iterations.
 End of Minotr F.D. properties file   721 does not exist.
 End of Minotr F.D. properties file   722 does not exist.
 End of Minotr F.D. properties file   788 does not exist.

 **********************************************************************

            Population analysis using the SCF Density.

 **********************************************************************

 Orbital symmetries:
       Occupied  (A) (A) (A) (A) (A) (A) (A) (A) (A) (A) (A) (A)
                 (A) (A) (A) (A) (A) (A) (A) (A) (A) (A) (A) (A)
                 (A) (A) (A) (A) (A) (A) (A) (A) (A) (A) (A) (A)
                 (A) (A) (A) (A) (A) (A) (A) (A) (A) (A) (A) (A)
                 (A) (A) (A) (A) (A) (A) (A) (A) (A) (A) (A) (A)
                 (A)
       Virtual   (A) (A) (A) (A) (A) (A) (A) (A) (A) (A) (A) (A)
                 (A) (A) (A) (A) (A) (A) (A) (A) (A) (A) (A) (A)
                 (A) (A) (A) (A) (A) (A) (A) (A) (A) (A) (A) (A)
                 (A) (A) (A) (A) (A) (A) (A) (A) (A) (A) (A) (A)
                 (A) (A) (A) (A) (A) (A) (A) (A) (A) (A) (A) (A)
                 (A) (A) (A) (A) (A) (A) (A) (A) (A) (A) (A) (A)
                 (A) (A) (A) (A) (A) (A) (A) (A) (A) (A) (A) (A)
                 (A) (A) (A) (A) (A) (A) (A) (A) (A) (A) (A) (A)
                 (A) (A) (A) (A) (A) (A) (A) (A) (A) (A) (A) (A)
                 (A) (A) (A) (A) (A) (A) (A) (A) (A) (A) (A) (A)
                 (A) (A) (A) (A) (A) (A) (A) (A) (A) (A) (A) (A)
                 (A) (A) (A) (A) (A) (A) (A) (A) (A) (A) (A) (A)
                 (A) (A) (A) (A) (A) (A) (A) (A) (A) (A) (A) (A)
                 (A) (A) (A) (A) (A) (A) (A) (A) (A) (A) (A) (A)
                 (A) (A) (A) (A) (A) (A) (A) (A) (A) (A) (A) (A)
                 (A) (A) (A) (A) (A) (A) (A) (A) (A) (A) (A) (A)
                 (A) (A) (A) (A) (A) (A) (A) (A) (A) (A) (A) (A)
                 (A) (A) (A) (A) (A) (A) (A) (A) (A) (A) (A) (A)
                 (A) (A) (A) (A) (A) (A) (A) (A) (A) (A) (A) (A)
                 (A) (A) (A) (A) (A) (A) (A) (A) (A) (A) (A) (A)
                 (A) (A) (A) (A) (A) (A) (A) (A) (A) (A) (A) (A)
                 (A) (A) (A) (A) (A) (A) (A) (A) (A) (A) (A) (A)
                 (A) (A) (A) (A) (A) (A) (A) (A) (A) (A) (A) (A)
                 (A) (A) (A) (A) (A) (A) (A) (A) (A) (A) (A) (A)
                 (A) (A) (A) (A) (A) (A) (A) (A) (A) (A) (A) (A)
                 (A) (A) (A) (A) (A) (A) (A) (A) (A) (A) (A) (A)
                 (A) (A) (A) (A) (A) (A) (A) (A) (A) (A) (A) (A)
                 (A) (A) (A)
 The electronic state is 1-A.
 Alpha  occ. eigenvalues --  -91.99121 -91.98574 -91.98350 -20.61095 -11.31842
 Alpha  occ. eigenvalues --  -11.28685 -11.28443 -11.27315 -11.27196 -11.26749
 Alpha  occ. eigenvalues --  -11.26595 -11.25635 -11.25362 -11.25159  -8.99322
 Alpha  occ. eigenvalues --   -8.98756  -8.98516  -6.67491  -6.67398  -6.67198
 Alpha  occ. eigenvalues --   -6.66923  -6.66846  -6.66679  -6.66639  -6.66597
 Alpha  occ. eigenvalues --   -6.66387  -1.43142  -1.21251  -1.18545  -1.12575
 Alpha  occ. eigenvalues --   -1.02997  -1.01990  -0.98787  -0.95660  -0.94136
 Alpha  occ. eigenvalues --   -0.82718  -0.81385  -0.77071  -0.75214  -0.71554
 Alpha  occ. eigenvalues --   -0.69989  -0.66935  -0.66465  -0.62045  -0.61219
 Alpha  occ. eigenvalues --   -0.58701  -0.56377  -0.56076  -0.53863  -0.52864
 Alpha  occ. eigenvalues --   -0.52670  -0.51074  -0.49508  -0.48255  -0.46321
 Alpha  occ. eigenvalues --   -0.45629  -0.38589  -0.35532  -0.33761  -0.31681
 Alpha  occ. eigenvalues --   -0.28156
 Alpha virt. eigenvalues --    0.02767   0.03723   0.03960   0.05012   0.05117
 Alpha virt. eigenvalues --    0.06270   0.07387   0.08533   0.08732   0.09220
 Alpha virt. eigenvalues --    0.10318   0.10494   0.10562   0.10946   0.11356
 Alpha virt. eigenvalues --    0.12303   0.12761   0.12926   0.13074   0.13300
 Alpha virt. eigenvalues --    0.13849   0.14230   0.14250   0.14672   0.15242
 Alpha virt. eigenvalues --    0.15279   0.15635   0.16555   0.16849   0.17376
 Alpha virt. eigenvalues --    0.17971   0.18070   0.18630   0.19019   0.19267
 Alpha virt. eigenvalues --    0.19401   0.19928   0.20770   0.21803   0.21999
 Alpha virt. eigenvalues --    0.22286   0.22611   0.23061   0.23221   0.23357
 Alpha virt. eigenvalues --    0.24236   0.24389   0.25311   0.25671   0.25783
 Alpha virt. eigenvalues --    0.26289   0.26991   0.27426   0.27686   0.28137
 Alpha virt. eigenvalues --    0.28807   0.30002   0.30387   0.31106   0.31583
 Alpha virt. eigenvalues --    0.32070   0.32442   0.32647   0.32878   0.33281
 Alpha virt. eigenvalues --    0.33730   0.34098   0.34604   0.35163   0.36089
 Alpha virt. eigenvalues --    0.36236   0.37295   0.37887   0.38376   0.39217
 Alpha virt. eigenvalues --    0.40284   0.40748   0.41163   0.41350   0.42099
 Alpha virt. eigenvalues --    0.42888   0.43780   0.45043   0.45613   0.45848
 Alpha virt. eigenvalues --    0.46201   0.46872   0.47402   0.47718   0.48526
 Alpha virt. eigenvalues --    0.49047   0.49453   0.50022   0.51295   0.52433
 Alpha virt. eigenvalues --    0.52537   0.53501   0.53909   0.54729   0.55260
 Alpha virt. eigenvalues --    0.56290   0.56966   0.58643   0.58861   0.59902
 Alpha virt. eigenvalues --    0.61032   0.61452   0.61592   0.62191   0.62620
 Alpha virt. eigenvalues --    0.62981   0.63577   0.64692   0.65461   0.66078
 Alpha virt. eigenvalues --    0.66921   0.67110   0.67523   0.68168   0.68793
 Alpha virt. eigenvalues --    0.69276   0.69450   0.69894   0.70258   0.70831
 Alpha virt. eigenvalues --    0.70878   0.71933   0.72712   0.72873   0.73759
 Alpha virt. eigenvalues --    0.74135   0.74482   0.75109   0.76131   0.76510
 Alpha virt. eigenvalues --    0.77701   0.78187   0.78677   0.79575   0.80047
 Alpha virt. eigenvalues --    0.81168   0.82323   0.83789   0.84302   0.85206
 Alpha virt. eigenvalues --    0.85527   0.86391   0.87026   0.87696   0.87770
 Alpha virt. eigenvalues --    0.88285   0.89359   0.90403   0.91089   0.91819
 Alpha virt. eigenvalues --    0.91959   0.92389   0.94406   0.94967   0.95267
 Alpha virt. eigenvalues --    0.96105   0.96714   0.97386   0.98354   0.98691
 Alpha virt. eigenvalues --    1.00120   1.00705   1.00865   1.01523   1.03326
 Alpha virt. eigenvalues --    1.04555   1.04812   1.05360   1.07420   1.08546
 Alpha virt. eigenvalues --    1.08752   1.10510   1.11403   1.12312   1.13986
 Alpha virt. eigenvalues --    1.14354   1.15514   1.16056   1.18122   1.18659
 Alpha virt. eigenvalues --    1.19908   1.20906   1.22230   1.22919   1.23952
 Alpha virt. eigenvalues --    1.24476   1.25134   1.26153   1.26884   1.28257
 Alpha virt. eigenvalues --    1.28591   1.29107   1.29890   1.31707   1.32668
 Alpha virt. eigenvalues --    1.34398   1.35378   1.35594   1.36437   1.37832
 Alpha virt. eigenvalues --    1.38673   1.39999   1.40326   1.41579   1.41875
 Alpha virt. eigenvalues --    1.43708   1.44526   1.44916   1.47566   1.49108
 Alpha virt. eigenvalues --    1.50506   1.52829   1.55703   1.56102   1.56207
 Alpha virt. eigenvalues --    1.57625   1.59600   1.59651   1.60922   1.61741
 Alpha virt. eigenvalues --    1.62447   1.63024   1.64520   1.66674   1.67882
 Alpha virt. eigenvalues --    1.68388   1.69423   1.69805   1.71183   1.72279
 Alpha virt. eigenvalues --    1.73711   1.73937   1.75435   1.76630   1.78014
 Alpha virt. eigenvalues --    1.80037   1.81085   1.81425   1.83800   1.84400
 Alpha virt. eigenvalues --    1.85201   1.86580   1.88193   1.90123   1.90701
 Alpha virt. eigenvalues --    1.91324   1.92369   1.95188   1.96371   1.97163
 Alpha virt. eigenvalues --    1.98208   2.00620   2.01865   2.04161   2.04309
 Alpha virt. eigenvalues --    2.05173   2.08487   2.08787   2.09472   2.10184
 Alpha virt. eigenvalues --    2.11014   2.11706   2.13571   2.14728   2.16003
 Alpha virt. eigenvalues --    2.17441   2.19764   2.21498   2.21824   2.23477
 Alpha virt. eigenvalues --    2.24226   2.25294   2.28008   2.29195   2.31862
 Alpha virt. eigenvalues --    2.32543   2.33491   2.34597   2.36105   2.38032
 Alpha virt. eigenvalues --    2.38530   2.41014   2.45289   2.46141   2.47343
 Alpha virt. eigenvalues --    2.49009   2.49645   2.50519   2.51439   2.53157
 Alpha virt. eigenvalues --    2.57231   2.57505   2.60272   2.60896   2.64460
 Alpha virt. eigenvalues --    2.75526   2.81618   2.83612   2.86055   2.87952
 Alpha virt. eigenvalues --    2.92194   2.95128   2.98886   3.00803   3.03839
 Alpha virt. eigenvalues --    3.14330   3.18142   3.24404   3.27348   3.35506
 Alpha virt. eigenvalues --    3.42109   3.52401   3.55893   3.67184   3.76372
 Alpha virt. eigenvalues --    3.77167   3.80331   3.88134   3.89443   4.21712
 Alpha virt. eigenvalues --    4.24891   4.48266
          Condensed to atoms (all electrons):
               1          2          3          4          5          6
     1  C    8.026467  -2.332239   0.183331   0.103119  -0.178942  -0.356322
     2  C   -2.332239  11.766512  -3.038019   0.475199   0.163508  -0.443763
     3  C    0.183331  -3.038019  11.248478  -1.244801   0.030726   0.089508
     4  C    0.103119   0.475199  -1.244801   6.416214  -0.032439   0.315606
     5  H   -0.178942   0.163508   0.030726  -0.032439   1.657677  -0.019289
     6  S   -0.356322  -0.443763   0.089508   0.315606  -0.019289  16.167235
     7  H    0.031692   0.056978   0.015566   0.171663  -0.065175  -0.144029
     8  C    0.067076   0.262261  -1.793386   0.298781  -0.019882  -0.296494
     9  S   -0.057376   0.364001  -0.457689   0.026417   0.002873  -0.083904
    10  C   -0.039734   0.127951  -0.210751   0.019366  -0.000385   0.005249
    11  C   -0.022213   0.023937   0.266043  -0.020381   0.000577  -0.017287
    12  C    0.043109  -1.102051   0.210692  -0.199510  -0.003707   0.316293
    13  H   -0.019741   0.081216  -0.012827   0.014907  -0.001286  -0.004679
    14  S    0.000876  -0.012153  -0.049685  -0.000957   0.000065   0.002064
    15  C   -0.001798   0.002233   0.023515   0.000380  -0.000076  -0.001779
    16  C   -0.001869   0.008824  -0.304496  -0.001046  -0.000314   0.010748
    17  H   -0.000097   0.000383  -0.000351   0.000000  -0.000005  -0.000041
    18  H    0.000198   0.001451  -0.006840  -0.000087   0.000024   0.000071
    19  O    0.169538  -0.844372   0.325811  -0.087252  -0.061143   0.017689
    20  H   -0.119801   0.032055  -0.063581  -0.007677  -0.010904   0.009917
               7          8          9         10         11         12
     1  C    0.031692   0.067076  -0.057376  -0.039734  -0.022213   0.043109
     2  C    0.056978   0.262261   0.364001   0.127951   0.023937  -1.102051
     3  C    0.015566  -1.793386  -0.457689  -0.210751   0.266043   0.210692
     4  C    0.171663   0.298781   0.026417   0.019366  -0.020381  -0.199510
     5  H   -0.065175  -0.019882   0.002873  -0.000385   0.000577  -0.003707
     6  S   -0.144029  -0.296494  -0.083904   0.005249  -0.017287   0.316293
     7  H    1.260854   0.014123  -0.000750   0.000450   0.000754   0.001374
     8  C    0.014123  12.488625   0.304606  -0.461879  -0.357197  -4.835313
     9  S   -0.000750   0.304606  16.531194   0.213378  -0.434692  -0.713756
    10  C    0.000450  -0.461879   0.213378  10.963811  -1.028851  -1.024261
    11  C    0.000754  -0.357197  -0.434692  -1.028851  13.133799  -3.734963
    12  C    0.001374  -4.835313  -0.713756  -1.024261  -3.734963  18.191707
    13  H    0.002543   0.528228   0.034117  -0.105270   0.637810  -1.347232
    14  S   -0.000118  -0.366809   0.122002   0.059312  -0.448681   0.136531
    15  C    0.000024   0.060388  -0.097737  -0.090206  -1.083497  -0.031843
    16  C   -0.000057  -0.191295  -0.195641  -2.398860  -0.697645  -0.136203
    17  H    0.000002   0.000260   0.012792   0.099188  -0.088701   0.030362
    18  H   -0.000007   0.077321   0.020922   0.482002   0.083560  -0.061643
    19  O   -0.002079   0.066660  -0.056140   0.003797  -0.011826   0.038013
    20  H    0.001066   0.014409   0.009926   0.004546  -0.002282  -0.007442
              13         14         15         16         17         18
     1  C   -0.019741   0.000876  -0.001798  -0.001869  -0.000097   0.000198
     2  C    0.081216  -0.012153   0.002233   0.008824   0.000383   0.001451
     3  C   -0.012827  -0.049685   0.023515  -0.304496  -0.000351  -0.006840
     4  C    0.014907  -0.000957   0.000380  -0.001046   0.000000  -0.000087
     5  H   -0.001286   0.000065  -0.000076  -0.000314  -0.000005   0.000024
     6  S   -0.004679   0.002064  -0.001779   0.010748  -0.000041   0.000071
     7  H    0.002543  -0.000118   0.000024  -0.000057   0.000002  -0.000007
     8  C    0.528228  -0.366809   0.060388  -0.191295   0.000260   0.077321
     9  S    0.034117   0.122002  -0.097737  -0.195641   0.012792   0.020922
    10  C   -0.105270   0.059312  -0.090206  -2.398860   0.099188   0.482002
    11  C    0.637810  -0.448681  -1.083497  -0.697645  -0.088701   0.083560
    12  C   -1.347232   0.136531  -0.031843  -0.136203   0.030362  -0.061643
    13  H    1.761016  -0.050837   0.012497  -0.039371   0.001965  -0.000208
    14  S   -0.050837  16.038632   0.196323  -0.056178  -0.149518  -0.002827
    15  C    0.012497   0.196323   6.935972   0.110039   0.206317  -0.123204
    16  C   -0.039371  -0.056178   0.110039   9.951212   0.038210  -0.502099
    17  H    0.001965  -0.149518   0.206317   0.038210   1.296741  -0.069929
    18  H   -0.000208  -0.002827  -0.123204  -0.502099  -0.069929   1.420713
    19  O   -0.001070   0.000946  -0.000023   0.001131   0.000006   0.000108
    20  H    0.000772  -0.000157   0.000176   0.001106   0.000009   0.000022
              19         20
     1  C    0.169538  -0.119801
     2  C   -0.844372   0.032055
     3  C    0.325811  -0.063581
     4  C   -0.087252  -0.007677
     5  H   -0.061143  -0.010904
     6  S    0.017689   0.009917
     7  H   -0.002079   0.001066
     8  C    0.066660   0.014409
     9  S   -0.056140   0.009926
    10  C    0.003797   0.004546
    11  C   -0.011826  -0.002282
    12  C    0.038013  -0.007442
    13  H   -0.001070   0.000772
    14  S    0.000946  -0.000157
    15  C   -0.000023   0.000176
    16  C    0.001131   0.001106
    17  H    0.000006   0.000009
    18  H    0.000108   0.000022
    19  O    9.013290   0.359667
    20  H    0.359667   0.609195
 Mulliken charges:
               1
     1  C    0.504724
     2  C    0.406089
     3  C    0.788758
     4  C   -0.247504
     5  H   -0.461902
     6  S    0.433208
     7  H   -0.344873
     8  C    0.139517
     9  S    0.455456
    10  C   -0.618855
    11  C   -0.198263
    12  C    0.229843
    13  H   -0.492551
    14  S    0.581169
    15  C   -0.117702
    16  C    0.403802
    17  H   -0.377594
    18  H   -0.319550
    19  O   -0.932750
    20  H    0.168978
 Sum of Mulliken charges =  -0.00000
 Mulliken charges with hydrogens summed into heavy atoms:
               1
     1  C    0.042822
     2  C    0.406089
     3  C    0.788758
     4  C   -0.592377
     6  S    0.433208
     8  C    0.139517
     9  S    0.455456
    10  C   -0.618855
    11  C   -0.198263
    12  C   -0.262708
    14  S    0.581169
    15  C   -0.495296
    16  C    0.084253
    19  O   -0.763772
 Electronic spatial extent (au):  <R**2>=           4303.2338
 Charge=             -0.0000 electrons
 Dipole moment (field-independent basis, Debye):
    X=              2.4526    Y=              0.9964    Z=              0.4498  Tot=              2.6853
 Quadrupole moment (field-independent basis, Debye-Ang):
   XX=            -75.9395   YY=            -97.9741   ZZ=           -108.5748
   XY=              0.7161   XZ=              4.3915   YZ=             -0.1058
 Traceless Quadrupole moment (field-independent basis, Debye-Ang):
   XX=             18.2233   YY=             -3.8113   ZZ=            -14.4120
   XY=              0.7161   XZ=              4.3915   YZ=             -0.1058
 Octapole moment (field-independent basis, Debye-Ang**2):
  XXX=             57.3545  YYY=             20.2077  ZZZ=              5.5527  XYY=             23.4184
  XXY=             37.4790  XXZ=              5.2408  XZZ=              7.7576  YZZ=              5.8771
  YYZ=              4.2786  XYZ=             19.1170
 Hexadecapole moment (field-independent basis, Debye-Ang**3):
 XXXX=          -3952.8902 YYYY=           -910.2950 ZZZZ=           -270.0095 XXXY=              6.2831
 XXXZ=             71.5077 YYYX=             44.6334 YYYZ=             13.8336 ZZZX=             14.0962
 ZZZY=             11.5293 XXYY=           -844.5046 XXZZ=           -901.2508 YYZZ=           -197.9003
 XXYZ=             40.9652 YYXZ=             30.2694 ZZXY=             17.6274
 N-N= 1.128715944294D+03 E-N=-6.164857128246D+03  KE= 1.649573089871D+03
 Calling FoFJK, ICntrl=  10002127 FMM=F ISym2X=0 I1Cent= 0 IOpClX= 0 NMat=1 NMatS=1 NMatT=0.
 ***** Axes restored to original set *****
 -------------------------------------------------------------------
 Center     Atomic                   Forces (Hartrees/Bohr)
 Number     Number              X              Y              Z
 -------------------------------------------------------------------
      1        6           0.012907857    0.029678313   -0.010399228
      2        6          -0.040808336    0.011357523   -0.004998238
      3        6           0.031508466   -0.023283496    0.010022294
      4        6           0.000159973   -0.027112427    0.009942871
      5        1          -0.007983283    0.005469388   -0.002455663
      6       16           0.006041932   -0.005812274    0.002507981
      7        1          -0.007806164   -0.007146414    0.002194875
      8        6          -0.029335246    0.021582001    0.009472154
      9       16          -0.004344994    0.008816352    0.002682875
     10        6           0.007397729    0.037658918    0.014974795
     11        6          -0.009568536   -0.038437716   -0.014887739
     12        6           0.030238689   -0.020670083   -0.007460760
     13        1          -0.003631111   -0.009039568   -0.004045242
     14       16           0.002990845   -0.007052378   -0.002897693
     15        6           0.014413191   -0.022578087   -0.009002638
     16        6          -0.027129544    0.019588758    0.007632094
     17        1           0.010311290   -0.000798201   -0.000250664
     18        1           0.003033512    0.008880245    0.003525875
     19        8           0.034352495    0.007418386   -0.001284999
     20        1          -0.022748765    0.011480759   -0.005272949
 -------------------------------------------------------------------
 Cartesian Forces:  Max     0.040808336 RMS     0.016542133

 GradGradGradGradGradGradGradGradGradGradGradGradGradGradGradGradGradGrad
 Berny optimization.
 FormGI is forming the generalized inverse of G from B-inverse, IUseBI=4.
 Internal  Forces:  Max     0.042422893 RMS     0.009787820
 Search for a local minimum.
 Step number   1 out of a maximum of  116
 All quantities printed in internal units (Hartrees-Bohrs-Radians)
 Mixed Optimization -- RFO/linear search
 Second derivative matrix not updated -- first step.
 ITU=  0
     Eigenvalues ---    0.01494   0.01582   0.01631   0.01710   0.01755
     Eigenvalues ---    0.01762   0.01981   0.02017   0.02062   0.02130
     Eigenvalues ---    0.02212   0.02268   0.02322   0.02357   0.02371
     Eigenvalues ---    0.02443   0.15999   0.15999   0.16000   0.16000
     Eigenvalues ---    0.16000   0.16000   0.22526   0.22566   0.23643
     Eigenvalues ---    0.24760   0.24778   0.24957   0.24986   0.24995
     Eigenvalues ---    0.24999   0.29132   0.29931   0.30280   0.31025
     Eigenvalues ---    0.31239   0.32577   0.36017   0.36155   0.36244
     Eigenvalues ---    0.36255   0.36363   0.36492   0.38907   0.39261
     Eigenvalues ---    0.39588   0.45770   0.50532   0.52066   0.53488
     Eigenvalues ---    0.54203   0.55084   0.594541000.000001000.00000
     Eigenvalues --- 1000.000001000.000001000.000001000.000001000.00000
     Eigenvalues --- 1000.000001000.000001000.000001000.000001000.00000
     Eigenvalues --- 1000.000001000.000001000.000001000.000001000.00000
     Eigenvalues --- 1000.000001000.000001000.000001000.000001000.00000
     Eigenvalues --- 1000.000001000.000001000.000001000.000001000.00000
     Eigenvalues --- 1000.000001000.000001000.000001000.000001000.00000
     Eigenvalues --- 1000.000001000.000001000.000001000.000001000.00000
     Eigenvalues --- 1000.000001000.000001000.000001000.000001000.00000
     Eigenvalues --- 1000.000001000.000001000.000001000.000001000.00000
     Eigenvalues --- 1000.000001000.000001000.000001000.000001000.00000
     Eigenvalues --- 1000.00000
 RFO step:  Lambda=-1.92453766D-02 EMin= 1.49392546D-02
 Linear search not attempted -- first point.
 Iteration  1 RMS(Cart)=  0.02619328 RMS(Int)=  0.00014242
 Iteration  2 RMS(Cart)=  0.00026725 RMS(Int)=  0.00004353
 Iteration  3 RMS(Cart)=  0.00000004 RMS(Int)=  0.00004353
 Iteration  1 RMS(Cart)=  0.00000399 RMS(Int)=  0.00000186
 Iteration  2 RMS(Cart)=  0.00000219 RMS(Int)=  0.00000208
 Iteration  3 RMS(Cart)=  0.00000120 RMS(Int)=  0.00000235
 Iteration  4 RMS(Cart)=  0.00000066 RMS(Int)=  0.00000253
 Variable       Old X    -DE/DX   Delta X   Delta X   Delta X     New X
                                 (Linear)    (Quad)   (Total)
    R1        2.71654  -0.00300   0.00000  -0.00485  -0.00478   2.71176
    R2        2.54827   0.03955   0.00000   0.06991   0.06994   2.61822
    R3        2.04054   0.00998   0.00000   0.02631   0.02631   2.06686
    R4        2.56001   0.03934   0.00000   0.07080   0.07082   2.63083
    R5        2.55057   0.02223   0.00000   0.03899   0.03899   2.58956
    R6        3.30590   0.00306   0.00000   0.00698   0.00693   3.31283
    R7        2.77140  -0.00575   0.00000  -0.01511  -0.01511   2.75630
    R8        3.25387   0.00741   0.00000   0.01925   0.01921   3.27308
    R9        2.03319   0.01067   0.00000   0.02778   0.02778   2.06097
   R10        3.32418   0.00631   0.00000   0.01720   0.01714   3.34131
   R11        2.56049   0.03921   0.00000   0.07042   0.07043   2.63092
   R12        3.28011   0.00593   0.00000   0.01594   0.01590   3.29601
   R13        2.57866   0.04242   0.00000   0.08103   0.08110   2.65976
   R14        2.71050  -0.00176   0.00000  -0.00176  -0.00170   2.70880
   R15        2.70563  -0.00379   0.00000  -0.00652  -0.00645   2.69918
   R16        3.28310   0.00548   0.00000   0.01477   0.01474   3.29784
   R17        2.03701   0.01052   0.00000   0.02756   0.02756   2.06458
   R18        3.29798   0.00636   0.00000   0.01651   0.01646   3.31444
   R19        2.55061   0.03826   0.00000   0.06727   0.06728   2.61788
   R20        2.03518   0.01027   0.00000   0.02681   0.02681   2.06199
   R21        2.03685   0.01002   0.00000   0.02625   0.02625   2.06310
   R22        1.78075   0.02587   0.00000   0.04215   0.04215   1.82290
    A1        1.95923  -0.00208   0.00000  -0.00246  -0.00236   1.95687
    A2        2.15820   0.00105   0.00000   0.00126   0.00121   2.15941
    A3        2.16574   0.00103   0.00000   0.00119   0.00114   2.16687
    A4        1.98614  -0.00433   0.00000  -0.01137  -0.01129   1.97485
    A5        2.15701   0.00782   0.00000   0.02669   0.02664   2.18365
    A6        2.13999  -0.00349   0.00000  -0.01532  -0.01536   2.12463
    A7        1.92001   0.00343   0.00000   0.01141   0.01138   1.93139
    A8        2.25943  -0.00173   0.00000  -0.00584  -0.00584   2.25360
    A9        2.10357  -0.00170   0.00000  -0.00569  -0.00569   2.09788
   A10        1.95544   0.00064   0.00000   0.00285   0.00285   1.95829
   A11        2.22250   0.00141   0.00000   0.00826   0.00826   2.23076
   A12        2.10523  -0.00206   0.00000  -0.01111  -0.01111   2.09411
   A13        1.60387   0.00233   0.00000  -0.00046  -0.00062   1.60325
   A14        2.11377  -0.00430   0.00000  -0.01552  -0.01551   2.09826
   A15        2.21193   0.00039   0.00000   0.00189   0.00190   2.21384
   A16        1.95600   0.00392   0.00000   0.01358   0.01356   1.96956
   A17        1.58711   0.00111   0.00000  -0.00371  -0.00388   1.58323
   A18        1.93960   0.00206   0.00000   0.00599   0.00595   1.94555
   A19        2.35393   0.00123   0.00000   0.00009   0.00003   2.35396
   A20        1.98951  -0.00329   0.00000  -0.00607  -0.00598   1.98354
   A21        1.99053  -0.00287   0.00000  -0.00453  -0.00441   1.98611
   A22        1.94022   0.00128   0.00000   0.00314   0.00309   1.94331
   A23        2.35230   0.00159   0.00000   0.00134   0.00126   2.35356
   A24        1.95152  -0.00421   0.00000  -0.01134  -0.01124   1.94028
   A25        2.15241   0.00138   0.00000   0.00159   0.00154   2.15394
   A26        2.17921   0.00284   0.00000   0.00974   0.00969   2.18889
   A27        1.58022   0.00261   0.00000   0.00135   0.00122   1.58144
   A28        1.97652   0.00235   0.00000   0.00815   0.00814   1.98465
   A29        2.08748  -0.00247   0.00000  -0.01129  -0.01128   2.07620
   A30        2.21919   0.00012   0.00000   0.00314   0.00315   2.22233
   A31        1.93829  -0.00295   0.00000  -0.00657  -0.00648   1.93181
   A32        2.18293   0.00166   0.00000   0.00434   0.00430   2.18723
   A33        2.16195   0.00129   0.00000   0.00222   0.00218   2.16413
   A34        1.93805  -0.00499   0.00000  -0.02784  -0.02784   1.91021
    D1       -0.00129   0.00008   0.00000  -0.00062  -0.00063  -0.00192
    D2        3.13069   0.00003   0.00000  -0.00140  -0.00141   3.12928
    D3       -3.13545   0.00008   0.00000   0.00091   0.00091  -3.13454
    D4       -0.00346   0.00003   0.00000   0.00013   0.00012  -0.00334
    D5        0.00941   0.00009   0.00000   0.00218   0.00217   0.01158
    D6       -3.13792   0.00002   0.00000   0.00172   0.00173  -3.13620
    D7       -3.13966   0.00009   0.00000   0.00064   0.00063  -3.13903
    D8       -0.00381   0.00001   0.00000   0.00018   0.00018  -0.00362
    D9       -0.00721  -0.00020   0.00000  -0.00121  -0.00119  -0.00840
   D10        3.11415  -0.00006   0.00000  -0.00857  -0.00858   3.10557
   D11       -3.13930  -0.00022   0.00000  -0.00071  -0.00070  -3.14000
   D12       -0.01794  -0.00008   0.00000  -0.00806  -0.00809  -0.02603
   D13        0.01240  -0.00005   0.00000  -0.00130  -0.00130   0.01110
   D14       -3.13963  -0.00010   0.00000  -0.00210  -0.00210   3.14146
   D15        0.01051   0.00025   0.00000   0.00210   0.00209   0.01260
   D16       -3.11294   0.00013   0.00000   0.00872   0.00874  -3.10420
   D17        0.78631  -0.00107   0.00000   0.00000  -0.00000   0.78631
   D18       -2.41868  -0.00052   0.00000  -0.00041  -0.00041  -2.41909
   D19       -2.37736  -0.00086   0.00000  -0.00786  -0.00783  -2.38519
   D20        0.70084  -0.00032   0.00000  -0.00827  -0.00824   0.69260
   D21       -0.01149  -0.00019   0.00000  -0.00245  -0.00243  -0.01392
   D22        3.13540  -0.00014   0.00000  -0.00209  -0.00209   3.13331
   D23        3.09288   0.00027   0.00000  -0.00010  -0.00009   3.09279
   D24        0.00610  -0.00012   0.00000   0.00048   0.00049   0.00659
   D25       -3.08783  -0.00004   0.00000   0.00246   0.00247  -3.08535
   D26        0.06467  -0.00003   0.00000   0.00379   0.00381   0.06848
   D27       -0.00480   0.00021   0.00000   0.00121   0.00122  -0.00358
   D28       -3.13549   0.00022   0.00000   0.00254   0.00255  -3.13294
   D29       -0.00577   0.00001   0.00000  -0.00206  -0.00204  -0.00781
   D30        3.11604  -0.00005   0.00000  -0.00166  -0.00163   3.11440
   D31        0.00423   0.00009   0.00000   0.00317   0.00319   0.00742
   D32        3.13070  -0.00002   0.00000   0.00020   0.00023   3.13092
   D33       -3.12201   0.00010   0.00000   0.00282   0.00283  -3.11918
   D34        0.00446  -0.00001   0.00000  -0.00015  -0.00013   0.00432
   D35       -3.12664   0.00000   0.00000  -0.00143  -0.00144  -3.12808
   D36        0.01905   0.00004   0.00000  -0.00014  -0.00014   0.01891
   D37       -0.00526  -0.00002   0.00000  -0.00092  -0.00092  -0.00617
   D38        3.14044   0.00002   0.00000   0.00037   0.00038   3.14082
   D39        0.00039  -0.00021   0.00000  -0.00288  -0.00285  -0.00246
   D40        3.13088  -0.00023   0.00000  -0.00430  -0.00428   3.12660
   D41       -3.12133  -0.00004   0.00000   0.00102   0.00105  -3.12028
   D42        0.00916  -0.00006   0.00000  -0.00040  -0.00038   0.00878
   D43       -0.00199   0.00007   0.00000   0.00094   0.00093  -0.00106
   D44        3.12014  -0.00013   0.00000  -0.00295  -0.00295   3.11718
   D45       -0.00103  -0.00007   0.00000  -0.00151  -0.00150  -0.00253
   D46        3.13744  -0.00002   0.00000  -0.00102  -0.00102   3.13643
   D47        0.00362   0.00010   0.00000   0.00170   0.00171   0.00533
   D48        3.14117   0.00006   0.00000   0.00043   0.00044  -3.14158
   D49       -3.13457   0.00005   0.00000   0.00120   0.00120  -3.13337
   D50        0.00298   0.00001   0.00000  -0.00007  -0.00007   0.00291
         Item               Value     Threshold  Converged?
 Maximum Force            0.042418     0.000450     NO 
 RMS     Force            0.009833     0.000300     NO 
 Maximum Displacement     0.101931     0.001800     NO 
 RMS     Displacement     0.026140     0.001200     NO 
 Predicted change in Energy=-9.989381D-03
 GradGradGradGradGradGradGradGradGradGradGradGradGradGradGradGradGradGrad

                          Input orientation:                          
 ---------------------------------------------------------------------
 Center     Atomic      Atomic             Coordinates (Angstroms)
 Number     Number       Type             X           Y           Z
 ---------------------------------------------------------------------
      1          6           0       -4.032311    0.358295   -0.283650
      2          6           0       -2.682748    0.832622   -0.397328
      3          6           0       -1.736452   -0.109620   -0.003816
      4          6           0       -4.090141   -0.941193    0.193419
      5          1           0       -4.909799    0.953489   -0.552006
      6         16           0       -2.517594   -1.587808    0.523489
      7          1           0       -4.977904   -1.548888    0.372387
      8          6           0       -0.281143   -0.012887   -0.015951
      9         16           0        0.518770    1.446958    0.580149
     10          6           0        2.083848    0.727289    0.306760
     11          6           0        1.968084   -0.577303   -0.208657
     12          6           0        0.618316   -1.004945   -0.396846
     13          1           0        0.311188   -1.973939   -0.797265
     14         16           0        3.535770   -1.287740   -0.497030
     15          6           0        4.323049    0.171666    0.074448
     16          6           0        3.439703    1.164008    0.466981
     17          1           0        5.413340    0.212290    0.090085
     18          1           0        3.747726    2.139093    0.849401
     19          8           0       -2.318831    2.072600   -0.853223
     20          1           0       -3.109871    2.578015   -1.075345
 ---------------------------------------------------------------------
                    Distance matrix (angstroms):
                    1          2          3          4          5
     1  C    0.000000
     2  C    1.435002   0.000000
     3  C    2.359709   1.392174   0.000000
     4  C    1.385500   2.340119   2.504050   0.000000
     5  H    1.093734   2.235686   3.391290   2.194839   0.000000
     6  S    2.594833   2.594929   1.753075   1.732039   3.652057
     7  H    2.227528   3.395849   3.566516   1.090618   2.668526
     8  C    3.778981   2.574497   1.458570   3.926073   4.758749
     9  S    4.758537   3.403320   2.801781   5.205275   5.567284
    10  C    6.155660   4.819468   3.923209   6.396469   7.049804
    11  C    6.073361   4.863509   3.739555   6.082448   7.054536
    12  C    4.847636   3.778051   2.549708   4.745739   5.866821
    13  H    4.956724   4.123153   2.880638   4.628144   5.990718
    14  S    7.747956   6.570832   5.424716   7.664942   8.738064
    15  C    8.365113   7.052703   6.066531   8.487307   9.287043
    16  C    7.552723   6.192031   5.351295   7.823379   8.414085
    17  H    9.454170   8.134434   7.157651   9.573785  10.369612
    18  H    8.061267   6.679236   5.988397   8.446930   8.849991
    19  O    2.489833   1.370336   2.413036   3.649102   2.838354
    20  H    2.530777   1.920557   3.202786   3.867237   2.480466
                    6          7          8          9         10
     6  S    0.000000
     7  H    2.465253   0.000000
     8  C    2.788026   4.956780   0.000000
     9  S    4.293312   6.263521   1.768147   0.000000
    10  C    5.155571   7.419814   2.499037   1.744171   0.000000
    11  C    4.656014   7.037638   2.326956   2.611582   1.407486
    12  C    3.319741   5.674969   1.392224   2.641260   2.375601
    13  H    3.145711   5.433531   2.192495   3.693629   3.414356
    14  S    6.146114   8.561935   4.052840   4.212027   2.610459
    15  C    7.077555   9.463446   4.608777   4.044087   2.318773
    16  C    6.562399   8.844482   3.932302   2.936787   1.433435
    17  H    8.144195  10.543216   5.699920   5.071625   3.376046
    18  H    7.297277   9.485008   4.648832   3.313262   2.248586
    19  O    3.915792   4.657034   3.033554   3.240056   4.747527
    20  H    4.501238   4.755713   3.979546   4.145719   5.684199
                   11         12         13         14         15
    11  C    0.000000
    12  C    1.428344   0.000000
    13  H    2.245519   1.092526   0.000000
    14  S    1.745141   2.932840   3.310429   0.000000
    15  C    2.487361   3.915556   4.632336   1.753928   0.000000
    16  C    2.377880   3.662073   4.607889   2.636212   1.385325
    17  H    3.547181   4.971018   5.621294   2.473876   1.091160
    18  H    3.415468   4.607745   5.606990   3.687951   2.191419
    19  O    5.080856   4.278598   4.826450   6.759816   6.970560
    20  H    6.040928   5.215107   5.700988   7.709932   7.896888
                   16         17         18         19         20
    16  C    0.000000
    17  H    2.223300   0.000000
    18  H    1.091748   2.657705   0.000000
    19  O    5.977390   8.008562   6.301307   0.000000
    20  H    6.875689   8.921884   7.136101   0.964638   0.000000
 Stoichiometry    C10H6OS3
 Framework group  C1[X(C10H6OS3)]
 Deg. of freedom    54
 Full point group                 C1      NOp   1
 Largest Abelian subgroup         C1      NOp   1
 Largest concise Abelian subgroup C1      NOp   1
                         Standard orientation:                         
 ---------------------------------------------------------------------
 Center     Atomic      Atomic             Coordinates (Angstroms)
 Number     Number       Type             X           Y           Z
 ---------------------------------------------------------------------
      1          6           0        4.034662    0.347244    0.288743
      2          6           0        2.686584    0.826181    0.400701
      3          6           0        1.737522   -0.113226    0.007071
      4          6           0        4.088605   -0.952839   -0.187160
      5          1           0        4.913876    0.939728    0.557446
      6         16           0        2.514225   -1.594470   -0.518210
      7          1           0        4.974504   -1.563654   -0.364744
      8          6           0        0.282535   -0.011612    0.017706
      9         16           0       -0.511908    1.450389   -0.580419
     10          6           0       -2.079651    0.736196   -0.307942
     11          6           0       -1.968755   -0.568334    0.208702
     12          6           0       -0.620610   -1.000329    0.398570
     13          1           0       -0.317116   -1.970002    0.800116
     14         16           0       -3.539090   -1.273274    0.496152
     15          6           0       -4.320924    0.188269   -0.077338
     16          6           0       -3.433880    1.177313   -0.469856
     17          1           0       -5.411057    0.232527   -0.094072
     18          1           0       -3.738267    2.153095   -0.853408
     19          8           0        2.326377    2.067760    0.855183
     20          1           0        3.118888    2.570716    1.077644
 ---------------------------------------------------------------------
 Rotational constants (GHZ):           1.2664570           0.2746450           0.2365892
 Standard basis: Aug-CC-pVDZ (5D, 7F)
 There are   416 symmetry adapted cartesian basis functions of A   symmetry.
 There are   388 symmetry adapted basis functions of A   symmetry.
   388 basis functions,   782 primitive gaussians,   416 cartesian basis functions
    61 alpha electrons       61 beta electrons
       nuclear repulsion energy      1120.3157519901 Hartrees.
 NAtoms=   20 NActive=   20 NUniq=   20 SFac= 1.00D+00 NAtFMM=   60 NAOKFM=F Big=F
 Integral buffers will be    131072 words long.
 Raffenetti 1 integral format.
 Two-electron integral symmetry is turned on.
 One-electron integrals computed using PRISM.
 NBasis=   388 RedAO= T EigKep=  3.77D-06  NBF=   388
 NBsUse=   388 1.00D-06 EigRej= -1.00D+00 NBFU=   388
 Initial guess from the checkpoint file:  "/tmp/pbs.4766300[220].pbs/Gau-1878640.chk"
 B after Tr=    -0.000000   -0.000000   -0.000000
         Rot=    0.999999    0.000360    0.000500    0.001527 Ang=   0.19 deg.
 ExpMin= 2.97D-02 ExpMax= 1.11D+05 ExpMxC= 1.07D+03 IAcc=3 IRadAn=         5 AccDes= 0.00D+00
 Harris functional with IExCor=  205 and IRadAn=       5 diagonalized for initial guess.
 HarFok:  IExCor=  205 AccDes= 0.00D+00 IRadAn=         5 IDoV= 1 UseB2=F ITyADJ=14
 ICtDFT=  3500011 ScaDFX=  1.000000  1.000000  1.000000  1.000000
 FoFCou: FMM=F IPFlag=           0 FMFlag=      100000 FMFlg1=           0
         NFxFlg=           0 DoJE=T BraDBF=F KetDBF=T FulRan=T
         wScrn=  0.000000 ICntrl=       500 IOpCl=  0 I1Cent=   200000004 NGrid=           0
         NMat0=    1 NMatS0=      1 NMatT0=    0 NMatD0=    1 NMtDS0=    0 NMtDT0=    0
 Petite list used in FoFCou.
 Requested convergence on RMS density matrix=1.00D-08 within 128 cycles.
 Requested convergence on MAX density matrix=1.00D-06.
 Requested convergence on             energy=1.00D-06.
 No special actions if energy rises.
 SCF Done:  E(RHF) =  -1649.63288149     A.U. after   15 cycles
            NFock= 15  Conv=0.47D-08     -V/T= 2.0006
 ExpMin= 2.97D-02 ExpMax= 1.11D+05 ExpMxC= 1.07D+03 IAcc=3 IRadAn=         5 AccDes= 0.00D+00
 HarFok:  IExCor=  205 AccDes= 0.00D+00 IRadAn=         5 IDoV=-2 UseB2=F ITyADJ=14
 ICtDFT= 12500011 ScaDFX=  1.000000  1.000000  1.000000  1.000000
 GSVD:  LWork=        -884 too small for GESVD, short by        3770 words or        3770 for optimal perf.
 Range of M.O.s used for correlation:    27   388
 NBasis=   388 NAE=    61 NBE=    61 NFC=    26 NFV=     0
 NROrb=    362 NOA=    35 NOB=    35 NVA=   327 NVB=   327

 **** Warning!!: The largest alpha MO coefficient is  0.69585306D+02

 Fully direct method using O(ONN) memory.
 JobTyp=1 Pass  1:  I=  27 to  61 NPSUse=  8 ParTrn=T ParDer=T DoDerP=T.
 Spin components of T(2) and E(2):
     alpha-alpha T2 =       0.1171341920D+00 E2=     -0.2769537377D+00
     alpha-beta  T2 =       0.5699244760D+00 E2=     -0.1434734755D+01
     beta-beta   T2 =       0.1171341920D+00 E2=     -0.2769537377D+00
 ANorm=    0.1343202464D+01
 E2 =    -0.1988642231D+01 EUMP2 =    -0.16516215237219D+04
          IDoAtm=11111111111111111111
          Differentiating once with respect to electric field.
                with respect to dipole field.
          Differentiating once with respect to nuclear coordinates.
 Keep R1 ints in memory in canonical form, NReq=2883857471.
          There are     1 degrees of freedom in the 1st order CPHF.  IDoFFX=0 NUNeed=     1.
 LinEq1:  Iter=  0 NonCon=     1 RMS=2.90D-03 Max=6.48D-02 NDo=     1
 AX will form     1 AO Fock derivatives at one time.
 LinEq1:  Iter=  1 NonCon=     1 RMS=7.15D-04 Max=1.07D-02 NDo=     1
 LinEq1:  Iter=  2 NonCon=     1 RMS=3.67D-04 Max=1.17D-02 NDo=     1
 LinEq1:  Iter=  3 NonCon=     1 RMS=9.89D-05 Max=2.60D-03 NDo=     1
 LinEq1:  Iter=  4 NonCon=     1 RMS=3.83D-05 Max=6.68D-04 NDo=     1
 LinEq1:  Iter=  5 NonCon=     1 RMS=1.66D-05 Max=7.59D-04 NDo=     1
 LinEq1:  Iter=  6 NonCon=     1 RMS=6.87D-06 Max=2.09D-04 NDo=     1
 LinEq1:  Iter=  7 NonCon=     1 RMS=3.28D-06 Max=1.51D-04 NDo=     1
 LinEq1:  Iter=  8 NonCon=     1 RMS=1.29D-06 Max=5.43D-05 NDo=     1
 LinEq1:  Iter=  9 NonCon=     1 RMS=6.07D-07 Max=2.49D-05 NDo=     1
 LinEq1:  Iter= 10 NonCon=     1 RMS=2.31D-07 Max=3.83D-06 NDo=     1
 LinEq1:  Iter= 11 NonCon=     1 RMS=1.08D-07 Max=5.12D-06 NDo=     1
 LinEq1:  Iter= 12 NonCon=     1 RMS=4.05D-08 Max=6.11D-07 NDo=     1
 LinEq1:  Iter= 13 NonCon=     1 RMS=1.78D-08 Max=3.97D-07 NDo=     1
 LinEq1:  Iter= 14 NonCon=     1 RMS=6.67D-09 Max=1.60D-07 NDo=     1
 LinEq1:  Iter= 15 NonCon=     1 RMS=2.81D-09 Max=9.96D-08 NDo=     1
 LinEq1:  Iter= 16 NonCon=     1 RMS=9.94D-10 Max=2.37D-08 NDo=     1
 LinEq1:  Iter= 17 NonCon=     1 RMS=4.14D-10 Max=1.31D-08 NDo=     1
 LinEq1:  Iter= 18 NonCon=     1 RMS=1.46D-10 Max=2.48D-09 NDo=     1
 LinEq1:  Iter= 19 NonCon=     0 RMS=4.88D-11 Max=7.70D-10 NDo=     1
 Linear equations converged to 1.000D-10 1.000D-09 after    19 iterations.
 End of Minotr F.D. properties file   721 does not exist.
 End of Minotr F.D. properties file   722 does not exist.
 End of Minotr F.D. properties file   788 does not exist.
 Calling FoFJK, ICntrl=  10002127 FMM=F ISym2X=0 I1Cent= 0 IOpClX= 0 NMat=1 NMatS=1 NMatT=0.
 ***** Axes restored to original set *****
 -------------------------------------------------------------------
 Center     Atomic                   Forces (Hartrees/Bohr)
 Number     Number              X              Y              Z
 -------------------------------------------------------------------
      1        6           0.007416939    0.005056703   -0.001529266
      2        6          -0.015233714   -0.003185253    0.001658677
      3        6           0.008179448   -0.004757916    0.000888734
      4        6          -0.002086123   -0.004305459    0.001400690
      5        1          -0.000525093   -0.000928019    0.000314903
      6       16          -0.000532139    0.004909199   -0.002110282
      7        1           0.000209532    0.000040225   -0.000018715
      8        6          -0.007311368    0.002778609    0.001730273
      9       16           0.001189365   -0.003005237   -0.002221774
     10        6           0.005903503    0.007854499    0.003098999
     11        6          -0.005721916   -0.007833146   -0.002746232
     12        6           0.008581281   -0.001342082    0.000132987
     13        1          -0.001256315    0.000755352   -0.000042526
     14       16          -0.000904019    0.003731518    0.001461385
     15        6           0.003270776   -0.002269560   -0.000997815
     16        6          -0.006899780    0.000174811   -0.000016539
     17        1           0.000038415   -0.000164789   -0.000007626
     18        1           0.000875446   -0.000498518   -0.000206243
     19        8           0.007981422    0.002895996   -0.000494678
     20        1          -0.003175663    0.000093066   -0.000294953
 -------------------------------------------------------------------
 Cartesian Forces:  Max     0.015233714 RMS     0.004088793

 GradGradGradGradGradGradGradGradGradGradGradGradGradGradGradGradGradGrad
 Berny optimization.
 Using GEDIIS/GDIIS optimizer.
 FormGI is forming the generalized inverse of G from B-inverse, IUseBI=4.
 Internal  Forces:  Max     0.005192930 RMS     0.001625578
 Search for a local minimum.
 Step number   2 out of a maximum of  116
 All quantities printed in internal units (Hartrees-Bohrs-Radians)
 Mixed Optimization -- RFO/linear search
 Update second derivatives using D2CorX and points    1    2
 DE= -1.02D-02 DEPred=-9.99D-03 R= 1.02D+00
 TightC=F SS=  1.41D+00  RLast= 1.96D-01 DXNew= 5.0454D-01 5.8802D-01
 Trust test= 1.02D+00 RLast= 1.96D-01 DXMaxT set to 5.05D-01
 ITU=  1  0
 Use linear search instead of GDIIS.
     Eigenvalues ---    0.01498   0.01581   0.01629   0.01715   0.01754
     Eigenvalues ---    0.01761   0.01981   0.02015   0.02067   0.02137
     Eigenvalues ---    0.02218   0.02267   0.02321   0.02357   0.02374
     Eigenvalues ---    0.02446   0.15767   0.15999   0.15999   0.16000
     Eigenvalues ---    0.16000   0.16034   0.22514   0.22594   0.23693
     Eigenvalues ---    0.24328   0.24768   0.24901   0.24962   0.24990
     Eigenvalues ---    0.25247   0.29183   0.29906   0.30295   0.31066
     Eigenvalues ---    0.31374   0.32657   0.35938   0.36059   0.36250
     Eigenvalues ---    0.36317   0.36428   0.36761   0.38774   0.39322
     Eigenvalues ---    0.39599   0.45295   0.50153   0.51587   0.53101
     Eigenvalues ---    0.53964   0.55263   0.593081000.000001000.00000
     Eigenvalues --- 1000.000001000.000001000.000001000.000001000.00000
     Eigenvalues --- 1000.000001000.000001000.000001000.000001000.00000
     Eigenvalues --- 1000.000001000.000001000.000001000.000001000.00000
     Eigenvalues --- 1000.000001000.000001000.000001000.000001000.00000
     Eigenvalues --- 1000.000001000.000001000.000001000.000001000.00000
     Eigenvalues --- 1000.000001000.000001000.000001000.000001000.00000
     Eigenvalues --- 1000.000001000.000001000.000001000.000001000.00000
     Eigenvalues --- 1000.000001000.000001000.000001000.000001000.00000
     Eigenvalues --- 1000.000001000.000001000.000001000.000001000.00000
     Eigenvalues --- 1000.000001000.000001000.000001000.000001000.00000
     Eigenvalues --- 1000.00000
 RFO step:  Lambda=-8.92750050D-04 EMin= 1.49757415D-02
 Quartic linear search produced a step of  0.10736.
 Iteration  1 RMS(Cart)=  0.01366549 RMS(Int)=  0.00010979
 Iteration  2 RMS(Cart)=  0.00016374 RMS(Int)=  0.00001927
 Iteration  3 RMS(Cart)=  0.00000001 RMS(Int)=  0.00001927
 Iteration  1 RMS(Cart)=  0.00000909 RMS(Int)=  0.00000423
 Iteration  2 RMS(Cart)=  0.00000497 RMS(Int)=  0.00000473
 Iteration  3 RMS(Cart)=  0.00000272 RMS(Int)=  0.00000534
 Iteration  4 RMS(Cart)=  0.00000149 RMS(Int)=  0.00000575
 Iteration  5 RMS(Cart)=  0.00000081 RMS(Int)=  0.00000599
 Variable       Old X    -DE/DX   Delta X   Delta X   Delta X     New X
                                 (Linear)    (Quad)   (Total)
    R1        2.71176  -0.00519  -0.00051  -0.01411  -0.01463   2.69713
    R2        2.61822   0.00284   0.00751   0.00167   0.00917   2.62738
    R3        2.06686  -0.00016   0.00283  -0.00191   0.00091   2.06777
    R4        2.63083   0.00445   0.00760   0.00511   0.01272   2.64355
    R5        2.58956   0.00424   0.00419   0.00630   0.01048   2.60004
    R6        3.31283  -0.00302   0.00074  -0.01125  -0.01049   3.30234
    R7        2.75630  -0.00222  -0.00162  -0.00596  -0.00759   2.74871
    R8        3.27308  -0.00076   0.00206  -0.00356  -0.00150   3.27158
    R9        2.06097  -0.00020   0.00298  -0.00209   0.00089   2.06186
   R10        3.34131  -0.00082   0.00184  -0.00425  -0.00241   3.33890
   R11        2.63092   0.00392   0.00756   0.00395   0.01152   2.64244
   R12        3.29601  -0.00123   0.00171  -0.00509  -0.00338   3.29262
   R13        2.65976   0.00515   0.00871   0.00675   0.01546   2.67522
   R14        2.70880  -0.00346  -0.00018  -0.00927  -0.00945   2.69935
   R15        2.69918  -0.00335  -0.00069  -0.00857  -0.00927   2.68991
   R16        3.29784  -0.00136   0.00158  -0.00535  -0.00377   3.29407
   R17        2.06458  -0.00030   0.00296  -0.00240   0.00055   2.06513
   R18        3.31444  -0.00132   0.00177  -0.00593  -0.00416   3.31028
   R19        2.61788   0.00248   0.00722   0.00100   0.00821   2.62610
   R20        2.06199   0.00003   0.00288  -0.00135   0.00153   2.06352
   R21        2.06310  -0.00027   0.00282  -0.00224   0.00058   2.06368
   R22        1.82290   0.00272   0.00453   0.00264   0.00717   1.83007
    A1        1.95687   0.00046  -0.00025   0.00256   0.00230   1.95916
    A2        2.15941   0.00091   0.00013   0.00654   0.00667   2.16608
    A3        2.16687  -0.00137   0.00012  -0.00911  -0.00899   2.15789
    A4        1.97485   0.00157  -0.00121   0.00771   0.00650   1.98136
    A5        2.18365   0.00265   0.00286   0.01026   0.01311   2.19677
    A6        2.12463  -0.00422  -0.00165  -0.01797  -0.01963   2.10500
    A7        1.93139  -0.00244   0.00122  -0.01129  -0.01010   1.92130
    A8        2.25360   0.00043  -0.00063   0.00189   0.00120   2.25479
    A9        2.09788   0.00202  -0.00061   0.00895   0.00827   2.10614
   A10        1.95829  -0.00189   0.00031  -0.00947  -0.00917   1.94912
   A11        2.23076   0.00103   0.00089   0.00492   0.00581   2.23658
   A12        2.09411   0.00086  -0.00119   0.00455   0.00336   2.09747
   A13        1.60325   0.00230  -0.00007   0.01050   0.01046   1.61371
   A14        2.09826   0.00062  -0.00166   0.00357   0.00189   2.10015
   A15        2.21384   0.00123   0.00020   0.00533   0.00552   2.21936
   A16        1.96956  -0.00183   0.00146  -0.00938  -0.00793   1.96163
   A17        1.58323   0.00247  -0.00042   0.01063   0.01022   1.59345
   A18        1.94555  -0.00234   0.00064  -0.01053  -0.00988   1.93567
   A19        2.35396   0.00142   0.00000   0.00561   0.00561   2.35957
   A20        1.98354   0.00092  -0.00064   0.00490   0.00426   1.98780
   A21        1.98611   0.00102  -0.00047   0.00498   0.00450   1.99061
   A22        1.94331  -0.00247   0.00033  -0.01058  -0.01025   1.93307
   A23        2.35356   0.00145   0.00014   0.00549   0.00561   2.35917
   A24        1.94028   0.00068  -0.00121   0.00425   0.00304   1.94332
   A25        2.15394  -0.00179   0.00016  -0.01195  -0.01178   2.14216
   A26        2.18889   0.00110   0.00104   0.00765   0.00868   2.19757
   A27        1.58144   0.00224   0.00013   0.00971   0.00985   1.59129
   A28        1.98465  -0.00133   0.00087  -0.00763  -0.00676   1.97789
   A29        2.07620   0.00050  -0.00121   0.00301   0.00180   2.07799
   A30        2.22233   0.00083   0.00034   0.00462   0.00496   2.22729
   A31        1.93181   0.00065  -0.00070   0.00360   0.00289   1.93471
   A32        2.18723   0.00070   0.00046   0.00519   0.00566   2.19289
   A33        2.16413  -0.00135   0.00023  -0.00880  -0.00856   2.15557
   A34        1.91021  -0.00303  -0.00299  -0.01965  -0.02264   1.88757
    D1       -0.00192   0.00010  -0.00007  -0.00236  -0.00241  -0.00433
    D2        3.12928   0.00005  -0.00015  -0.00355  -0.00369   3.12559
    D3       -3.13454   0.00006   0.00010  -0.00020  -0.00009  -3.13463
    D4       -0.00334   0.00002   0.00001  -0.00139  -0.00137  -0.00471
    D5        0.01158   0.00003   0.00023   0.00146   0.00169   0.01327
    D6       -3.13620  -0.00004   0.00019   0.00146   0.00163  -3.13456
    D7       -3.13903   0.00008   0.00007  -0.00061  -0.00053  -3.13956
    D8       -0.00362   0.00000   0.00002  -0.00061  -0.00058  -0.00421
    D9       -0.00840  -0.00018  -0.00013   0.00212   0.00196  -0.00644
   D10        3.10557   0.00003  -0.00092  -0.01702  -0.01786   3.08771
   D11       -3.14000  -0.00019  -0.00008   0.00308   0.00296  -3.13704
   D12       -0.02603   0.00003  -0.00087  -0.01606  -0.01686  -0.04289
   D13        0.01110  -0.00010  -0.00014  -0.00453  -0.00467   0.00643
   D14        3.14146  -0.00012  -0.00023  -0.00565  -0.00588   3.13558
   D15        0.01260   0.00018   0.00022  -0.00106  -0.00080   0.01180
   D16       -3.10420   0.00000   0.00094   0.01621   0.01715  -3.08704
   D17        0.78631  -0.00107  -0.00000   0.00000   0.00001   0.78631
   D18       -2.41909  -0.00077  -0.00004  -0.01032  -0.01037  -2.42946
   D19       -2.38519  -0.00090  -0.00084  -0.02100  -0.02190  -2.40709
   D20        0.69260  -0.00060  -0.00088  -0.03132  -0.03227   0.66033
   D21       -0.01392  -0.00013  -0.00026  -0.00029  -0.00056  -0.01447
   D22        3.13331  -0.00006  -0.00022  -0.00030  -0.00052   3.13279
   D23        3.09279   0.00020  -0.00001  -0.00551  -0.00548   3.08731
   D24        0.00659  -0.00016   0.00005   0.00300   0.00305   0.00964
   D25       -3.08535  -0.00012   0.00027   0.00873   0.00899  -3.07636
   D26        0.06848  -0.00008   0.00041   0.01291   0.01328   0.08176
   D27       -0.00358   0.00023   0.00013  -0.00059  -0.00043  -0.00401
   D28       -3.13294   0.00027   0.00027   0.00360   0.00386  -3.12907
   D29       -0.00781   0.00005  -0.00022  -0.00458  -0.00477  -0.01258
   D30        3.11440  -0.00002  -0.00018  -0.00583  -0.00598   3.10842
   D31        0.00742   0.00007   0.00034   0.00520   0.00553   0.01295
   D32        3.13092  -0.00003   0.00002  -0.00002   0.00001   3.13094
   D33       -3.11918   0.00011   0.00030   0.00611   0.00640  -3.11278
[...]
 ---------------------------------------------------------------------
 Center     Atomic      Atomic             Coordinates (Angstroms)
 Number     Number       Type             X           Y           Z
 ---------------------------------------------------------------------
      1          6           0        4.034421    0.351100    0.288321
      2          6           0        2.697487    0.830399    0.376280
      3          6           0        1.736475   -0.110687   -0.014437
      4          6           0        4.092464   -0.963993   -0.162759
      5          1           0        4.920008    0.936795    0.549846
      6         16           0        2.517338   -1.595396   -0.496407
      7          1           0        4.976092   -1.581114   -0.325557
      8          6           0        0.287792   -0.006136    0.019318
      9         16           0       -0.517886    1.458105   -0.550722
     10          6           0       -2.085071    0.742548   -0.298557
     11          6           0       -1.963350   -0.581792    0.192280
     12          6           0       -0.620974   -1.008639    0.374925
     13          1           0       -0.300293   -1.978806    0.760978
     14         16           0       -3.533728   -1.283263    0.470711
     15          6           0       -4.323620    0.183982   -0.062759
     16          6           0       -3.433977    1.183046   -0.438510
     17          1           0       -5.413801    0.224920   -0.075764
     18          1           0       -3.751939    2.163638   -0.797198
     19          8           0        2.310757    2.083800    0.800116
     20          1           0        3.102415    2.574055    1.064835
 ---------------------------------------------------------------------
 Rotational constants (GHZ):           1.2711255           0.2754724           0.2361880

 **********************************************************************

            Population analysis using the SCF Density.

 **********************************************************************

 Orbital symmetries:
       Occupied  (A) (A) (A) (A) (A) (A) (A) (A) (A) (A) (A) (A)
                 (A) (A) (A) (A) (A) (A) (A) (A) (A) (A) (A) (A)
                 (A) (A) (A) (A) (A) (A) (A) (A) (A) (A) (A) (A)
                 (A) (A) (A) (A) (A) (A) (A) (A) (A) (A) (A) (A)
                 (A) (A) (A) (A) (A) (A) (A) (A) (A) (A) (A) (A)
                 (A)
       Virtual   (A) (A) (A) (A) (A) (A) (A) (A) (A) (A) (A) (A)
                 (A) (A) (A) (A) (A) (A) (A) (A) (A) (A) (A) (A)
                 (A) (A) (A) (A) (A) (A) (A) (A) (A) (A) (A) (A)
                 (A) (A) (A) (A) (A) (A) (A) (A) (A) (A) (A) (A)
                 (A) (A) (A) (A) (A) (A) (A) (A) (A) (A) (A) (A)
                 (A) (A) (A) (A) (A) (A) (A) (A) (A) (A) (A) (A)
                 (A) (A) (A) (A) (A) (A) (A) (A) (A) (A) (A) (A)
                 (A) (A) (A) (A) (A) (A) (A) (A) (A) (A) (A) (A)
                 (A) (A) (A) (A) (A) (A) (A) (A) (A) (A) (A) (A)
                 (A) (A) (A) (A) (A) (A) (A) (A) (A) (A) (A) (A)
                 (A) (A) (A) (A) (A) (A) (A) (A) (A) (A) (A) (A)
                 (A) (A) (A) (A) (A) (A) (A) (A) (A) (A) (A) (A)
                 (A) (A) (A) (A) (A) (A) (A) (A) (A) (A) (A) (A)
                 (A) (A) (A) (A) (A) (A) (A) (A) (A) (A) (A) (A)
                 (A) (A) (A) (A) (A) (A) (A) (A) (A) (A) (A) (A)
                 (A) (A) (A) (A) (A) (A) (A) (A) (A) (A) (A) (A)
                 (A) (A) (A) (A) (A) (A) (A) (A) (A) (A) (A) (A)
                 (A) (A) (A) (A) (A) (A) (A) (A) (A) (A) (A) (A)
                 (A) (A) (A) (A) (A) (A) (A) (A) (A) (A) (A) (A)
                 (A) (A) (A) (A) (A) (A) (A) (A) (A) (A) (A) (A)
                 (A) (A) (A) (A) (A) (A) (A) (A) (A) (A) (A) (A)
                 (A) (A) (A) (A) (A) (A) (A) (A) (A) (A) (A) (A)
                 (A) (A) (A) (A) (A) (A) (A) (A) (A) (A) (A) (A)
                 (A) (A) (A) (A) (A) (A) (A) (A) (A) (A) (A) (A)
                 (A) (A) (A) (A) (A) (A) (A) (A) (A) (A) (A) (A)
                 (A) (A) (A) (A) (A) (A) (A) (A) (A) (A) (A) (A)
                 (A) (A) (A) (A) (A) (A) (A) (A) (A) (A) (A) (A)
                 (A) (A) (A)
 The electronic state is 1-A.
 Alpha  occ. eigenvalues --  -91.99757 -91.98996 -91.98769 -20.61498 -11.32531
 Alpha  occ. eigenvalues --  -11.29307 -11.29233 -11.27981 -11.27903 -11.27499
 Alpha  occ. eigenvalues --  -11.27358 -11.26521 -11.26068 -11.25925  -8.99890
 Alpha  occ. eigenvalues --   -8.99109  -8.98861  -6.68054  -6.67962  -6.67776
 Alpha  occ. eigenvalues --   -6.67275  -6.67195  -6.67021  -6.66998  -6.66936
 Alpha  occ. eigenvalues --   -6.66736  -1.41568  -1.20132  -1.17677  -1.11566
 Alpha  occ. eigenvalues --   -1.02385  -1.01873  -0.98890  -0.94429  -0.93791
 Alpha  occ. eigenvalues --   -0.82530  -0.80584  -0.76363  -0.73999  -0.71324
 Alpha  occ. eigenvalues --   -0.69564  -0.66456  -0.65803  -0.60935  -0.60422
 Alpha  occ. eigenvalues --   -0.58571  -0.56565  -0.55484  -0.54089  -0.52752
 Alpha  occ. eigenvalues --   -0.52470  -0.50888  -0.49587  -0.48289  -0.45875
 Alpha  occ. eigenvalues --   -0.45640  -0.38734  -0.35288  -0.33621  -0.31625
 Alpha  occ. eigenvalues --   -0.26714
 Alpha virt. eigenvalues --    0.02782   0.03733   0.03939   0.04968   0.05114
 Alpha virt. eigenvalues --    0.06166   0.06253   0.08449   0.08622   0.09235
 Alpha virt. eigenvalues --    0.10290   0.10453   0.10512   0.10722   0.11179
 Alpha virt. eigenvalues --    0.12242   0.12766   0.12913   0.12992   0.13333
 Alpha virt. eigenvalues --    0.13852   0.14222   0.14270   0.14606   0.15151
 Alpha virt. eigenvalues --    0.15283   0.15608   0.16520   0.16804   0.17290
 Alpha virt. eigenvalues --    0.17949   0.18009   0.18569   0.18935   0.19134
 Alpha virt. eigenvalues --    0.19269   0.19887   0.20642   0.21753   0.21849
 Alpha virt. eigenvalues --    0.22088   0.22518   0.22906   0.23046   0.23172
 Alpha virt. eigenvalues --    0.24055   0.24345   0.25188   0.25572   0.25665
 Alpha virt. eigenvalues --    0.26230   0.26912   0.27429   0.27568   0.28003
 Alpha virt. eigenvalues --    0.28738   0.29805   0.30314   0.31084   0.31499
 Alpha virt. eigenvalues --    0.31922   0.32277   0.32432   0.32662   0.33222
 Alpha virt. eigenvalues --    0.33577   0.33862   0.34385   0.35036   0.35750
 Alpha virt. eigenvalues --    0.35882   0.37117   0.37780   0.38207   0.38778
 Alpha virt. eigenvalues --    0.39927   0.40649   0.40847   0.40980   0.41915
 Alpha virt. eigenvalues --    0.42467   0.43398   0.44784   0.45249   0.45595
 Alpha virt. eigenvalues --    0.45768   0.46653   0.46875   0.47511   0.48370
 Alpha virt. eigenvalues --    0.48881   0.49236   0.49666   0.50782   0.52036
 Alpha virt. eigenvalues --    0.52175   0.53330   0.53691   0.54308   0.54651
 Alpha virt. eigenvalues --    0.55672   0.56278   0.58046   0.58497   0.59308
 Alpha virt. eigenvalues --    0.60224   0.60844   0.61488   0.61959   0.62353
 Alpha virt. eigenvalues --    0.62653   0.62792   0.63924   0.65240   0.65428
 Alpha virt. eigenvalues --    0.66545   0.66900   0.67008   0.67595   0.68220
 Alpha virt. eigenvalues --    0.68430   0.69063   0.69529   0.69908   0.70253
 Alpha virt. eigenvalues --    0.70419   0.71638   0.72194   0.72536   0.73329
 Alpha virt. eigenvalues --    0.73833   0.74166   0.74416   0.75524   0.75747
 Alpha virt. eigenvalues --    0.76891   0.77508   0.77767   0.78818   0.79801
 Alpha virt. eigenvalues --    0.80718   0.82150   0.83426   0.84233   0.84957
 Alpha virt. eigenvalues --    0.85427   0.86077   0.86864   0.87442   0.87498
 Alpha virt. eigenvalues --    0.87711   0.89016   0.90161   0.90824   0.91290
 Alpha virt. eigenvalues --    0.91659   0.91985   0.93794   0.94601   0.94804
 Alpha virt. eigenvalues --    0.95177   0.96005   0.96562   0.97447   0.98639
 Alpha virt. eigenvalues --    0.99528   1.00096   1.00410   1.01350   1.03018
 Alpha virt. eigenvalues --    1.04013   1.04288   1.05020   1.06587   1.07713
 Alpha virt. eigenvalues --    1.08356   1.09737   1.11134   1.11800   1.13277
 Alpha virt. eigenvalues --    1.14163   1.14801   1.15389   1.17726   1.18187
 Alpha virt. eigenvalues --    1.19309   1.19842   1.21709   1.22330   1.23616
 Alpha virt. eigenvalues --    1.24092   1.24697   1.25513   1.26664   1.27873
 Alpha virt. eigenvalues --    1.28254   1.29074   1.29522   1.31101   1.31929
 Alpha virt. eigenvalues --    1.33649   1.34704   1.35238   1.36018   1.37259
 Alpha virt. eigenvalues --    1.38180   1.39125   1.39312   1.41149   1.42121
 Alpha virt. eigenvalues --    1.43169   1.44296   1.44866   1.47245   1.48733
 Alpha virt. eigenvalues --    1.49795   1.52480   1.55083   1.55589   1.56841
 Alpha virt. eigenvalues --    1.57398   1.59265   1.60139   1.60437   1.61704
 Alpha virt. eigenvalues --    1.62407   1.63080   1.64187   1.67018   1.67547
 Alpha virt. eigenvalues --    1.68111   1.69137   1.69268   1.70162   1.71889
 Alpha virt. eigenvalues --    1.73257   1.73530   1.75011   1.75789   1.77237
 Alpha virt. eigenvalues --    1.79604   1.80360   1.81177   1.82747   1.83782
 Alpha virt. eigenvalues --    1.84283   1.85586   1.87046   1.89395   1.90390
 Alpha virt. eigenvalues --    1.90549   1.91521   1.94567   1.95617   1.96380
 Alpha virt. eigenvalues --    1.97379   1.99727   2.00465   2.02803   2.03344
 Alpha virt. eigenvalues --    2.03684   2.06862   2.07559   2.08532   2.08887
 Alpha virt. eigenvalues --    2.09945   2.10457   2.12397   2.12810   2.14552
 Alpha virt. eigenvalues --    2.16154   2.18137   2.19434   2.19670   2.21464
 Alpha virt. eigenvalues --    2.22082   2.24005   2.25423   2.27237   2.29458
 Alpha virt. eigenvalues --    2.30330   2.31825   2.32360   2.34317   2.36448
 Alpha virt. eigenvalues --    2.36673   2.39466   2.42301   2.43123   2.45057
 Alpha virt. eigenvalues --    2.46517   2.47179   2.47900   2.48571   2.50361
 Alpha virt. eigenvalues --    2.54454   2.55729   2.56351   2.57767   2.62105
 Alpha virt. eigenvalues --    2.71174   2.77228   2.79148   2.81191   2.83787
 Alpha virt. eigenvalues --    2.87612   2.90037   2.94170   2.96717   3.00264
 Alpha virt. eigenvalues --    3.12027   3.14825   3.21159   3.23793   3.31340
 Alpha virt. eigenvalues --    3.36491   3.45261   3.49199   3.61857   3.75263
 Alpha virt. eigenvalues --    3.76835   3.77603   3.86760   3.89696   4.18470
 Alpha virt. eigenvalues --    4.23809   4.43726
          Condensed to atoms (all electrons):
               1          2          3          4          5          6
     1  C    7.836958  -2.219641   0.132023   0.259770  -0.045732  -0.283481
     2  C   -2.219641  10.769846  -2.094354   0.338375   0.134081  -0.414994
     3  C    0.132023  -2.094354  10.592115  -1.113586   0.025274   0.006986
     4  C    0.259770   0.338375  -1.113586   6.226325  -0.076906   0.289352
     5  H   -0.045732   0.134081   0.025274  -0.076906   1.545410  -0.016803
     6  S   -0.283481  -0.414994   0.006986   0.289352  -0.016803  16.116422
     7  H   -0.036110   0.044963   0.015880   0.260971  -0.060103  -0.132387
     8  C   -0.023989   0.091827  -1.862549   0.320994  -0.023347  -0.247880
     9  S   -0.067318   0.313428  -0.405230   0.031897   0.002785  -0.071652
    10  C   -0.046896   0.084485  -0.123695   0.022227  -0.000724   0.007879
    11  C   -0.013822   0.006872   0.329444  -0.027796   0.000609  -0.007132
    12  C    0.066827  -0.870516  -0.146594  -0.196589  -0.003140   0.278157
    13  H   -0.017892   0.056204   0.041402   0.013833  -0.001142   0.000465
    14  S    0.000855  -0.009368  -0.054856  -0.000727   0.000049   0.002484
    15  C   -0.001713   0.001148   0.014411   0.000327  -0.000087  -0.000948
    16  C   -0.002455   0.003787  -0.277464  -0.000385  -0.000335   0.012693
    17  H   -0.000091   0.000372  -0.000744   0.000002  -0.000006  -0.000019
    18  H    0.000145   0.000698  -0.005302  -0.000068   0.000022   0.000225
    19  O    0.135780  -0.761456   0.271088  -0.070498  -0.053461   0.017550
    20  H   -0.127725   0.033778  -0.036964  -0.007869  -0.009454   0.009606
               7          8          9         10         11         12
     1  C   -0.036110  -0.023989  -0.067318  -0.046896  -0.013822   0.066827
     2  C    0.044963   0.091827   0.313428   0.084485   0.006872  -0.870516
     3  C    0.015880  -1.862549  -0.405230  -0.123695   0.329444  -0.146594
     4  C    0.260971   0.320994   0.031897   0.022227  -0.027796  -0.196589
     5  H   -0.060103  -0.023347   0.002785  -0.000724   0.000609  -0.003140
     6  S   -0.132387  -0.247880  -0.071652   0.007879  -0.007132   0.278157
     7  H    1.209106   0.015115  -0.000564   0.000586   0.000570   0.001170
     8  C    0.015115  11.690519   0.265225  -0.411698  -0.429899  -3.676521
     9  S   -0.000564   0.265225  16.420244   0.178466  -0.310016  -0.620276
    10  C    0.000586  -0.411698   0.178466   9.900150  -0.258392  -0.784095
    11  C    0.000570  -0.429899  -0.310016  -0.258392  11.753179  -3.506055
    12  C    0.001170  -3.676521  -0.620276  -0.784095  -3.506055  16.298029
    13  H    0.002400   0.435509   0.031922  -0.103059   0.517457  -1.092022
    14  S   -0.000106  -0.335442   0.111017   0.066039  -0.395441   0.108302
    15  C    0.000027   0.056782  -0.091153  -0.165992  -0.875008  -0.004922
    16  C   -0.000028  -0.167356  -0.245037  -2.328001  -0.547291   0.018648
    17  H    0.000003  -0.000419   0.010039   0.066751  -0.070625   0.029936
    18  H   -0.000006   0.067907   0.022913   0.427641   0.048265  -0.053214
    19  O   -0.002094   0.063766  -0.054911   0.006774  -0.010029   0.028704
    20  H    0.000984   0.007234   0.011211   0.004787  -0.002240  -0.005330
              13         14         15         16         17         18
     1  C   -0.017892   0.000855  -0.001713  -0.002455  -0.000091   0.000145
     2  C    0.056204  -0.009368   0.001148   0.003787   0.000372   0.000698
     3  C    0.041402  -0.054856   0.014411  -0.277464  -0.000744  -0.005302
     4  C    0.013833  -0.000727   0.000327  -0.000385   0.000002  -0.000068
     5  H   -0.001142   0.000049  -0.000087  -0.000335  -0.000006   0.000022
     6  S    0.000465   0.002484  -0.000948   0.012693  -0.000019   0.000225
     7  H    0.002400  -0.000106   0.000027  -0.000028   0.000003  -0.000006
     8  C    0.435509  -0.335442   0.056782  -0.167356  -0.000419   0.067907
     9  S    0.031922   0.111017  -0.091153  -0.245037   0.010039   0.022913
    10  C   -0.103059   0.066039  -0.165992  -2.328001   0.066751   0.427641
    11  C    0.517457  -0.395441  -0.875008  -0.547291  -0.070625   0.048265
    12  C   -1.092022   0.108302  -0.004922   0.018648   0.029936  -0.053214
    13  H    1.636827  -0.046748   0.012135  -0.039771   0.001718  -0.000433
    14  S   -0.046748  15.947492   0.196607  -0.038606  -0.141711  -0.000234
    15  C    0.012135   0.196607   6.552945   0.306093   0.295757  -0.132239
    16  C   -0.039771  -0.038606   0.306093   9.337140  -0.023707  -0.362621
    17  H    0.001718  -0.141711   0.295757  -0.023707   1.244514  -0.061409
    18  H   -0.000433  -0.000234  -0.132239  -0.362621  -0.061409   1.337381
    19  O   -0.000036   0.000772   0.000159   0.001448   0.000014   0.000077
    20  H    0.000602  -0.000109   0.000177   0.000961   0.000010   0.000019
              19         20
     1  C    0.135780  -0.127725
     2  C   -0.761456   0.033778
     3  C    0.271088  -0.036964
     4  C   -0.070498  -0.007869
     5  H   -0.053461  -0.009454
     6  S    0.017550   0.009606
     7  H   -0.002094   0.000984
     8  C    0.063766   0.007234
     9  S   -0.054911   0.011211
    10  C    0.006774   0.004787
    11  C   -0.010029  -0.002240
    12  C    0.028704  -0.005330
    13  H   -0.000036   0.000602
    14  S    0.000772  -0.000109
    15  C    0.000159   0.000177
    16  C    0.001448   0.000961
    17  H    0.000014   0.000010
    18  H    0.000077   0.000019
    19  O    9.041255   0.349481
    20  H    0.349481   0.573454
 Mulliken charges:
               1
     1  C    0.454505
     2  C    0.490465
     3  C    0.692715
     4  C   -0.269648
     5  H   -0.416991
     6  S    0.433479
     7  H   -0.320375
     8  C    0.164222
     9  S    0.467011
    10  C   -0.543233
    11  C   -0.202649
    12  C    0.129501
    13  H   -0.449371
    14  S    0.589728
    15  C   -0.164503
    16  C    0.352288
    17  H   -0.350382
    18  H   -0.289766
    19  O   -0.964381
    20  H    0.197388
 Sum of Mulliken charges =   0.00000
 Mulliken charges with hydrogens summed into heavy atoms:
               1
     1  C    0.037514
     2  C    0.490465
     3  C    0.692715
     4  C   -0.590024
     6  S    0.433479
     8  C    0.164222
     9  S    0.467011
    10  C   -0.543233
    11  C   -0.202649
    12  C   -0.319871
    14  S    0.589728
    15  C   -0.514886
    16  C    0.062522
    19  O   -0.766993
 Electronic spatial extent (au):  <R**2>=           4333.9485
 Charge=              0.0000 electrons
 Dipole moment (field-independent basis, Debye):
    X=              2.5030    Y=              0.8240    Z=              0.4974  Tot=              2.6816
 Quadrupole moment (field-independent basis, Debye-Ang):
   XX=            -76.4953   YY=            -97.4873   ZZ=           -109.2301
   XY=              0.4553   XZ=              4.3583   YZ=              0.0275
 Traceless Quadrupole moment (field-independent basis, Debye-Ang):
   XX=             17.9090   YY=             -3.0831   ZZ=            -14.8259
   XY=              0.4553   XZ=              4.3583   YZ=              0.0275
 Octapole moment (field-independent basis, Debye-Ang**2):
  XXX=             57.6894  YYY=             19.1914  ZZZ=              5.1596  XYY=             23.4658
  XXY=             35.8500  XXZ=              7.4619  XZZ=              8.0429  YZZ=              6.1008
  YYZ=              4.5749  XYZ=             20.0249
 Hexadecapole moment (field-independent basis, Debye-Ang**3):
 XXXX=          -3988.1352 YYYY=           -939.6322 ZZZZ=           -260.1530 XXXY=              7.1681
 XXXZ=             71.6778 YYYX=             40.7581 YYYZ=             14.0591 ZZZX=             11.8263
 ZZZY=             11.8554 XXYY=           -847.9712 XXZZ=           -912.2824 YYZZ=           -202.3367
 XXYZ=             41.8256 YYXZ=             31.3857 ZZXY=             20.0179
 N-N= 1.121211560922D+03 E-N=-6.148982869526D+03  KE= 1.648692264336D+03
 Unable to Open any file for archive entry.
 1\1\GINC-CX3-11-7\FOpt\RMP2-FC\Aug-CC-pVDZ\C10H6O1S3\NS5018\27-Oct-202
 1\0\\# opt=modredundant mp2/aug-cc-pvdz\\pBTTT_45.pdb\\0,1\C,-4.032154
 8435,0.3609029368,-0.287795482\C,-2.693894506,0.8367067134,-0.37455669
 35\C,-1.7356253577,-0.1072949177,0.0158616613\C,-4.0939695018,-0.95443
 67557,0.1620647129\H,-4.9160233899,0.9491962794,-0.5492990038\S,-2.520
 7283439,-1.5903452113,0.4960450692\H,-4.9793365146,-1.5693406379,0.323
 8006433\C,-0.2866485281,-0.0065848378,-0.0169690654\S,0.5226103343,1.4
 549852588,0.5548522287\C,2.0880231348,0.7354704768,0.3029400779\C,1.96
 30463197,-0.5880964235,-0.1891608615\C,0.6196403673,-1.0111909516,-0.3
 729595596\H,0.2965914649,-1.9801499682,-0.7600718684\S,3.5317055714,-1
 .2935102487,-0.4673254866\C,4.3252065968,0.1711379505,0.0679197618\C,3
 .4380193659,1.1722373262,0.4440628189\H,5.4154859527,0.2091520066,0.08
 1585568\H,3.7583936955,2.1516524921,0.8038163749\O,-2.3035743464,2.089
 4509532,-0.7970404765\H,-3.0937674716,2.5820575587,-1.0617704196\\Vers
 ion=ES64L-G16RevC.01\State=1-A\HF=-1649.6301944\MP2=-1651.6222136\RMSD
 =6.169e-09\RMSF=6.026e-04\Dipole=-0.7599641,0.2834232,-0.1639989\PG=C0
 1 [X(C10H6O1S3)]\\@
 The archive entry for this job was punched.


 Sorry, no quote for you today!
 Job cpu time:       0 days 17 hours 23 minutes 56.4 seconds.
 Elapsed time:       0 days  2 hours 21 minutes  8.9 seconds.
 File lengths (MBytes):  RWF=    106 Int=      0 D2E=      0 Chk=     16 Scr=      1
 Normal termination of Gaussian 16 at Wed Oct 27 07:37:26 2021.
