 Entering Gaussian System, Link 0=g16
 Input=pBTTT_-120.gjf
 Output=pBTTT_-120.log
 Initial command:
 /apps/gaussian/g16-c01-avx/g16/l1.exe "/tmp/pbs.4766300[55].pbs/Gau-3570117.inp" -scrdir="/tmp/pbs.4766300[55].pbs/"
 Entering Link 1 = /apps/gaussian/g16-c01-avx/g16/l1.exe PID=   3570118.
  
 Copyright (c) 1988-2019, Gaussian, Inc.  All Rights Reserved.
  
 This is part of the Gaussian(R) 16 program.  It is based on
 the Gaussian(R) 09 system (copyright 2009, Gaussian, Inc.),
 the Gaussian(R) 03 system (copyright 2003, Gaussian, Inc.),
 the Gaussian(R) 98 system (copyright 1998, Gaussian, Inc.),
 the Gaussian(R) 94 system (copyright 1995, Gaussian, Inc.),
 the Gaussian 92(TM) system (copyright 1992, Gaussian, Inc.),
 the Gaussian 90(TM) system (copyright 1990, Gaussian, Inc.),
 the Gaussian 88(TM) system (copyright 1988, Gaussian, Inc.),
 the Gaussian 86(TM) system (copyright 1986, Carnegie Mellon
 University), and the Gaussian 82(TM) system (copyright 1983,
 Carnegie Mellon University). Gaussian is a federally registered
 trademark of Gaussian, Inc.
  
 This software contains proprietary and confidential information,
 including trade secrets, belonging to Gaussian, Inc.
  
 This software is provided under written license and may be
 used, copied, transmitted, or stored only in accord with that
 written license.
  
 The following legend is applicable only to US Government
 contracts under FAR:
  
                    RESTRICTED RIGHTS LEGEND
  
 Use, reproduction and disclosure by the US Government is
 subject to restrictions as set forth in subparagraphs (a)
 and (c) of the Commercial Computer Software - Restricted
 Rights clause in FAR 52.227-19.
  
 Gaussian, Inc.
 340 Quinnipiac St., Bldg. 40, Wallingford CT 06492
  
  
 ---------------------------------------------------------------
 Warning -- This program may not be used in any manner that
 competes with the business of Gaussian, Inc. or will provide
 assistance to any competitor of Gaussian, Inc.  The licensee
 of this program is prohibited from giving any competitor of
 Gaussian, Inc. access to this program.  By using this program,
 the user acknowledges that Gaussian, Inc. is engaged in the
 business of creating and licensing software in the field of
 computational chemistry and represents and warrants to the
 licensee that it is not a competitor of Gaussian, Inc. and that
 it will not use this program in any manner prohibited above.
 ---------------------------------------------------------------
  

 Cite this work as:
 Gaussian 16, Revision C.01,
 M. J. Frisch, G. W. Trucks, H. B. Schlegel, G. E. Scuseria, 
 M. A. Robb, J. R. Cheeseman, G. Scalmani, V. Barone, 
 G. A. Petersson, H. Nakatsuji, X. Li, M. Caricato, A. V. Marenich, 
 J. Bloino, B. G. Janesko, R. Gomperts, B. Mennucci, H. P. Hratchian, 
 J. V. Ortiz, A. F. Izmaylov, J. L. Sonnenberg, D. Williams-Young, 
 F. Ding, F. Lipparini, F. Egidi, J. Goings, B. Peng, A. Petrone, 
 T. Henderson, D. Ranasinghe, V. G. Zakrzewski, J. Gao, N. Rega, 
 G. Zheng, W. Liang, M. Hada, M. Ehara, K. Toyota, R. Fukuda, 
 J. Hasegawa, M. Ishida, T. Nakajima, Y. Honda, O. Kitao, H. Nakai, 
 T. Vreven, K. Throssell, J. A. Montgomery, Jr., J. E. Peralta, 
 F. Ogliaro, M. J. Bearpark, J. J. Heyd, E. N. Brothers, K. N. Kudin, 
 V. N. Staroverov, T. A. Keith, R. Kobayashi, J. Normand, 
 K. Raghavachari, A. P. Rendell, J. C. Burant, S. S. Iyengar, 
 J. Tomasi, M. Cossi, J. M. Millam, M. Klene, C. Adamo, R. Cammi, 
 J. W. Ochterski, R. L. Martin, K. Morokuma, O. Farkas, 
 J. B. Foresman, and D. J. Fox, Gaussian, Inc., Wallingford CT, 2019.
 
 ******************************************
 Gaussian 16:  ES64L-G16RevC.01  3-Jul-2019
                27-Oct-2021 
 ******************************************
 %mem=100GB
 %nprocshared=8
 Will use up to    8 processors via shared memory.
 ----------------------------------
 # opt=modredundant mp2/aug-cc-pvdz
 ----------------------------------
 1/18=120,19=15,38=1/1,3;
 2/9=110,12=2,17=6,18=5,40=1/2;
 3/5=16,7=10,11=9,25=1,30=1,71=1/1,2,3;
 4//1;
 5/5=2,38=5/2;
 8/6=4,10=1/1;
 9/15=2,16=-3/6;
 10/5=1/2;
 6/7=2,8=2,9=2,10=2/1;
 7/12=2/1,2,3,16;
 1/18=20,19=15/3(2);
 2/9=110/2;
 99//99;
 2/9=110/2;
 3/5=16,7=10,11=9,25=1,30=1,71=1/1,2,3;
 4/5=5,16=3,69=1/1;
 5/5=2,38=5/2;
 8/6=4,10=1/1;
 9/15=2,16=-3/6;
 10/5=1/2;
 7/12=2/1,2,3,16;
 1/18=20,19=15/3(-8);
 2/9=110/2;
 6/7=2,8=2,9=2,10=2/1;
 99/9=10/99;
 --------------
 pBTTT_-120.pdb
 --------------
 Symbolic Z-matrix:
 Charge =  0 Multiplicity = 1
 C                     3.938     0.773     0.238 
 C                     2.533     1.017     0.415 
 C                     1.743     0.038    -0.087 
 C                     4.177    -0.397    -0.388 
 H                     4.711     1.449     0.572 
 S                     2.724    -1.226    -0.794 
 H                     5.135    -0.818    -0.642 
 C                     0.277    -0.042    -0.053 
 S                    -0.527    -1.389     0.745 
 C                    -2.083    -0.717     0.369 
 C                    -1.958     0.464    -0.303 
 C                    -0.603     0.855    -0.553 
 H                    -0.301     1.748    -1.073 
 S                    -3.515     1.138    -0.679 
 C                    -4.306    -0.212     0.093 
 C                    -3.442    -1.116     0.601 
 H                    -5.381    -0.252     0.123 
 H                    -3.745    -2.015     1.113 
 O                     2.036     2.118     1.018 
 H                     2.725     2.617     1.424 
 
 The following ModRedundant input section has been read:
 D       2       3       8       9 F                                           
 

 GradGradGradGradGradGradGradGradGradGradGradGradGradGradGradGradGradGrad
 Berny optimization.
 Initialization pass.
                           ----------------------------
                           !    Initial Parameters    !
                           ! (Angstroms and Degrees)  !
 --------------------------                            --------------------------
 ! Name  Definition              Value          Derivative Info.                !
 --------------------------------------------------------------------------------
 ! R1    R(1,2)                  1.437          estimate D2E/DX2                !
 ! R2    R(1,4)                  1.3483         estimate D2E/DX2                !
 ! R3    R(1,5)                  1.0798         estimate D2E/DX2                !
 ! R4    R(2,3)                  1.3545         estimate D2E/DX2                !
 ! R5    R(2,19)                 1.3501         estimate D2E/DX2                !
 ! R6    R(3,6)                  1.7493         estimate D2E/DX2                !
 ! R7    R(3,8)                  1.4686         estimate D2E/DX2                !
 ! R8    R(4,6)                  1.7214         estimate D2E/DX2                !
 ! R9    R(4,7)                  1.0768         estimate D2E/DX2                !
 ! R10   R(8,9)                  1.76           estimate D2E/DX2                !
 ! R11   R(8,12)                 1.3524         estimate D2E/DX2                !
 ! R12   R(9,10)                 1.7361         estimate D2E/DX2                !
 ! R13   R(10,11)                1.3645         estimate D2E/DX2                !
 ! R14   R(10,16)                1.4352         estimate D2E/DX2                !
 ! R15   R(11,12)                1.4323         estimate D2E/DX2                !
 ! R16   R(11,14)                1.7378         estimate D2E/DX2                !
 ! R17   R(12,13)                1.0766         estimate D2E/DX2                !
 ! R18   R(14,15)                1.7448         estimate D2E/DX2                !
 ! R19   R(15,16)                1.3497         estimate D2E/DX2                !
 ! R20   R(15,17)                1.0762         estimate D2E/DX2                !
 ! R21   R(16,18)                1.078          estimate D2E/DX2                !
 ! R22   R(19,20)                0.9426         estimate D2E/DX2                !
 ! A1    A(2,1,4)              112.2008         estimate D2E/DX2                !
 ! A2    A(2,1,5)              123.7465         estimate D2E/DX2                !
 ! A3    A(4,1,5)              124.0523         estimate D2E/DX2                !
 ! A4    A(1,2,3)              113.6969         estimate D2E/DX2                !
 ! A5    A(1,2,19)             123.6012         estimate D2E/DX2                !
 ! A6    A(3,2,19)             122.7012         estimate D2E/DX2                !
 ! A7    A(2,3,6)              110.1812         estimate D2E/DX2                !
 ! A8    A(2,3,8)              127.8091         estimate D2E/DX2                !
 ! A9    A(6,3,8)              121.9933         estimate D2E/DX2                !
 ! A10   A(1,4,6)              112.1962         estimate D2E/DX2                !
 ! A11   A(1,4,7)              127.3361         estimate D2E/DX2                !
 ! A12   A(6,4,7)              120.4658         estimate D2E/DX2                !
 ! A13   A(3,6,4)               91.7222         estimate D2E/DX2                !
 ! A14   A(3,8,9)              120.5443         estimate D2E/DX2                !
 ! A15   A(3,8,12)             127.2188         estimate D2E/DX2                !
 ! A16   A(9,8,12)             112.21           estimate D2E/DX2                !
 ! A17   A(8,9,10)              90.8587         estimate D2E/DX2                !
 ! A18   A(9,10,11)            111.0734         estimate D2E/DX2                !
 ! A19   A(9,10,16)            134.9129         estimate D2E/DX2                !
 ! A20   A(11,10,16)           114.0137         estimate D2E/DX2                !
 ! A21   A(10,11,12)           114.1356         estimate D2E/DX2                !
 ! A22   A(10,11,14)           111.1101         estimate D2E/DX2                !
 ! A23   A(12,11,14)           134.7474         estimate D2E/DX2                !
 ! A24   A(8,12,11)            111.7149         estimate D2E/DX2                !
 ! A25   A(8,12,13)            123.1066         estimate D2E/DX2                !
 ! A26   A(11,12,13)           125.1786         estimate D2E/DX2                !
 ! A27   A(11,14,15)            90.5937         estimate D2E/DX2                !
 ! A28   A(14,15,16)           113.2381         estimate D2E/DX2                !
 ! A29   A(14,15,17)           119.6014         estimate D2E/DX2                !
 ! A30   A(16,15,17)           127.1605         estimate D2E/DX2                !
 ! A31   A(10,16,15)           111.0443         estimate D2E/DX2                !
 ! A32   A(10,16,18)           125.0817         estimate D2E/DX2                !
 ! A33   A(15,16,18)           123.8739         estimate D2E/DX2                !
 ! A34   A(2,19,20)            110.7928         estimate D2E/DX2                !
 ! D1    D(4,1,2,3)             -0.4951         estimate D2E/DX2                !
 ! D2    D(4,1,2,19)           179.7932         estimate D2E/DX2                !
 ! D3    D(5,1,2,3)            179.7045         estimate D2E/DX2                !
 ! D4    D(5,1,2,19)            -0.0071         estimate D2E/DX2                !
 ! D5    D(2,1,4,6)              0.5738         estimate D2E/DX2                !
 ! D6    D(2,1,4,7)           -179.9325         estimate D2E/DX2                !
 ! D7    D(5,1,4,6)           -179.6266         estimate D2E/DX2                !
 ! D8    D(5,1,4,7)             -0.1328         estimate D2E/DX2                !
 ! D9    D(1,2,3,6)              0.1827         estimate D2E/DX2                !
 ! D10   D(1,2,3,8)            178.7124         estimate D2E/DX2                !
 ! D11   D(19,2,3,6)           179.8973         estimate D2E/DX2                !
 ! D12   D(19,2,3,8)            -1.573          estimate D2E/DX2                !
 ! D13   D(1,2,19,20)           -9.4108         estimate D2E/DX2                !
 ! D14   D(3,2,19,20)          170.903          estimate D2E/DX2                !
 ! D15   D(2,3,6,4)              0.1167         estimate D2E/DX2                !
 ! D16   D(8,3,6,4)           -178.5136         estimate D2E/DX2                !
 ! D17   D(2,3,8,9)           -119.983          Frozen                          !
 ! D18   D(2,3,8,12)            57.9723         estimate D2E/DX2                !
 ! D19   D(6,3,8,9)             58.3898         estimate D2E/DX2                !
 ! D20   D(6,3,8,12)          -123.6549         estimate D2E/DX2                !
 ! D21   D(1,4,6,3)             -0.4045         estimate D2E/DX2                !
 ! D22   D(7,4,6,3)           -179.9376         estimate D2E/DX2                !
 ! D23   D(3,8,9,10)           178.8501         estimate D2E/DX2                !
 ! D24   D(12,8,9,10)            0.6087         estimate D2E/DX2                !
 ! D25   D(3,8,12,11)         -178.3411         estimate D2E/DX2                !
 ! D26   D(3,8,12,13)            1.687          estimate D2E/DX2                !
 ! D27   D(9,8,12,11)           -0.2432         estimate D2E/DX2                !
 ! D28   D(9,8,12,13)          179.785          estimate D2E/DX2                !
 ! D29   D(8,9,10,11)           -0.8195         estimate D2E/DX2                !
 ! D30   D(8,9,10,16)          179.1711         estimate D2E/DX2                !
 ! D31   D(9,10,11,12)           0.8525         estimate D2E/DX2                !
 ! D32   D(9,10,11,14)        -179.9652         estimate D2E/DX2                !
 ! D33   D(16,10,11,12)       -179.1401         estimate D2E/DX2                !
 ! D34   D(16,10,11,14)          0.0422         estimate D2E/DX2                !
 ! D35   D(9,10,16,15)         179.9003         estimate D2E/DX2                !
 ! D36   D(9,10,16,18)          -0.0086         estimate D2E/DX2                !
 ! D37   D(11,10,16,15)         -0.1093         estimate D2E/DX2                !
 ! D38   D(11,10,16,18)        179.9818         estimate D2E/DX2                !
 ! D39   D(10,11,12,8)          -0.3975         estimate D2E/DX2                !
 ! D40   D(10,11,12,13)        179.5736         estimate D2E/DX2                !
 ! D41   D(14,11,12,8)        -179.3234         estimate D2E/DX2                !
 ! D42   D(14,11,12,13)          0.6477         estimate D2E/DX2                !
 ! D43   D(10,11,14,15)          0.0242         estimate D2E/DX2                !
 ! D44   D(12,11,14,15)        178.9735         estimate D2E/DX2                !
 ! D45   D(11,14,15,16)         -0.0892         estimate D2E/DX2                !
 ! D46   D(11,14,15,17)        179.8911         estimate D2E/DX2                !
 ! D47   D(14,15,16,10)          0.1264         estimate D2E/DX2                !
 ! D48   D(14,15,16,18)       -179.9634         estimate D2E/DX2                !
 ! D49   D(17,15,16,10)       -179.8521         estimate D2E/DX2                !
 ! D50   D(17,15,16,18)          0.0581         estimate D2E/DX2                !
 --------------------------------------------------------------------------------
 Trust Radius=3.00D-01 FncErr=1.00D-07 GrdErr=1.00D-07 EigMax=2.50D+02 EigMin=1.00D-04
 Number of steps in this run=    116 maximum allowed number of steps=    120.
 GradGradGradGradGradGradGradGradGradGradGradGradGradGradGradGradGradGrad

                          Input orientation:                          
 ---------------------------------------------------------------------
 Center     Atomic      Atomic             Coordinates (Angstroms)
 Number     Number       Type             X           Y           Z
 ---------------------------------------------------------------------
      1          6           0        3.938000    0.773000    0.238000
      2          6           0        2.533000    1.017000    0.415000
      3          6           0        1.743000    0.038000   -0.087000
      4          6           0        4.177000   -0.397000   -0.388000
      5          1           0        4.711000    1.449000    0.572000
      6         16           0        2.724000   -1.226000   -0.794000
      7          1           0        5.135000   -0.818000   -0.642000
      8          6           0        0.277000   -0.042000   -0.053000
      9         16           0       -0.527000   -1.389000    0.745000
     10          6           0       -2.083000   -0.717000    0.369000
     11          6           0       -1.958000    0.464000   -0.303000
     12          6           0       -0.603000    0.855000   -0.553000
     13          1           0       -0.301000    1.748000   -1.073000
     14         16           0       -3.515000    1.138000   -0.679000
     15          6           0       -4.306000   -0.212000    0.093000
     16          6           0       -3.442000   -1.116000    0.601000
     17          1           0       -5.381000   -0.252000    0.123000
     18          1           0       -3.745000   -2.015000    1.113000
     19          8           0        2.036000    2.118000    1.018000
     20          1           0        2.725000    2.617000    1.424000
 ---------------------------------------------------------------------
                    Distance matrix (angstroms):
                    1          2          3          4          5
     1  C    0.000000
     2  C    1.436973   0.000000
     3  C    2.337493   1.354454   0.000000
     4  C    1.348294   2.312345   2.490820   0.000000
     5  H    1.079843   2.225973   3.351750   2.148132   0.000000
     6  S    2.556330   2.555232   1.749259   1.721420   3.601354
     7  H    2.176807   3.354829   3.542093   1.076811   2.606312
     8  C    3.761891   2.535753   1.468575   3.930426   4.719540
     9  S    4.986734   3.906576   2.807393   4.939167   5.959934
    10  C    6.204007   4.931159   3.926352   6.313719   7.133807
    11  C    5.928826   4.581530   3.731693   6.195706   6.797898
    12  C    4.610107   3.285995   2.527521   4.943999   5.464161
    13  H    4.542958   3.283300   2.841519   5.012258   5.283519
    14  S    7.518066   6.147339   5.404353   7.849062   8.326392
    15  C    8.303902   6.956008   6.056839   8.498640   9.181212
    16  C    7.626565   6.347039   5.356238   7.716492   8.547016
    17  H    9.375906   8.020413   7.132992   9.572748  10.244192
    18  H    8.219918   7.006676   5.981049   8.223686   9.154011
    19  O    2.456630   1.350118   2.373452   3.589699   2.793224
    20  H    2.505654   1.901301   3.146218   3.804713   2.456486
                    6          7          8          9         10
     6  S    0.000000
     7  H    2.449998   0.000000
     8  C    2.817578   4.954721   0.000000
     9  S    3.600568   5.857308   1.760008   0.000000
    10  C    4.971810   7.289159   2.490644   1.736115   0.000000
    11  C    5.001830   7.215892   2.305160   2.565088   1.364540
    12  C    3.931612   5.977583   1.352409   2.593476   2.347694
    13  H    4.251252   6.026625   2.139763   3.632763   3.366172
    14  S    6.672844   8.868473   4.020391   4.164331   2.567090
    15  C    7.157923   9.488938   4.588475   4.011393   2.296286
    16  C    6.322791   8.671723   3.925832   2.931295   1.435237
    17  H    8.214657  10.558970   5.664631   5.024039   3.339692
    18  H    6.790223   9.130566   4.629122   3.298913   2.236199
    19  O    3.865103   4.580338   2.984413   4.352304   5.042280
    20  H    4.437136   4.677145   3.904422   5.204285   5.945204
                   11         12         13         14         15
    11  C    0.000000
    12  C    1.432273   0.000000
    13  H    2.233205   1.076593   0.000000
    14  S    1.737786   2.928431   3.295016   0.000000
    15  C    2.475257   3.907431   4.608816   1.744754   0.000000
    16  C    2.348589   3.643690   4.568441   2.593115   1.349732
    17  H    3.522934   4.950930   5.588991   2.461150   1.076162
    18  H    3.368066   4.569969   5.549766   3.633947   2.146143
    19  O    4.520265   3.320773   3.157649   5.886749   6.819493
    20  H    5.435846   4.253088   4.018314   6.748900   7.694788
                   16         17         18         19         20
    16  C    0.000000
    17  H    2.175937   0.000000
    18  H    1.078032   2.600916   0.000000
    19  O    6.375040   7.837717   7.107086   0.000000
    20  H    7.255653   8.696608   7.963231   0.942634   0.000000
 Stoichiometry    C10H6OS3
 Framework group  C1[X(C10H6OS3)]
 Deg. of freedom    54
 Full point group                 C1      NOp   1
 Largest Abelian subgroup         C1      NOp   1
 Largest concise Abelian subgroup C1      NOp   1
                         Standard orientation:                         
 ---------------------------------------------------------------------
 Center     Atomic      Atomic             Coordinates (Angstroms)
 Number     Number       Type             X           Y           Z
 ---------------------------------------------------------------------
      1          6           0        3.937948    0.773056    0.238135
      2          6           0        2.532931    1.016929    0.415175
      3          6           0        1.742998    0.037976   -0.087023
      4          6           0        4.177028   -0.396805   -0.388094
      5          1           0        4.710901    1.449041    0.572273
      6         16           0        2.724085   -1.225820   -0.794266
      7          1           0        5.135058   -0.817692   -0.642171
      8          6           0        0.277003   -0.042127   -0.053048
      9         16           0       -0.526913   -1.389337    0.744682
     10          6           0       -2.082955   -0.717365    0.368805
     11          6           0       -1.958029    0.463775   -0.302961
     12          6           0       -0.603053    0.854914   -0.552876
     13          1           0       -0.301108    1.748036   -1.072698
     14         16           0       -3.515071    1.137747   -0.678838
     15          6           0       -4.305987   -0.212457    0.092891
     16          6           0       -3.441930   -1.116500    0.600718
     17          1           0       -5.380984   -0.252533    0.122877
     18          1           0       -3.744874   -2.015621    1.112539
     19          8           0        2.035855    2.117777    1.018389
     20          1           0        2.724820    2.616743    1.424491
 ---------------------------------------------------------------------
 Rotational constants (GHZ):           1.3159425           0.2696322           0.2431465
 Standard basis: Aug-CC-pVDZ (5D, 7F)
 There are   416 symmetry adapted cartesian basis functions of A   symmetry.
 There are   388 symmetry adapted basis functions of A   symmetry.
   388 basis functions,   782 primitive gaussians,   416 cartesian basis functions
    61 alpha electrons       61 beta electrons
       nuclear repulsion energy      1127.5431546002 Hartrees.
 NAtoms=   20 NActive=   20 NUniq=   20 SFac= 1.00D+00 NAtFMM=   60 NAOKFM=F Big=F
 Integral buffers will be    131072 words long.
 Raffenetti 1 integral format.
 Two-electron integral symmetry is turned on.
 One-electron integrals computed using PRISM.
 NBasis=   388 RedAO= T EigKep=  3.51D-06  NBF=   388
 NBsUse=   388 1.00D-06 EigRej= -1.00D+00 NBFU=   388
 ExpMin= 2.97D-02 ExpMax= 1.11D+05 ExpMxC= 1.07D+03 IAcc=3 IRadAn=         5 AccDes= 0.00D+00
 Harris functional with IExCor=  205 and IRadAn=       5 diagonalized for initial guess.
 HarFok:  IExCor=  205 AccDes= 0.00D+00 IRadAn=         5 IDoV= 1 UseB2=F ITyADJ=14
 ICtDFT=  3500011 ScaDFX=  1.000000  1.000000  1.000000  1.000000
 FoFCou: FMM=F IPFlag=           0 FMFlag=      100000 FMFlg1=           0
         NFxFlg=           0 DoJE=T BraDBF=F KetDBF=T FulRan=T
         wScrn=  0.000000 ICntrl=       500 IOpCl=  0 I1Cent=   200000004 NGrid=           0
         NMat0=    1 NMatS0=      1 NMatT0=    0 NMatD0=    1 NMtDS0=    0 NMtDT0=    0
 Petite list used in FoFCou.
 Requested convergence on RMS density matrix=1.00D-08 within 128 cycles.
 Requested convergence on MAX density matrix=1.00D-06.
 Requested convergence on             energy=1.00D-06.
 No special actions if energy rises.
 SCF Done:  E(RHF) =  -1649.64200493     A.U. after   17 cycles
            NFock= 17  Conv=0.60D-08     -V/T= 2.0000
 ExpMin= 2.97D-02 ExpMax= 1.11D+05 ExpMxC= 1.07D+03 IAcc=3 IRadAn=         5 AccDes= 0.00D+00
 HarFok:  IExCor=  205 AccDes= 0.00D+00 IRadAn=         5 IDoV=-2 UseB2=F ITyADJ=14
 ICtDFT= 12500011 ScaDFX=  1.000000  1.000000  1.000000  1.000000
 GSVD:  LWork=        -884 too small for GESVD, short by        3770 words or        3770 for optimal perf.
 Range of M.O.s used for correlation:    27   388
 NBasis=   388 NAE=    61 NBE=    61 NFC=    26 NFV=     0
 NROrb=    362 NOA=    35 NOB=    35 NVA=   327 NVB=   327

 **** Warning!!: The largest alpha MO coefficient is  0.83664778D+02

 Fully direct method using O(ONN) memory.
 JobTyp=1 Pass  1:  I=  27 to  61 NPSUse=  8 ParTrn=T ParDer=T DoDerP=T.
 Spin components of T(2) and E(2):
     alpha-alpha T2 =       0.1136335866D+00 E2=     -0.2739332738D+00
     alpha-beta  T2 =       0.5541462462D+00 E2=     -0.1420802999D+01
     beta-beta   T2 =       0.1136335866D+00 E2=     -0.2739332738D+00
 ANorm=    0.1334696003D+01
 E2 =    -0.1968669546D+01 EUMP2 =    -0.16516106744787D+04
          IDoAtm=11111111111111111111
          Differentiating once with respect to electric field.
                with respect to dipole field.
          Differentiating once with respect to nuclear coordinates.
 Keep R1 ints in memory in canonical form, NReq=2883857471.
          There are     1 degrees of freedom in the 1st order CPHF.  IDoFFX=0 NUNeed=     1.
 LinEq1:  Iter=  0 NonCon=     1 RMS=2.87D-03 Max=5.94D-02 NDo=     1
 AX will form     1 AO Fock derivatives at one time.
 LinEq1:  Iter=  1 NonCon=     1 RMS=6.77D-04 Max=9.24D-03 NDo=     1
 LinEq1:  Iter=  2 NonCon=     1 RMS=3.47D-04 Max=1.02D-02 NDo=     1
 LinEq1:  Iter=  3 NonCon=     1 RMS=9.15D-05 Max=1.53D-03 NDo=     1
 LinEq1:  Iter=  4 NonCon=     1 RMS=3.66D-05 Max=7.91D-04 NDo=     1
 LinEq1:  Iter=  5 NonCon=     1 RMS=1.50D-05 Max=3.53D-04 NDo=     1
 LinEq1:  Iter=  6 NonCon=     1 RMS=6.29D-06 Max=2.17D-04 NDo=     1
 LinEq1:  Iter=  7 NonCon=     1 RMS=2.90D-06 Max=8.95D-05 NDo=     1
 LinEq1:  Iter=  8 NonCon=     1 RMS=1.08D-06 Max=3.33D-05 NDo=     1
 LinEq1:  Iter=  9 NonCon=     1 RMS=4.44D-07 Max=1.11D-05 NDo=     1
 LinEq1:  Iter= 10 NonCon=     1 RMS=1.68D-07 Max=2.49D-06 NDo=     1
 LinEq1:  Iter= 11 NonCon=     1 RMS=7.02D-08 Max=2.36D-06 NDo=     1
 LinEq1:  Iter= 12 NonCon=     1 RMS=2.59D-08 Max=4.15D-07 NDo=     1
 LinEq1:  Iter= 13 NonCon=     1 RMS=1.04D-08 Max=2.04D-07 NDo=     1
 LinEq1:  Iter= 14 NonCon=     1 RMS=3.37D-09 Max=6.57D-08 NDo=     1
 LinEq1:  Iter= 15 NonCon=     1 RMS=1.39D-09 Max=3.27D-08 NDo=     1
 LinEq1:  Iter= 16 NonCon=     1 RMS=5.32D-10 Max=9.14D-09 NDo=     1
 LinEq1:  Iter= 17 NonCon=     1 RMS=2.31D-10 Max=5.59D-09 NDo=     1
 LinEq1:  Iter= 18 NonCon=     1 RMS=8.38D-11 Max=1.27D-09 NDo=     1
 LinEq1:  Iter= 19 NonCon=     0 RMS=2.84D-11 Max=4.16D-10 NDo=     1
 Linear equations converged to 1.000D-10 1.000D-09 after    19 iterations.
 End of Minotr F.D. properties file   721 does not exist.
 End of Minotr F.D. properties file   722 does not exist.
 End of Minotr F.D. properties file   788 does not exist.

 **********************************************************************

            Population analysis using the SCF Density.

 **********************************************************************

 Orbital symmetries:
       Occupied  (A) (A) (A) (A) (A) (A) (A) (A) (A) (A) (A) (A)
                 (A) (A) (A) (A) (A) (A) (A) (A) (A) (A) (A) (A)
                 (A) (A) (A) (A) (A) (A) (A) (A) (A) (A) (A) (A)
                 (A) (A) (A) (A) (A) (A) (A) (A) (A) (A) (A) (A)
                 (A) (A) (A) (A) (A) (A) (A) (A) (A) (A) (A) (A)
                 (A)
       Virtual   (A) (A) (A) (A) (A) (A) (A) (A) (A) (A) (A) (A)
                 (A) (A) (A) (A) (A) (A) (A) (A) (A) (A) (A) (A)
                 (A) (A) (A) (A) (A) (A) (A) (A) (A) (A) (A) (A)
                 (A) (A) (A) (A) (A) (A) (A) (A) (A) (A) (A) (A)
                 (A) (A) (A) (A) (A) (A) (A) (A) (A) (A) (A) (A)
                 (A) (A) (A) (A) (A) (A) (A) (A) (A) (A) (A) (A)
                 (A) (A) (A) (A) (A) (A) (A) (A) (A) (A) (A) (A)
                 (A) (A) (A) (A) (A) (A) (A) (A) (A) (A) (A) (A)
                 (A) (A) (A) (A) (A) (A) (A) (A) (A) (A) (A) (A)
                 (A) (A) (A) (A) (A) (A) (A) (A) (A) (A) (A) (A)
                 (A) (A) (A) (A) (A) (A) (A) (A) (A) (A) (A) (A)
                 (A) (A) (A) (A) (A) (A) (A) (A) (A) (A) (A) (A)
                 (A) (A) (A) (A) (A) (A) (A) (A) (A) (A) (A) (A)
                 (A) (A) (A) (A) (A) (A) (A) (A) (A) (A) (A) (A)
                 (A) (A) (A) (A) (A) (A) (A) (A) (A) (A) (A) (A)
                 (A) (A) (A) (A) (A) (A) (A) (A) (A) (A) (A) (A)
                 (A) (A) (A) (A) (A) (A) (A) (A) (A) (A) (A) (A)
                 (A) (A) (A) (A) (A) (A) (A) (A) (A) (A) (A) (A)
                 (A) (A) (A) (A) (A) (A) (A) (A) (A) (A) (A) (A)
                 (A) (A) (A) (A) (A) (A) (A) (A) (A) (A) (A) (A)
                 (A) (A) (A) (A) (A) (A) (A) (A) (A) (A) (A) (A)
                 (A) (A) (A) (A) (A) (A) (A) (A) (A) (A) (A) (A)
                 (A) (A) (A) (A) (A) (A) (A) (A) (A) (A) (A) (A)
                 (A) (A) (A) (A) (A) (A) (A) (A) (A) (A) (A) (A)
                 (A) (A) (A) (A) (A) (A) (A) (A) (A) (A) (A) (A)
                 (A) (A) (A) (A) (A) (A) (A) (A) (A) (A) (A) (A)
                 (A) (A) (A) (A) (A) (A) (A) (A) (A) (A) (A) (A)
                 (A) (A) (A)
 The electronic state is 1-A.
 Alpha  occ. eigenvalues --  -91.98998 -91.98636 -91.98500 -20.61013 -11.31793
 Alpha  occ. eigenvalues --  -11.28425 -11.28387 -11.27392 -11.27027 -11.26854
 Alpha  occ. eigenvalues --  -11.26709 -11.25508 -11.25442 -11.25191  -8.99197
 Alpha  occ. eigenvalues --   -8.98818  -8.98668  -6.67365  -6.67272  -6.67074
 Alpha  occ. eigenvalues --   -6.66985  -6.66907  -6.66833  -6.66752  -6.66701
 Alpha  occ. eigenvalues --   -6.66543  -1.43005  -1.21271  -1.18462  -1.12578
 Alpha  occ. eigenvalues --   -1.02916  -1.02001  -0.98689  -0.95570  -0.94257
 Alpha  occ. eigenvalues --   -0.82630  -0.81162  -0.77011  -0.74994  -0.72284
 Alpha  occ. eigenvalues --   -0.69694  -0.66785  -0.66491  -0.62162  -0.61117
 Alpha  occ. eigenvalues --   -0.58312  -0.56327  -0.56011  -0.53935  -0.53026
 Alpha  occ. eigenvalues --   -0.52677  -0.50728  -0.49351  -0.48584  -0.46146
 Alpha  occ. eigenvalues --   -0.45808  -0.38473  -0.35166  -0.33373  -0.31759
 Alpha  occ. eigenvalues --   -0.28934
 Alpha virt. eigenvalues --    0.02752   0.03725   0.03941   0.05020   0.05096
 Alpha virt. eigenvalues --    0.06243   0.08078   0.08169   0.08570   0.09145
 Alpha virt. eigenvalues --    0.10082   0.10331   0.10501   0.10965   0.11315
 Alpha virt. eigenvalues --    0.12416   0.12574   0.12728   0.12923   0.13532
 Alpha virt. eigenvalues --    0.13684   0.14103   0.14454   0.14789   0.14979
 Alpha virt. eigenvalues --    0.15394   0.15880   0.16403   0.16700   0.16765
 Alpha virt. eigenvalues --    0.17837   0.18177   0.18425   0.18568   0.19361
 Alpha virt. eigenvalues --    0.19904   0.20313   0.20506   0.21184   0.21259
 Alpha virt. eigenvalues --    0.21839   0.22327   0.23105   0.23289   0.23637
 Alpha virt. eigenvalues --    0.23793   0.24416   0.24940   0.24987   0.25664
 Alpha virt. eigenvalues --    0.26821   0.27223   0.27559   0.27885   0.28291
 Alpha virt. eigenvalues --    0.28565   0.29786   0.30904   0.31197   0.31733
 Alpha virt. eigenvalues --    0.31918   0.32245   0.32597   0.32957   0.33165
 Alpha virt. eigenvalues --    0.34125   0.34712   0.34884   0.35319   0.35889
 Alpha virt. eigenvalues --    0.36460   0.37283   0.37891   0.38654   0.38752
 Alpha virt. eigenvalues --    0.40085   0.40798   0.41077   0.41087   0.42571
 Alpha virt. eigenvalues --    0.43500   0.43839   0.44129   0.45038   0.45505
 Alpha virt. eigenvalues --    0.45936   0.46240   0.47145   0.48497   0.48773
 Alpha virt. eigenvalues --    0.49424   0.49702   0.49850   0.51421   0.52008
 Alpha virt. eigenvalues --    0.53244   0.54024   0.54450   0.54750   0.55126
 Alpha virt. eigenvalues --    0.56330   0.57675   0.58700   0.59093   0.59870
 Alpha virt. eigenvalues --    0.60516   0.60620   0.61495   0.62080   0.62607
 Alpha virt. eigenvalues --    0.63011   0.63444   0.64481   0.64844   0.66086
 Alpha virt. eigenvalues --    0.66327   0.67147   0.67515   0.68272   0.68629
 Alpha virt. eigenvalues --    0.69006   0.69464   0.70182   0.70425   0.71244
 Alpha virt. eigenvalues --    0.71623   0.72363   0.72895   0.73476   0.74031
 Alpha virt. eigenvalues --    0.74322   0.75205   0.75758   0.76067   0.76391
 Alpha virt. eigenvalues --    0.77146   0.77703   0.78545   0.79435   0.79618
 Alpha virt. eigenvalues --    0.81502   0.82147   0.83140   0.83849   0.84068
 Alpha virt. eigenvalues --    0.85265   0.85629   0.86572   0.87412   0.87853
 Alpha virt. eigenvalues --    0.88245   0.89290   0.89892   0.90820   0.91559
 Alpha virt. eigenvalues --    0.92042   0.92944   0.93295   0.94804   0.95621
 Alpha virt. eigenvalues --    0.95871   0.96503   0.97081   0.97323   0.98106
 Alpha virt. eigenvalues --    0.99560   1.00118   1.00954   1.03029   1.03835
 Alpha virt. eigenvalues --    1.04933   1.05268   1.05592   1.06881   1.08234
 Alpha virt. eigenvalues --    1.09304   1.10266   1.10709   1.11623   1.12779
 Alpha virt. eigenvalues --    1.13305   1.14429   1.17448   1.17685   1.18651
 Alpha virt. eigenvalues --    1.20336   1.21446   1.22298   1.22933   1.23668
 Alpha virt. eigenvalues --    1.24334   1.24811   1.25535   1.25847   1.27624
 Alpha virt. eigenvalues --    1.28272   1.28994   1.29421   1.30857   1.32198
 Alpha virt. eigenvalues --    1.33277   1.34276   1.35204   1.36721   1.37025
 Alpha virt. eigenvalues --    1.38845   1.39298   1.41137   1.41816   1.42496
 Alpha virt. eigenvalues --    1.43616   1.44848   1.45184   1.46750   1.49358
 Alpha virt. eigenvalues --    1.50987   1.54020   1.54921   1.56027   1.57057
 Alpha virt. eigenvalues --    1.57788   1.58283   1.59449   1.61078   1.61751
 Alpha virt. eigenvalues --    1.62290   1.63820   1.65113   1.65843   1.67109
 Alpha virt. eigenvalues --    1.67275   1.69555   1.70481   1.71345   1.72320
 Alpha virt. eigenvalues --    1.73645   1.74335   1.76235   1.76500   1.77266
 Alpha virt. eigenvalues --    1.79541   1.81140   1.81414   1.82315   1.84458
 Alpha virt. eigenvalues --    1.85707   1.86866   1.87528   1.88495   1.90465
 Alpha virt. eigenvalues --    1.91160   1.92168   1.93942   1.95230   1.97049
 Alpha virt. eigenvalues --    1.98751   1.99402   2.02275   2.04181   2.04991
 Alpha virt. eigenvalues --    2.05880   2.07928   2.08801   2.09259   2.09952
 Alpha virt. eigenvalues --    2.10839   2.13971   2.14365   2.14852   2.15655
 Alpha virt. eigenvalues --    2.17019   2.18838   2.19690   2.21042   2.21580
 Alpha virt. eigenvalues --    2.24052   2.25454   2.27568   2.28517   2.31030
 Alpha virt. eigenvalues --    2.33030   2.33331   2.34426   2.35834   2.37824
 Alpha virt. eigenvalues --    2.40754   2.41756   2.42595   2.45725   2.46357
 Alpha virt. eigenvalues --    2.47429   2.50087   2.50542   2.51779   2.53045
 Alpha virt. eigenvalues --    2.56758   2.58747   2.61086   2.62462   2.67176
 Alpha virt. eigenvalues --    2.74407   2.81980   2.84079   2.86569   2.87879
 Alpha virt. eigenvalues --    2.91662   2.93328   2.98547   3.00221   3.04981
 Alpha virt. eigenvalues --    3.11664   3.17556   3.25110   3.25912   3.36155
 Alpha virt. eigenvalues --    3.42678   3.53549   3.59517   3.63440   3.76465
 Alpha virt. eigenvalues --    3.78310   3.80490   3.86883   3.88450   4.22945
 Alpha virt. eigenvalues --    4.24621   4.48083
          Condensed to atoms (all electrons):
               1          2          3          4          5          6
     1  C    7.809092  -2.129056   0.044589  -0.021950  -0.168391  -0.518936
     2  C   -2.129056  10.373326  -1.866785   0.518196   0.161125  -0.274477
     3  C    0.044589  -1.866785  11.542971  -1.360265  -0.025872  -0.266726
     4  C   -0.021950   0.518196  -1.360265   6.524216  -0.019552   0.427635
     5  H   -0.168391   0.161125  -0.025872  -0.019552   1.655391  -0.017443
     6  S   -0.518936  -0.274477  -0.266726   0.427635  -0.017443  16.344058
     7  H   -0.003432   0.061376   0.038897   0.199618  -0.069660  -0.154603
     8  C    0.491653  -0.799715  -2.018392   0.195271   0.013432  -0.066913
     9  S   -0.041706  -0.012506  -0.714178   0.047822  -0.003519   0.292891
    10  C    0.020112   0.043174  -0.386553   0.016413   0.000572   0.044309
    11  C   -0.053917  -0.082995   0.539132  -0.000893  -0.002059   0.042216
    12  C   -0.034087   0.471150  -0.221313  -0.110752   0.000895  -0.315838
    13  H    0.007371  -0.023778   0.082798   0.005446   0.001136   0.011607
    14  S    0.000470   0.012161  -0.080913  -0.000559  -0.000030   0.002281
    15  C   -0.000669  -0.013779   0.030822   0.000713  -0.000022   0.005238
    16  C    0.000375   0.015816  -0.358606  -0.002591  -0.000119   0.009829
    17  H   -0.000047   0.000112  -0.000197   0.000029  -0.000002   0.000149
    18  H   -0.000273   0.000105  -0.010899   0.000008  -0.000028   0.001654
    19  O    0.122299  -0.745221   0.323486  -0.088898  -0.062801   0.001025
    20  H   -0.145381   0.014154  -0.030868  -0.009845  -0.010329   0.014787
               7          8          9         10         11         12
     1  C   -0.003432   0.491653  -0.041706   0.020112  -0.053917  -0.034087
     2  C    0.061376  -0.799715  -0.012506   0.043174  -0.082995   0.471150
     3  C    0.038897  -2.018392  -0.714178  -0.386553   0.539132  -0.221313
     4  C    0.199618   0.195271   0.047822   0.016413  -0.000893  -0.110752
     5  H   -0.069660   0.013432  -0.003519   0.000572  -0.002059   0.000895
     6  S   -0.154603  -0.066913   0.292891   0.044309   0.042216  -0.315838
     7  H    1.266158  -0.002714   0.003741   0.000989   0.000981  -0.001423
     8  C   -0.002714  11.904589   0.361311  -0.072844  -0.597884  -3.510043
     9  S    0.003741   0.361311  16.540623   0.356524  -0.523116  -0.584640
    10  C    0.000989  -0.072844   0.356524  10.795839  -0.698987  -1.325433
    11  C    0.000981  -0.597884  -0.523116  -0.698987  11.979912  -2.959831
    12  C   -0.001423  -3.510043  -0.584640  -1.325433  -2.959831  15.624696
    13  H    0.000330   0.370528   0.033975  -0.077885   0.579688  -1.146820
    14  S   -0.000049  -0.261723   0.102640  -0.076225  -0.337611   0.061306
    15  C    0.000057   0.076195  -0.100693  -0.129708  -0.951760  -0.145679
    16  C   -0.000086  -0.499061  -0.188392  -2.314535  -0.883046   0.200985
    17  H    0.000003   0.000914   0.009221   0.063397  -0.049692   0.035600
    18  H    0.000016   0.104051   0.012525   0.554434   0.061104  -0.069978
    19  O   -0.001932   0.041884   0.004107  -0.002049   0.029557  -0.072171
    20  H    0.001576  -0.004434  -0.000952   0.000586  -0.000572   0.012594
              13         14         15         16         17         18
     1  C    0.007371   0.000470  -0.000669   0.000375  -0.000047  -0.000273
     2  C   -0.023778   0.012161  -0.013779   0.015816   0.000112   0.000105
     3  C    0.082798  -0.080913   0.030822  -0.358606  -0.000197  -0.010899
     4  C    0.005446  -0.000559   0.000713  -0.002591   0.000029   0.000008
     5  H    0.001136  -0.000030  -0.000022  -0.000119  -0.000002  -0.000028
     6  S    0.011607   0.002281   0.005238   0.009829   0.000149   0.001654
     7  H    0.000330  -0.000049   0.000057  -0.000086   0.000003   0.000016
     8  C    0.370528  -0.261723   0.076195  -0.499061   0.000914   0.104051
     9  S    0.033975   0.102640  -0.100693  -0.188392   0.009221   0.012525
    10  C   -0.077885  -0.076225  -0.129708  -2.314535   0.063397   0.554434
    11  C    0.579688  -0.337611  -0.951760  -0.883046  -0.049692   0.061104
    12  C   -1.146820   0.061306  -0.145679   0.200985   0.035600  -0.069978
    13  H    1.640748  -0.044714   0.014236  -0.032228   0.001841  -0.000699
    14  S   -0.044714  16.005613   0.197044  -0.036473  -0.159729  -0.003849
    15  C    0.014236   0.197044   6.900022   0.133898   0.187135  -0.117273
    16  C   -0.032228  -0.036473   0.133898   9.914281   0.064373  -0.570015
    17  H    0.001841  -0.159729   0.187135   0.064373   1.294314  -0.068933
    18  H   -0.000699  -0.003849  -0.117273  -0.570015  -0.068933   1.430231
    19  O    0.009539  -0.003289   0.000057  -0.000549  -0.000040   0.000118
    20  H   -0.001273   0.000328  -0.000138   0.000659   0.000004   0.000035
              19         20
     1  C    0.122299  -0.145381
     2  C   -0.745221   0.014154
     3  C    0.323486  -0.030868
     4  C   -0.088898  -0.009845
     5  H   -0.062801  -0.010329
     6  S    0.001025   0.014787
     7  H   -0.001932   0.001576
     8  C    0.041884  -0.004434
     9  S    0.004107  -0.000952
    10  C   -0.002049   0.000586
    11  C    0.029557  -0.000572
    12  C   -0.072171   0.012594
    13  H    0.009539  -0.001273
    14  S   -0.003289   0.000328
    15  C    0.000057  -0.000138
    16  C   -0.000549   0.000659
    17  H   -0.000040   0.000004
    18  H    0.000118   0.000035
    19  O    8.995024   0.374956
    20  H    0.374956   0.619126
 Mulliken charges:
               1
     1  C    0.621883
     2  C    0.277616
     3  C    0.738870
     4  C   -0.320062
     5  H   -0.452724
     6  S    0.417257
     7  H   -0.339845
     8  C    0.273895
     9  S    0.404321
    10  C   -0.812132
    11  C   -0.090226
    12  C    0.090783
    13  H   -0.431846
    14  S    0.623322
    15  C   -0.085697
    16  C    0.545486
    17  H   -0.378452
    18  H   -0.322333
    19  O   -0.925102
    20  H    0.164986
 Sum of Mulliken charges =  -0.00000
 Mulliken charges with hydrogens summed into heavy atoms:
               1
     1  C    0.169159
     2  C    0.277616
     3  C    0.738870
     4  C   -0.659907
     6  S    0.417257
     8  C    0.273895
     9  S    0.404321
    10  C   -0.812132
    11  C   -0.090226
    12  C   -0.341063
    14  S    0.623322
    15  C   -0.464149
    16  C    0.223153
    19  O   -0.760117
 Electronic spatial extent (au):  <R**2>=           4298.1219
 Charge=              0.0000 electrons
 Dipole moment (field-independent basis, Debye):
    X=              2.1552    Y=              1.0678    Z=              0.7412  Tot=              2.5169
 Quadrupole moment (field-independent basis, Debye-Ang):
   XX=            -77.5721   YY=            -99.0261   ZZ=           -106.3444
   XY=              9.7285   XZ=              0.8948   YZ=              0.4515
 Traceless Quadrupole moment (field-independent basis, Debye-Ang):
   XX=             16.7421   YY=             -4.7119   ZZ=            -12.0302
   XY=              9.7285   XZ=              0.8948   YZ=              0.4515
 Octapole moment (field-independent basis, Debye-Ang**2):
  XXX=             46.1014  YYY=             21.9486  ZZZ=              8.6660  XYY=             20.2195
  XXY=              5.6209  XXZ=             19.7856  XZZ=             10.1086  YZZ=              8.1434
  YYZ=             10.6902  XYZ=             24.7101
 Hexadecapole moment (field-independent basis, Debye-Ang**3):
 XXXX=          -3991.1148 YYYY=           -810.0532 ZZZZ=           -366.3680 XXXY=            119.3263
 XXXZ=            -11.7957 YYYX=             91.1088 YYYZ=             24.7012 ZZZX=             22.5644
 ZZZY=             18.2809 XXYY=           -863.7580 XXZZ=           -896.4419 YYZZ=           -178.4588
 XXYZ=             47.5942 YYXZ=             23.6089 ZZXY=             28.5856
 N-N= 1.127543154600D+03 E-N=-6.162522937320D+03  KE= 1.649566225155D+03
 Calling FoFJK, ICntrl=  10002127 FMM=F ISym2X=0 I1Cent= 0 IOpClX= 0 NMat=1 NMatS=1 NMatT=0.
 ***** Axes restored to original set *****
 -------------------------------------------------------------------
 Center     Atomic                   Forces (Hartrees/Bohr)
 Number     Number              X              Y              Z
 -------------------------------------------------------------------
      1        6          -0.016057838    0.026106688    0.014083914
      2        6           0.037211912    0.016242147    0.006914671
      3        6          -0.027511466   -0.028602073   -0.012144338
      4        6           0.004455479   -0.026228433   -0.013694255
      5        1           0.007108656    0.006256174    0.003065195
      6       16          -0.005131048   -0.006001160   -0.002883873
      7        1           0.008245854   -0.005154853   -0.002954471
      8        6           0.029452318   -0.020814744    0.011597478
      9       16           0.003760829   -0.007830595    0.003640724
     10        6          -0.008082097   -0.036087644    0.020455990
     11        6           0.008893891    0.036161786   -0.020302418
     12        6          -0.029602146    0.018971520   -0.009803897
     13        1           0.003706599    0.008990088   -0.005360621
     14       16          -0.002757648    0.006759416   -0.003724568
     15        6          -0.013640499    0.021002049   -0.011954109
     16        6           0.027469167   -0.018215602    0.010138577
     17        1          -0.010914923    0.000678079   -0.000301754
     18        1          -0.002888510   -0.008179457    0.004684770
     19        8          -0.034246592    0.004015423   -0.001453193
     20        1           0.020528061    0.011931191    0.009996179
 -------------------------------------------------------------------
 Cartesian Forces:  Max     0.037211912 RMS     0.016526479

 GradGradGradGradGradGradGradGradGradGradGradGradGradGradGradGradGradGrad
 Berny optimization.
 FormGI is forming the generalized inverse of G from B-inverse, IUseBI=4.
 Internal  Forces:  Max     0.042720754 RMS     0.009754370
 Search for a local minimum.
 Step number   1 out of a maximum of  116
 All quantities printed in internal units (Hartrees-Bohrs-Radians)
 Mixed Optimization -- RFO/linear search
 Second derivative matrix not updated -- first step.
 ITU=  0
     Eigenvalues ---    0.01476   0.01579   0.01627   0.01703   0.01754
     Eigenvalues ---    0.01759   0.01981   0.02019   0.02059   0.02132
     Eigenvalues ---    0.02217   0.02281   0.02326   0.02352   0.02370
     Eigenvalues ---    0.02447   0.15999   0.16000   0.16000   0.16000
     Eigenvalues ---    0.16000   0.16000   0.22525   0.22567   0.23647
     Eigenvalues ---    0.24760   0.24782   0.24987   0.24991   0.24995
     Eigenvalues ---    0.25000   0.29057   0.29943   0.30316   0.30987
     Eigenvalues ---    0.31208   0.32622   0.35911   0.36013   0.36233
     Eigenvalues ---    0.36382   0.36409   0.36462   0.38980   0.39145
     Eigenvalues ---    0.39519   0.45803   0.50564   0.52430   0.53580
     Eigenvalues ---    0.54251   0.54996   0.593831000.000001000.00000
     Eigenvalues --- 1000.000001000.000001000.000001000.000001000.00000
     Eigenvalues --- 1000.000001000.000001000.000001000.000001000.00000
     Eigenvalues --- 1000.000001000.000001000.000001000.000001000.00000
     Eigenvalues --- 1000.000001000.000001000.000001000.000001000.00000
     Eigenvalues --- 1000.000001000.000001000.000001000.000001000.00000
     Eigenvalues --- 1000.000001000.000001000.000001000.000001000.00000
     Eigenvalues --- 1000.000001000.000001000.000001000.000001000.00000
     Eigenvalues --- 1000.000001000.000001000.000001000.000001000.00000
     Eigenvalues --- 1000.000001000.000001000.000001000.000001000.00000
     Eigenvalues --- 1000.000001000.000001000.000001000.000001000.00000
     Eigenvalues --- 1000.00000
 RFO step:  Lambda=-1.90519523D-02 EMin= 1.47607581D-02
 Linear search not attempted -- first point.
 Iteration  1 RMS(Cart)=  0.02557530 RMS(Int)=  0.00014667
 Iteration  2 RMS(Cart)=  0.00027830 RMS(Int)=  0.00004327
 Iteration  3 RMS(Cart)=  0.00000004 RMS(Int)=  0.00004327
 Iteration  1 RMS(Cart)=  0.00000631 RMS(Int)=  0.00000254
 Iteration  2 RMS(Cart)=  0.00000346 RMS(Int)=  0.00000284
 Iteration  3 RMS(Cart)=  0.00000190 RMS(Int)=  0.00000321
 Iteration  4 RMS(Cart)=  0.00000104 RMS(Int)=  0.00000346
 Iteration  5 RMS(Cart)=  0.00000057 RMS(Int)=  0.00000360
 Variable       Old X    -DE/DX   Delta X   Delta X   Delta X     New X
                                 (Linear)    (Quad)   (Total)
    R1        2.71548  -0.00205   0.00000  -0.00254  -0.00248   2.71301
    R2        2.54791   0.03979   0.00000   0.07036   0.07039   2.61830
    R3        2.04061   0.00995   0.00000   0.02625   0.02625   2.06686
    R4        2.55955   0.03897   0.00000   0.07005   0.07007   2.62962
    R5        2.55135   0.02187   0.00000   0.03843   0.03843   2.58979
    R6        3.30562   0.00310   0.00000   0.00702   0.00697   3.31259
    R7        2.77520  -0.00549   0.00000  -0.01451  -0.01451   2.76069
    R8        3.25301   0.00744   0.00000   0.01937   0.01934   3.27235
    R9        2.03488   0.01005   0.00000   0.02624   0.02624   2.06112
   R10        3.32593   0.00646   0.00000   0.01766   0.01761   3.34354
   R11        2.55568   0.03893   0.00000   0.06928   0.06929   2.62497
   R12        3.28078   0.00573   0.00000   0.01534   0.01531   3.29609
   R13        2.57861   0.04272   0.00000   0.08165   0.08172   2.66033
   R14        2.71221  -0.00239   0.00000  -0.00329  -0.00324   2.70897
   R15        2.70660  -0.00329   0.00000  -0.00533  -0.00526   2.70134
   R16        3.28394   0.00518   0.00000   0.01395   0.01392   3.29786
   R17        2.03447   0.01109   0.00000   0.02893   0.02893   2.06340
   R18        3.29711   0.00649   0.00000   0.01687   0.01682   3.31393
   R19        2.55062   0.03813   0.00000   0.06705   0.06706   2.61768
   R20        2.03365   0.01087   0.00000   0.02833   0.02833   2.06198
   R21        2.03719   0.00986   0.00000   0.02585   0.02585   2.06303
   R22        1.78132   0.02563   0.00000   0.04181   0.04181   1.82313
    A1        1.95827  -0.00209   0.00000  -0.00226  -0.00216   1.95611
    A2        2.15978   0.00102   0.00000   0.00100   0.00095   2.16073
    A3        2.16512   0.00107   0.00000   0.00125   0.00121   2.16633
    A4        1.98439  -0.00419   0.00000  -0.01086  -0.01078   1.97361
    A5        2.15725   0.00753   0.00000   0.02565   0.02561   2.18286
    A6        2.14154  -0.00335   0.00000  -0.01480  -0.01484   2.12670
    A7        1.92302   0.00322   0.00000   0.01044   0.01041   1.93343
    A8        2.23069  -0.00179   0.00000  -0.00596  -0.00595   2.22474
    A9        2.12918  -0.00143   0.00000  -0.00460  -0.00459   2.12460
   A10        1.95819   0.00027   0.00000   0.00152   0.00152   1.95972
   A11        2.22243   0.00142   0.00000   0.00790   0.00790   2.23033
   A12        2.10252  -0.00169   0.00000  -0.00943  -0.00943   2.09309
   A13        1.60085   0.00278   0.00000   0.00113   0.00097   1.60183
   A14        2.10389  -0.00310   0.00000  -0.01111  -0.01112   2.09278
   A15        2.22039  -0.00051   0.00000  -0.00152  -0.00153   2.21886
   A16        1.95843   0.00362   0.00000   0.01237   0.01234   1.97078
   A17        1.58578   0.00159   0.00000  -0.00212  -0.00227   1.58351
   A18        1.93860   0.00165   0.00000   0.00451   0.00447   1.94307
   A19        2.35467   0.00152   0.00000   0.00115   0.00108   2.35576
   A20        1.98992  -0.00318   0.00000  -0.00565  -0.00556   1.98436
   A21        1.99204  -0.00277   0.00000  -0.00409  -0.00398   1.98806
   A22        1.93924   0.00128   0.00000   0.00320   0.00317   1.94240
   A23        2.35179   0.00149   0.00000   0.00087   0.00080   2.35259
   A24        1.94979  -0.00408   0.00000  -0.01072  -0.01062   1.93917
   A25        2.14861   0.00141   0.00000   0.00182   0.00177   2.15038
   A26        2.18478   0.00267   0.00000   0.00890   0.00885   2.19363
   A27        1.58116   0.00243   0.00000   0.00080   0.00067   1.58183
   A28        1.97638   0.00251   0.00000   0.00873   0.00871   1.98509
   A29        2.08744  -0.00252   0.00000  -0.01141  -0.01141   2.07603
   A30        2.21937   0.00001   0.00000   0.00268   0.00269   2.22206
   A31        1.93809  -0.00305   0.00000  -0.00708  -0.00700   1.93109
   A32        2.18309   0.00165   0.00000   0.00424   0.00420   2.18728
   A33        2.16201   0.00140   0.00000   0.00284   0.00280   2.16481
   A34        1.93370  -0.00469   0.00000  -0.02617  -0.02617   1.90753
    D1       -0.00864  -0.00001   0.00000  -0.00360  -0.00358  -0.01222
    D2        3.13798   0.00009   0.00000  -0.00141  -0.00137   3.13661
    D3        3.13644   0.00002   0.00000  -0.00133  -0.00132   3.13512
    D4       -0.00012   0.00011   0.00000   0.00086   0.00089   0.00077
    D5        0.01001   0.00018   0.00000   0.00328   0.00331   0.01332
    D6       -3.14041   0.00002   0.00000   0.00178   0.00179  -3.13863
    D7       -3.13508   0.00016   0.00000   0.00100   0.00103  -3.13404
    D8       -0.00232   0.00000   0.00000  -0.00050  -0.00048  -0.00280
    D9        0.00319  -0.00008   0.00000   0.00236   0.00239   0.00558
   D10        3.11912   0.00019   0.00000  -0.00294  -0.00296   3.11616
   D11        3.13980  -0.00013   0.00000   0.00033   0.00040   3.14020
   D12       -0.02745   0.00013   0.00000  -0.00498  -0.00495  -0.03241
   D13       -0.16425   0.00016   0.00000   0.00379   0.00378  -0.16047
   D14        2.98282   0.00026   0.00000   0.00614   0.00614   2.98896
   D15        0.00204   0.00019   0.00000  -0.00040  -0.00040   0.00164
   D16       -3.11565  -0.00005   0.00000   0.00459   0.00464  -3.11101
   D17       -2.09410  -0.00118   0.00000   0.00000  -0.00000  -2.09410
   D18        1.01181  -0.00095   0.00000  -0.00966  -0.00962   1.00219
   D19        1.01909  -0.00082   0.00000  -0.00568  -0.00569   1.01340
   D20       -2.15819  -0.00060   0.00000  -0.01535  -0.01531  -2.17349
   D21       -0.00706  -0.00018   0.00000  -0.00164  -0.00163  -0.00869
   D22       -3.14050  -0.00005   0.00000  -0.00035  -0.00033  -3.14084
   D23        3.12152   0.00008   0.00000  -0.00606  -0.00605   3.11547
   D24        0.01062  -0.00006   0.00000   0.00244   0.00247   0.01309
   D25       -3.11264   0.00007   0.00000   0.00793   0.00798  -3.10466
   D26        0.02944   0.00001   0.00000   0.00708   0.00713   0.03657
   D27       -0.00424   0.00018   0.00000  -0.00144  -0.00146  -0.00570
   D28        3.13784   0.00012   0.00000  -0.00229  -0.00231   3.13553
   D29       -0.01430   0.00002   0.00000  -0.00259  -0.00259  -0.01689
   D30        3.12712   0.00003   0.00000  -0.00145  -0.00144   3.12568
   D31        0.01488   0.00007   0.00000   0.00237   0.00237   0.01725
   D32       -3.14098   0.00004   0.00000   0.00182   0.00183  -3.13916
   D33       -3.12659   0.00007   0.00000   0.00149   0.00149  -3.12510
   D34        0.00074   0.00004   0.00000   0.00094   0.00094   0.00168
   D35        3.13985  -0.00000   0.00000  -0.00108  -0.00109   3.13876
   D36       -0.00015   0.00001   0.00000  -0.00083  -0.00083  -0.00098
   D37       -0.00191   0.00000   0.00000   0.00008   0.00008  -0.00183
   D38        3.14127   0.00001   0.00000   0.00033   0.00033  -3.14158
   D39       -0.00694  -0.00011   0.00000  -0.00050  -0.00048  -0.00742
   D40        3.13415  -0.00005   0.00000   0.00037   0.00039   3.13455
   D41       -3.12978  -0.00005   0.00000   0.00022   0.00022  -3.12956
   D42        0.01130   0.00001   0.00000   0.00109   0.00110   0.01241
   D43        0.00042  -0.00003   0.00000  -0.00125  -0.00125  -0.00083
   D44        3.12368  -0.00012   0.00000  -0.00200  -0.00200   3.12168
   D45       -0.00156   0.00003   0.00000   0.00133   0.00134  -0.00022
   D46        3.13969   0.00001   0.00000   0.00012   0.00013   3.13982
   D47        0.00221  -0.00002   0.00000  -0.00103  -0.00103   0.00118
   D48       -3.14095  -0.00003   0.00000  -0.00127  -0.00128   3.14095
   D49       -3.13901   0.00001   0.00000   0.00030   0.00031  -3.13870
   D50        0.00101   0.00000   0.00000   0.00006   0.00006   0.00107
         Item               Value     Threshold  Converged?
 Maximum Force            0.042717     0.000450     NO 
 RMS     Force            0.009799     0.000300     NO 
 Maximum Displacement     0.095814     0.001800     NO 
 RMS     Displacement     0.025521     0.001200     NO 
 Predicted change in Energy=-9.885075D-03
 GradGradGradGradGradGradGradGradGradGradGradGradGradGradGradGradGradGrad

                          Input orientation:                          
 ---------------------------------------------------------------------
 Center     Atomic      Atomic             Coordinates (Angstroms)
 Number     Number       Type             X           Y           Z
 ---------------------------------------------------------------------
      1          6           0        3.949763    0.782217    0.249659
      2          6           0        2.547423    1.036125    0.423141
      3          6           0        1.742007    0.027853   -0.097490
      4          6           0        4.185422   -0.425250   -0.387695
      5          1           0        4.737481    1.461705    0.587371
      6         16           0        2.718250   -1.248134   -0.798653
      7          1           0        5.148258   -0.868703   -0.644443
      8          6           0        0.283469   -0.049312   -0.066975
      9         16           0       -0.511321   -1.410049    0.737521
     10          6           0       -2.079293   -0.738724    0.372734
     11          6           0       -1.965253    0.484376   -0.314929
     12          6           0       -0.616156    0.880050   -0.573425
     13          1           0       -0.307625    1.787307   -1.096826
     14         16           0       -3.534545    1.157092   -0.675944
     15          6           0       -4.318927   -0.207842    0.096720
     16          6           0       -3.434281   -1.141702    0.610661
     17          1           0       -5.409082   -0.241797    0.128718
     18          1           0       -3.740192   -2.054376    1.125711
     19          8           0        2.016938    2.147177    1.025054
     20          1           0        2.725663    2.654987    1.438090
 ---------------------------------------------------------------------
                    Distance matrix (angstroms):
                    1          2          3          4          5
     1  C    0.000000
     2  C    1.435662   0.000000
     3  C    2.358764   1.391533   0.000000
     4  C    1.385544   2.340110   2.501959   0.000000
     5  H    1.093733   2.237062   3.390845   2.194567   0.000000
     6  S    2.595748   2.596112   1.752946   1.731651   3.652613
     7  H    2.227407   3.395946   3.564480   1.090698   2.667753
     8  C    3.772719   2.558099   1.460896   3.933119   4.748638
     9  S    4.994528   3.929187   2.800409   4.929029   5.984934
    10  C    6.219158   4.955717   3.925695   6.318479   7.166336
    11  C    5.949360   4.605802   3.741586   6.217999   6.833444
    12  C    4.640546   3.320502   2.552193   4.979303   5.508830
    13  H    4.576962   3.320522   2.880164   5.058235   5.328755
    14  S    7.550639   6.181663   5.426951   7.885733   8.373480
    15  C    8.329156   6.985754   6.068623   8.520908   9.222074
    16  C    7.639103   6.368585   5.353811   7.718153   8.576477
    17  H    9.415478   8.063854   7.159746   9.610143  10.298788
    18  H    8.243126   7.041228   5.990526   8.231634   9.193670
    19  O    2.490014   1.370457   2.413966   3.649050   2.839506
    20  H    2.533388   1.919012   3.198034   3.866814   2.488987
                    6          7          8          9         10
     6  S    0.000000
     7  H    2.464283   0.000000
     8  C    2.810815   4.966995   0.000000
     9  S    3.579969   5.850958   1.769325   0.000000
    10  C    4.964682   7.299934   2.500256   1.744214   0.000000
    11  C    5.017049   7.248547   2.324447   2.609677   1.407785
    12  C    3.962090   6.024256   1.389076   2.640857   2.378322
    13  H    4.296362   6.084874   2.187042   3.691803   3.417492
    14  S    6.700568   8.916048   4.050122   4.210461   2.609905
    15  C    7.169781   9.519120   4.608034   4.043982   2.318184
    16  C    6.312775   8.678122   3.933723   2.937993   1.433525
    17  H    8.241739  10.604161   5.699166   5.071837   3.375497
    18  H    6.787096   9.140230   4.651089   3.315337   2.248666
    19  O    3.917382   4.657029   3.003666   4.373628   5.053024
    20  H    4.498603   4.756290   3.942432   5.243412   5.978283
                   11         12         13         14         15
    11  C    0.000000
    12  C    1.429489   0.000000
    13  H    2.248716   1.091905   0.000000
    14  S    1.745153   2.933301   3.314714   0.000000
    15  C    2.487650   3.917028   4.636347   1.753656   0.000000
    16  C    2.378842   3.664883   4.612005   2.636258   1.385217
    17  H    3.547409   4.972292   5.625308   2.473512   1.091154
    18  H    3.416301   4.610588   5.610768   3.688059   2.191676
    19  O    4.518662   3.330756   3.167881   5.890044   6.822836
    20  H    5.457960   4.285365   4.047160   6.775178   7.721483
                   16         17         18         19         20
    16  C    0.000000
    17  H    2.223047   0.000000
    18  H    1.091711   2.657938   0.000000
    19  O    6.379987   7.852158   7.127953   0.000000
    20  H    7.283159   8.733837   8.005183   0.964760   0.000000
 Stoichiometry    C10H6OS3
 Framework group  C1[X(C10H6OS3)]
 Deg. of freedom    54
 Full point group                 C1      NOp   1
 Largest Abelian subgroup         C1      NOp   1
 Largest concise Abelian subgroup C1      NOp   1
                         Standard orientation:                         
 ---------------------------------------------------------------------
 Center     Atomic      Atomic             Coordinates (Angstroms)
 Number     Number       Type             X           Y           Z
 ---------------------------------------------------------------------
      1          6           0        3.949051    0.796294    0.247636
      2          6           0        2.546039    1.046367    0.421260
      3          6           0        1.743397    0.034620   -0.096906
      4          6           0        4.188019   -0.411777   -0.387338
      5          1           0        4.734892    1.478828    0.583572
      6         16           0        2.723121   -1.239887   -0.795900
      7          1           0        5.152056   -0.852879   -0.643629
      8          6           0        0.285110   -0.046840   -0.065539
      9         16           0       -0.505230   -1.408282    0.742140
     10          6           0       -2.075374   -0.742401    0.376714
     11          6           0       -1.965313    0.479613   -0.313524
     12          6           0       -0.617527    0.878782   -0.573477
     13          1           0       -0.311954    1.785875   -1.098895
     14         16           0       -3.536779    1.146890   -0.675179
     15          6           0       -4.316713   -0.218785    0.100671
     16          6           0       -3.429039   -1.148934    0.616116
     17          1           0       -5.406748   -0.255931    0.133257
     18          1           0       -3.731978   -2.061453    1.133193
     19          8           0        2.012517    2.157069    1.021133
     20          1           0        2.719915    2.667846    1.432784
 ---------------------------------------------------------------------
 Rotational constants (GHZ):           1.2789901           0.2686033           0.2412248
 Standard basis: Aug-CC-pVDZ (5D, 7F)
 There are   416 symmetry adapted cartesian basis functions of A   symmetry.
 There are   388 symmetry adapted basis functions of A   symmetry.
   388 basis functions,   782 primitive gaussians,   416 cartesian basis functions
    61 alpha electrons       61 beta electrons
       nuclear repulsion energy      1118.9936341072 Hartrees.
 NAtoms=   20 NActive=   20 NUniq=   20 SFac= 1.00D+00 NAtFMM=   60 NAOKFM=F Big=F
 Integral buffers will be    131072 words long.
 Raffenetti 1 integral format.
 Two-electron integral symmetry is turned on.
 One-electron integrals computed using PRISM.
 NBasis=   388 RedAO= T EigKep=  3.93D-06  NBF=   388
 NBsUse=   388 1.00D-06 EigRej= -1.00D+00 NBFU=   388
 Initial guess from the checkpoint file:  "/tmp/pbs.4766300[55].pbs/Gau-3570118.chk"
 B after Tr=    -0.000000   -0.000000   -0.000000
         Rot=    0.999999    0.000257   -0.000479   -0.001263 Ang=   0.16 deg.
 ExpMin= 2.97D-02 ExpMax= 1.11D+05 ExpMxC= 1.07D+03 IAcc=3 IRadAn=         5 AccDes= 0.00D+00
 Harris functional with IExCor=  205 and IRadAn=       5 diagonalized for initial guess.
 HarFok:  IExCor=  205 AccDes= 0.00D+00 IRadAn=         5 IDoV= 1 UseB2=F ITyADJ=14
 ICtDFT=  3500011 ScaDFX=  1.000000  1.000000  1.000000  1.000000
 FoFCou: FMM=F IPFlag=           0 FMFlag=      100000 FMFlg1=           0
         NFxFlg=           0 DoJE=T BraDBF=F KetDBF=T FulRan=T
         wScrn=  0.000000 ICntrl=       500 IOpCl=  0 I1Cent=   200000004 NGrid=           0
         NMat0=    1 NMatS0=      1 NMatT0=    0 NMatD0=    1 NMtDS0=    0 NMtDT0=    0
 Petite list used in FoFCou.
 Requested convergence on RMS density matrix=1.00D-08 within 128 cycles.
 Requested convergence on MAX density matrix=1.00D-06.
 Requested convergence on             energy=1.00D-06.
 No special actions if energy rises.
 SCF Done:  E(RHF) =  -1649.63271360     A.U. after   15 cycles
            NFock= 15  Conv=0.43D-08     -V/T= 2.0006
 ExpMin= 2.97D-02 ExpMax= 1.11D+05 ExpMxC= 1.07D+03 IAcc=3 IRadAn=         5 AccDes= 0.00D+00
 HarFok:  IExCor=  205 AccDes= 0.00D+00 IRadAn=         5 IDoV=-2 UseB2=F ITyADJ=14
 ICtDFT= 12500011 ScaDFX=  1.000000  1.000000  1.000000  1.000000
 GSVD:  LWork=        -884 too small for GESVD, short by        3770 words or        3770 for optimal perf.
 Range of M.O.s used for correlation:    27   388
 NBasis=   388 NAE=    61 NBE=    61 NFC=    26 NFV=     0
 NROrb=    362 NOA=    35 NOB=    35 NVA=   327 NVB=   327

 **** Warning!!: The largest alpha MO coefficient is  0.83423089D+02

 Fully direct method using O(ONN) memory.
 JobTyp=1 Pass  1:  I=  27 to  61 NPSUse=  8 ParTrn=T ParDer=T DoDerP=T.
 Spin components of T(2) and E(2):
     alpha-alpha T2 =       0.1169670049D+00 E2=     -0.2767348587D+00
     alpha-beta  T2 =       0.5697635780D+00 E2=     -0.1434544383D+01
     beta-beta   T2 =       0.1169670049D+00 E2=     -0.2767348587D+00
 ANorm=    0.1343018089D+01
 E2 =    -0.1988014101D+01 EUMP2 =    -0.16516207276993D+04
          IDoAtm=11111111111111111111
          Differentiating once with respect to electric field.
                with respect to dipole field.
          Differentiating once with respect to nuclear coordinates.
 Keep R1 ints in memory in canonical form, NReq=2883857471.
          There are     1 degrees of freedom in the 1st order CPHF.  IDoFFX=0 NUNeed=     1.
 LinEq1:  Iter=  0 NonCon=     1 RMS=2.90D-03 Max=7.46D-02 NDo=     1
 AX will form     1 AO Fock derivatives at one time.
 LinEq1:  Iter=  1 NonCon=     1 RMS=7.12D-04 Max=1.09D-02 NDo=     1
 LinEq1:  Iter=  2 NonCon=     1 RMS=3.69D-04 Max=1.32D-02 NDo=     1
 LinEq1:  Iter=  3 NonCon=     1 RMS=1.02D-04 Max=1.83D-03 NDo=     1
 LinEq1:  Iter=  4 NonCon=     1 RMS=4.22D-05 Max=1.03D-03 NDo=     1
 LinEq1:  Iter=  5 NonCon=     1 RMS=1.78D-05 Max=5.64D-04 NDo=     1
 LinEq1:  Iter=  6 NonCon=     1 RMS=7.75D-06 Max=3.42D-04 NDo=     1
 LinEq1:  Iter=  7 NonCon=     1 RMS=3.72D-06 Max=1.50D-04 NDo=     1
 LinEq1:  Iter=  8 NonCon=     1 RMS=1.39D-06 Max=4.62D-05 NDo=     1
 LinEq1:  Iter=  9 NonCon=     1 RMS=6.04D-07 Max=2.12D-05 NDo=     1
 LinEq1:  Iter= 10 NonCon=     1 RMS=2.26D-07 Max=3.85D-06 NDo=     1
 LinEq1:  Iter= 11 NonCon=     1 RMS=9.98D-08 Max=3.73D-06 NDo=     1
 LinEq1:  Iter= 12 NonCon=     1 RMS=3.81D-08 Max=7.43D-07 NDo=     1
 LinEq1:  Iter= 13 NonCon=     1 RMS=1.52D-08 Max=3.99D-07 NDo=     1
 LinEq1:  Iter= 14 NonCon=     1 RMS=5.13D-09 Max=1.08D-07 NDo=     1
 LinEq1:  Iter= 15 NonCon=     1 RMS=2.23D-09 Max=5.82D-08 NDo=     1
 LinEq1:  Iter= 16 NonCon=     1 RMS=8.74D-10 Max=2.30D-08 NDo=     1
 LinEq1:  Iter= 17 NonCon=     1 RMS=3.84D-10 Max=1.11D-08 NDo=     1
 LinEq1:  Iter= 18 NonCon=     1 RMS=1.35D-10 Max=2.23D-09 NDo=     1
 LinEq1:  Iter= 19 NonCon=     0 RMS=4.52D-11 Max=6.99D-10 NDo=     1
 Linear equations converged to 1.000D-10 1.000D-09 after    19 iterations.
 End of Minotr F.D. properties file   721 does not exist.
 End of Minotr F.D. properties file   722 does not exist.
 End of Minotr F.D. properties file   788 does not exist.
 Calling FoFJK, ICntrl=  10002127 FMM=F ISym2X=0 I1Cent= 0 IOpClX= 0 NMat=1 NMatS=1 NMatT=0.
 ***** Axes restored to original set *****
 -------------------------------------------------------------------
 Center     Atomic                   Forces (Hartrees/Bohr)
 Number     Number              X              Y              Z
 -------------------------------------------------------------------
      1        6          -0.007826696    0.003766619    0.002191711
      2        6           0.015132351   -0.000521494   -0.002187425
      3        6          -0.006747587   -0.006025017   -0.001215816
      4        6           0.002378417   -0.003860597   -0.001906847
      5        1           0.000633035   -0.000795179   -0.000396266
      6       16          -0.000108077    0.004601988    0.002683795
      7        1          -0.000209298    0.000050493    0.000045452
      8        6           0.006775115   -0.001556662    0.001459586
      9       16          -0.001283593    0.002826163   -0.002633383
     10        6          -0.005911053   -0.007534939    0.004281196
     11        6           0.005717062    0.007499126   -0.004037962
     12        6          -0.008413574    0.001268678    0.000238899
     13        1           0.001235736   -0.000664646    0.000266381
     14       16           0.000991892   -0.003605663    0.001971675
     15        6          -0.003337389    0.002210628   -0.001211094
     16        6           0.006900298   -0.000159081   -0.000129501
     17        1          -0.000034073    0.000141511   -0.000030905
     18        1          -0.000873025    0.000486450   -0.000267353
     19        8          -0.008075716    0.001508298    0.000387926
     20        1           0.003056173    0.000363323    0.000489931
 -------------------------------------------------------------------
 Cartesian Forces:  Max     0.015132351 RMS     0.004020135

 GradGradGradGradGradGradGradGradGradGradGradGradGradGradGradGradGradGrad
 Berny optimization.
 Using GEDIIS/GDIIS optimizer.
 FormGI is forming the generalized inverse of G from B-inverse, IUseBI=4.
 Internal  Forces:  Max     0.005221418 RMS     0.001607239
 Search for a local minimum.
 Step number   2 out of a maximum of  116
 All quantities printed in internal units (Hartrees-Bohrs-Radians)
 Mixed Optimization -- RFO/linear search
 Update second derivatives using D2CorX and points    1    2
 DE= -1.01D-02 DEPred=-9.89D-03 R= 1.02D+00
 TightC=F SS=  1.41D+00  RLast= 1.95D-01 DXNew= 5.0454D-01 5.8485D-01
 Trust test= 1.02D+00 RLast= 1.95D-01 DXMaxT set to 5.05D-01
 ITU=  1  0
 Use linear search instead of GDIIS.
     Eigenvalues ---    0.01478   0.01578   0.01625   0.01708   0.01753
     Eigenvalues ---    0.01757   0.01980   0.02018   0.02064   0.02140
     Eigenvalues ---    0.02222   0.02280   0.02325   0.02352   0.02373
     Eigenvalues ---    0.02449   0.15782   0.15999   0.16000   0.16000
     Eigenvalues ---    0.16000   0.16033   0.22511   0.22602   0.23694
     Eigenvalues ---    0.24335   0.24769   0.24910   0.24980   0.24988
     Eigenvalues ---    0.25193   0.29110   0.29915   0.30330   0.31029
     Eigenvalues ---    0.31337   0.32703   0.35771   0.36052   0.36268
     Eigenvalues ---    0.36393   0.36442   0.36756   0.38893   0.39189
     Eigenvalues ---    0.39541   0.45276   0.50318   0.52033   0.53120
     Eigenvalues ---    0.54056   0.55149   0.592381000.000001000.00000
     Eigenvalues --- 1000.000001000.000001000.000001000.000001000.00000
     Eigenvalues --- 1000.000001000.000001000.000001000.000001000.00000
     Eigenvalues --- 1000.000001000.000001000.000001000.000001000.00000
     Eigenvalues --- 1000.000001000.000001000.000001000.000001000.00000
     Eigenvalues --- 1000.000001000.000001000.000001000.000001000.00000
     Eigenvalues --- 1000.000001000.000001000.000001000.000001000.00000
     Eigenvalues --- 1000.000001000.000001000.000001000.000001000.00000
     Eigenvalues --- 1000.000001000.000001000.000001000.000001000.00000
     Eigenvalues --- 1000.000001000.000001000.000001000.000001000.00000
     Eigenvalues --- 1000.000001000.000001000.000001000.000001000.00000
     Eigenvalues --- 1000.00000
 RFO step:  Lambda=-9.05185412D-04 EMin= 1.47819503D-02
 Quartic linear search produced a step of  0.10385.
 Iteration  1 RMS(Cart)=  0.02000865 RMS(Int)=  0.00018083
 Iteration  2 RMS(Cart)=  0.00024055 RMS(Int)=  0.00002438
 Iteration  3 RMS(Cart)=  0.00000003 RMS(Int)=  0.00002438
 Iteration  1 RMS(Cart)=  0.00001311 RMS(Int)=  0.00000527
 Iteration  2 RMS(Cart)=  0.00000717 RMS(Int)=  0.00000589
 Iteration  3 RMS(Cart)=  0.00000392 RMS(Int)=  0.00000666
 Iteration  4 RMS(Cart)=  0.00000214 RMS(Int)=  0.00000716
 Iteration  5 RMS(Cart)=  0.00000117 RMS(Int)=  0.00000746
 Iteration  6 RMS(Cart)=  0.00000064 RMS(Int)=  0.00000763
 Variable       Old X    -DE/DX   Delta X   Delta X   Delta X     New X
                                 (Linear)    (Quad)   (Total)
    R1        2.71301  -0.00517  -0.00026  -0.01410  -0.01436   2.69865
    R2        2.61830   0.00285   0.00731   0.00193   0.00923   2.62753
    R3        2.06686  -0.00016   0.00273  -0.00181   0.00092   2.06777
    R4        2.62962   0.00416   0.00728   0.00477   0.01205   2.64166
    R5        2.58979   0.00385   0.00399   0.00566   0.00965   2.59944
    R6        3.31259  -0.00304   0.00072  -0.01126  -0.01053   3.30206
    R7        2.76069  -0.00181  -0.00151  -0.00483  -0.00634   2.75435
    R8        3.27235  -0.00086   0.00201  -0.00380  -0.00179   3.27055
    R9        2.06112  -0.00022   0.00273  -0.00197   0.00075   2.06187
   R10        3.34354  -0.00084   0.00183  -0.00431  -0.00247   3.34107
   R11        2.62497   0.00370   0.00720   0.00372   0.01092   2.63590
   R12        3.29609  -0.00124   0.00159  -0.00499  -0.00341   3.29268
   R13        2.66033   0.00522   0.00849   0.00714   0.01561   2.67594
   R14        2.70897  -0.00346  -0.00034  -0.00917  -0.00951   2.69945
   R15        2.70134  -0.00342  -0.00055  -0.00883  -0.00938   2.69196
   R16        3.29786  -0.00143   0.00145  -0.00553  -0.00408   3.29379
   R17        2.06340  -0.00033   0.00300  -0.00246   0.00055   2.06395
   R18        3.31393  -0.00136   0.00175  -0.00598  -0.00423   3.30970
   R19        2.61768   0.00249   0.00696   0.00127   0.00823   2.62591
   R20        2.06198   0.00003   0.00294  -0.00134   0.00160   2.06358
   R21        2.06303  -0.00029   0.00268  -0.00218   0.00051   2.06354
   R22        1.82313   0.00265   0.00434   0.00267   0.00701   1.83014
    A1        1.95611   0.00033  -0.00022   0.00192   0.00168   1.95779
    A2        2.16073   0.00095   0.00010   0.00668   0.00678   2.16752
    A3        2.16633  -0.00128   0.00013  -0.00862  -0.00849   2.15783
    A4        1.97361   0.00160  -0.00112   0.00772   0.00660   1.98021
    A5        2.18286   0.00267   0.00266   0.01048   0.01313   2.19599
    A6        2.12670  -0.00427  -0.00154  -0.01819  -0.01973   2.10697
    A7        1.93343  -0.00234   0.00108  -0.01082  -0.00976   1.92367
    A8        2.22474   0.00044  -0.00062   0.00196   0.00129   2.22603
    A9        2.12460   0.00191  -0.00048   0.00843   0.00790   2.13250
   A10        1.95972  -0.00179   0.00016  -0.00878  -0.00863   1.95109
   A11        2.23033   0.00093   0.00082   0.00432   0.00515   2.23548
   A12        2.09309   0.00085  -0.00098   0.00444   0.00346   2.09656
   A13        1.60183   0.00219   0.00010   0.00992   0.01004   1.61187
   A14        2.09278   0.00093  -0.00115   0.00456   0.00330   2.09608
   A15        2.21886   0.00095  -0.00016   0.00414   0.00388   2.22274
   A16        1.97078  -0.00187   0.00128  -0.00957  -0.00836   1.96242
   A17        1.58351   0.00251  -0.00024   0.01073   0.01051   1.59402
   A18        1.94307  -0.00243   0.00046  -0.01078  -0.01033   1.93274
   A19        2.35576   0.00155   0.00011   0.00607   0.00620   2.36196
   A20        1.98436   0.00089  -0.00058   0.00470   0.00413   1.98848
   A21        1.98806   0.00101  -0.00041   0.00491   0.00448   1.99254
   A22        1.94240  -0.00248   0.00033  -0.01056  -0.01022   1.93218
   A23        2.35259   0.00147   0.00008   0.00562   0.00571   2.35830
   A24        1.93917   0.00077  -0.00110   0.00454   0.00344   1.94261
   A25        2.15038  -0.00182   0.00018  -0.01195  -0.01177   2.13861
   A26        2.19363   0.00105   0.00092   0.00741   0.00833   2.20196
   A27        1.58183   0.00229   0.00007   0.00990   0.00998   1.59181
   A28        1.98509  -0.00138   0.00091  -0.00782  -0.00692   1.97817
   A29        2.07603   0.00054  -0.00118   0.00320   0.00202   2.07805
   A30        2.22206   0.00083   0.00028   0.00462   0.00490   2.22696
   A31        1.93109   0.00068  -0.00073   0.00378   0.00304   1.93413
   A32        2.18728   0.00068   0.00044   0.00511   0.00555   2.19284
   A33        2.16481  -0.00137   0.00029  -0.00889  -0.00860   2.15621
   A34        1.90753  -0.00299  -0.00272  -0.01947  -0.02219   1.88534
    D1       -0.01222   0.00010  -0.00037  -0.00326  -0.00362  -0.01584
    D2        3.13661   0.00008  -0.00014  -0.00450  -0.00464   3.13198
    D3        3.13512   0.00008  -0.00014   0.00052   0.00041   3.13553
    D4        0.00077   0.00007   0.00009  -0.00071  -0.00060   0.00016
    D5        0.01332   0.00008   0.00034   0.00323   0.00357   0.01688
    D6       -3.13863  -0.00004   0.00019   0.00200   0.00216  -3.13646
    D7       -3.13404   0.00011   0.00011  -0.00051  -0.00038  -3.13442
    D8       -0.00280  -0.00002  -0.00005  -0.00175  -0.00178  -0.00459
    D9        0.00558  -0.00025   0.00025   0.00170   0.00192   0.00750
   D10        3.11616   0.00014  -0.00031  -0.01412  -0.01435   3.10181
   D11        3.14020  -0.00020   0.00004   0.00302   0.00303  -3.13996
   D12       -0.03241   0.00019  -0.00051  -0.01280  -0.01325  -0.04566
   D13       -0.16047   0.00015   0.00039   0.00683   0.00722  -0.15325
   D14        2.98896   0.00011   0.00064   0.00538   0.00602   2.99499
   D15        0.00164   0.00026  -0.00004   0.00016   0.00016   0.00180
   D16       -3.11101  -0.00007   0.00048   0.01503   0.01552  -3.09549
   D17       -2.09410  -0.00133  -0.00000   0.00000   0.00000  -2.09410
   D18        1.00219  -0.00113  -0.00100  -0.02591  -0.02695   0.97524
   D19        1.01340  -0.00098  -0.00059  -0.01771  -0.01834   0.99506
   D20       -2.17349  -0.00078  -0.00159  -0.04362  -0.04530  -2.21879
   D21       -0.00869  -0.00019  -0.00017  -0.00196  -0.00213  -0.01082
   D22       -3.14084  -0.00008  -0.00003  -0.00084  -0.00088   3.14147
   D23        3.11547   0.00016  -0.00063  -0.01162  -0.01217   3.10331
   D24        0.01309  -0.00007   0.00026   0.01052   0.01075   0.02384
   D25       -3.10466  -0.00011   0.00083   0.01467   0.01547  -3.08919
   D26        0.03657  -0.00012   0.00074   0.01621   0.01691   0.05348
   D27       -0.00570   0.00014  -0.00015  -0.00943  -0.00952  -0.01522
   D28        3.13553   0.00013  -0.00024  -0.00789  -0.00809   3.12744
   D29       -0.01689   0.00002  -0.00027  -0.00854  -0.00880  -0.02569
   D30        3.12568  -0.00001  -0.00015  -0.00636  -0.00651   3.11917
   D31        0.01725   0.00005   0.00025   0.00493   0.00515   0.02241
[...]
 ---------------------------------------------------------------------
      1          6           0        3.931290    0.822108    0.284341
      2          6           0        2.532909    1.064313    0.397090
      3          6           0        1.742798    0.037578   -0.133163
      4          6           0        4.204307   -0.403880   -0.314985
      5          1           0        4.709018    1.507595    0.632122
      6         16           0        2.756624   -1.239049   -0.755974
      7          1           0        5.177950   -0.844664   -0.529459
      8          6           0        0.290491   -0.059859   -0.111730
      9         16           0       -0.496393   -1.427243    0.683911
     10          6           0       -2.072605   -0.761775    0.360417
     11          6           0       -1.963445    0.484928   -0.306587
     12          6           0       -0.626127    0.883521   -0.577349
     13          1           0       -0.312381    1.799045   -1.082123
     14         16           0       -3.540863    1.150324   -0.628748
     15          6           0       -4.316062   -0.227710    0.119600
     16          6           0       -3.417020   -1.171335    0.601207
     17          1           0       -5.405491   -0.263137    0.166270
     18          1           0       -3.724939   -2.093030    1.098050
     19          8           0        1.945607    2.178016    0.957155
     20          1           0        2.641908    2.718231    1.357830
 ---------------------------------------------------------------------
 Rotational constants (GHZ):           1.2912533           0.2700206           0.2405591

 **********************************************************************

            Population analysis using the SCF Density.

 **********************************************************************

 Orbital symmetries:
       Occupied  (A) (A) (A) (A) (A) (A) (A) (A) (A) (A) (A) (A)
                 (A) (A) (A) (A) (A) (A) (A) (A) (A) (A) (A) (A)
                 (A) (A) (A) (A) (A) (A) (A) (A) (A) (A) (A) (A)
                 (A) (A) (A) (A) (A) (A) (A) (A) (A) (A) (A) (A)
                 (A) (A) (A) (A) (A) (A) (A) (A) (A) (A) (A) (A)
                 (A)
       Virtual   (A) (A) (A) (A) (A) (A) (A) (A) (A) (A) (A) (A)
                 (A) (A) (A) (A) (A) (A) (A) (A) (A) (A) (A) (A)
                 (A) (A) (A) (A) (A) (A) (A) (A) (A) (A) (A) (A)
                 (A) (A) (A) (A) (A) (A) (A) (A) (A) (A) (A) (A)
                 (A) (A) (A) (A) (A) (A) (A) (A) (A) (A) (A) (A)
                 (A) (A) (A) (A) (A) (A) (A) (A) (A) (A) (A) (A)
                 (A) (A) (A) (A) (A) (A) (A) (A) (A) (A) (A) (A)
                 (A) (A) (A) (A) (A) (A) (A) (A) (A) (A) (A) (A)
                 (A) (A) (A) (A) (A) (A) (A) (A) (A) (A) (A) (A)
                 (A) (A) (A) (A) (A) (A) (A) (A) (A) (A) (A) (A)
                 (A) (A) (A) (A) (A) (A) (A) (A) (A) (A) (A) (A)
                 (A) (A) (A) (A) (A) (A) (A) (A) (A) (A) (A) (A)
                 (A) (A) (A) (A) (A) (A) (A) (A) (A) (A) (A) (A)
                 (A) (A) (A) (A) (A) (A) (A) (A) (A) (A) (A) (A)
                 (A) (A) (A) (A) (A) (A) (A) (A) (A) (A) (A) (A)
                 (A) (A) (A) (A) (A) (A) (A) (A) (A) (A) (A) (A)
                 (A) (A) (A) (A) (A) (A) (A) (A) (A) (A) (A) (A)
                 (A) (A) (A) (A) (A) (A) (A) (A) (A) (A) (A) (A)
                 (A) (A) (A) (A) (A) (A) (A) (A) (A) (A) (A) (A)
                 (A) (A) (A) (A) (A) (A) (A) (A) (A) (A) (A) (A)
                 (A) (A) (A) (A) (A) (A) (A) (A) (A) (A) (A) (A)
                 (A) (A) (A) (A) (A) (A) (A) (A) (A) (A) (A) (A)
                 (A) (A) (A) (A) (A) (A) (A) (A) (A) (A) (A) (A)
                 (A) (A) (A) (A) (A) (A) (A) (A) (A) (A) (A) (A)
                 (A) (A) (A) (A) (A) (A) (A) (A) (A) (A) (A) (A)
                 (A) (A) (A) (A) (A) (A) (A) (A) (A) (A) (A) (A)
                 (A) (A) (A) (A) (A) (A) (A) (A) (A) (A) (A) (A)
                 (A) (A) (A)
 The electronic state is 1-A.
 Alpha  occ. eigenvalues --  -91.99638 -91.99064 -91.98951 -20.61397 -11.32479
 Alpha  occ. eigenvalues --  -11.29260 -11.28906 -11.28077 -11.27685 -11.27597
 Alpha  occ. eigenvalues --  -11.27484 -11.26402 -11.26156 -11.25908  -8.99770
 Alpha  occ. eigenvalues --   -8.99178  -8.99046  -6.67932  -6.67841  -6.67656
 Alpha  occ. eigenvalues --   -6.67343  -6.67263  -6.67209  -6.67125  -6.67067
 Alpha  occ. eigenvalues --   -6.66925  -1.41440  -1.20142  -1.17592  -1.11566
 Alpha  occ. eigenvalues --   -1.02337  -1.01842  -0.98798  -0.94453  -0.93784
 Alpha  occ. eigenvalues --   -0.82434  -0.80330  -0.76355  -0.73715  -0.71990
 Alpha  occ. eigenvalues --   -0.69336  -0.66266  -0.65822  -0.61065  -0.60311
 Alpha  occ. eigenvalues --   -0.58137  -0.56440  -0.55545  -0.54031  -0.52837
 Alpha  occ. eigenvalues --   -0.52672  -0.50524  -0.49489  -0.48583  -0.45887
 Alpha  occ. eigenvalues --   -0.45668  -0.38605  -0.35033  -0.33097  -0.31692
 Alpha  occ. eigenvalues --   -0.27460
 Alpha virt. eigenvalues --    0.02769   0.03739   0.03911   0.05012   0.05081
 Alpha virt. eigenvalues --    0.06231   0.06926   0.08097   0.08454   0.09115
 Alpha virt. eigenvalues --    0.09814   0.10111   0.10481   0.10907   0.11243
 Alpha virt. eigenvalues --    0.12346   0.12581   0.12673   0.12936   0.13430
 Alpha virt. eigenvalues --    0.13690   0.14032   0.14483   0.14778   0.15011
 Alpha virt. eigenvalues --    0.15342   0.15744   0.16404   0.16742   0.16779
 Alpha virt. eigenvalues --    0.17863   0.18045   0.18383   0.18561   0.19208
 Alpha virt. eigenvalues --    0.19841   0.20029   0.20392   0.21141   0.21281
 Alpha virt. eigenvalues --    0.21629   0.22305   0.22824   0.23223   0.23421
 Alpha virt. eigenvalues --    0.23646   0.24455   0.24766   0.25046   0.25520
 Alpha virt. eigenvalues --    0.26725   0.27150   0.27535   0.27623   0.28174
 Alpha virt. eigenvalues --    0.28516   0.29681   0.30782   0.30959   0.31562
 Alpha virt. eigenvalues --    0.31914   0.32212   0.32541   0.32811   0.33090
 Alpha virt. eigenvalues --    0.33904   0.34439   0.34697   0.34956   0.35580
 Alpha virt. eigenvalues --    0.36223   0.36899   0.37823   0.38349   0.38577
 Alpha virt. eigenvalues --    0.39807   0.40634   0.40801   0.41001   0.42254
 Alpha virt. eigenvalues --    0.43176   0.43524   0.44102   0.44918   0.44946
 Alpha virt. eigenvalues --    0.45597   0.46008   0.46783   0.48275   0.48415
 Alpha virt. eigenvalues --    0.49191   0.49287   0.49692   0.50992   0.51799
 Alpha virt. eigenvalues --    0.53162   0.53413   0.53888   0.54386   0.54951
 Alpha virt. eigenvalues --    0.55675   0.56988   0.58217   0.58858   0.59469
 Alpha virt. eigenvalues --    0.59869   0.60436   0.60886   0.61474   0.62247
 Alpha virt. eigenvalues --    0.62880   0.63026   0.64282   0.64737   0.65403
 Alpha virt. eigenvalues --    0.65973   0.66576   0.67170   0.67695   0.67947
 Alpha virt. eigenvalues --    0.68357   0.69105   0.69713   0.70058   0.70903
 Alpha virt. eigenvalues --    0.71148   0.72030   0.72535   0.72755   0.73537
 Alpha virt. eigenvalues --    0.73787   0.74664   0.75202   0.75473   0.76007
 Alpha virt. eigenvalues --    0.76510   0.76881   0.77676   0.78450   0.78846
 Alpha virt. eigenvalues --    0.80838   0.81925   0.82894   0.83975   0.84120
 Alpha virt. eigenvalues --    0.85051   0.85363   0.86460   0.87209   0.87826
 Alpha virt. eigenvalues --    0.87864   0.89002   0.89801   0.90164   0.91207
 Alpha virt. eigenvalues --    0.91513   0.92742   0.93177   0.93983   0.94671
 Alpha virt. eigenvalues --    0.95508   0.96033   0.96079   0.96933   0.97397
 Alpha virt. eigenvalues --    0.98914   1.00051   1.00685   1.02105   1.02826
 Alpha virt. eigenvalues --    1.04155   1.05042   1.05295   1.06560   1.07181
 Alpha virt. eigenvalues --    1.08672   1.09716   1.10250   1.10887   1.12141
 Alpha virt. eigenvalues --    1.13121   1.13895   1.16439   1.16646   1.18441
 Alpha virt. eigenvalues --    1.19722   1.20526   1.21865   1.22364   1.23045
 Alpha virt. eigenvalues --    1.24055   1.24129   1.24946   1.25946   1.27335
 Alpha virt. eigenvalues --    1.27962   1.28253   1.29668   1.30326   1.31389
 Alpha virt. eigenvalues --    1.32285   1.33820   1.34654   1.35534   1.36464
 Alpha virt. eigenvalues --    1.38315   1.38790   1.40447   1.40798   1.42566
 Alpha virt. eigenvalues --    1.42934   1.43771   1.45218   1.45992   1.48805
 Alpha virt. eigenvalues --    1.50354   1.53878   1.54421   1.55477   1.56852
 Alpha virt. eigenvalues --    1.57873   1.58222   1.59743   1.61139   1.61575
 Alpha virt. eigenvalues --    1.62267   1.63772   1.65022   1.66160   1.66968
 Alpha virt. eigenvalues --    1.67425   1.68946   1.69443   1.70656   1.71644
 Alpha virt. eigenvalues --    1.73205   1.73964   1.75541   1.76108   1.76671
 Alpha virt. eigenvalues --    1.79161   1.80246   1.80988   1.82159   1.83360
 Alpha virt. eigenvalues --    1.84804   1.85073   1.86868   1.88183   1.89616
 Alpha virt. eigenvalues --    1.90771   1.91149   1.93629   1.94940   1.95834
 Alpha virt. eigenvalues --    1.98314   1.98739   2.00226   2.02851   2.04147
 Alpha virt. eigenvalues --    2.05545   2.06741   2.06898   2.07479   2.09454
 Alpha virt. eigenvalues --    2.10212   2.12538   2.13318   2.13892   2.14464
 Alpha virt. eigenvalues --    2.14902   2.16418   2.17993   2.19479   2.20180
 Alpha virt. eigenvalues --    2.22264   2.24955   2.25925   2.26162   2.29592
 Alpha virt. eigenvalues --    2.30576   2.31006   2.32290   2.34164   2.35710
 Alpha virt. eigenvalues --    2.37974   2.40128   2.40993   2.42710   2.44253
 Alpha virt. eigenvalues --    2.45166   2.47149   2.47962   2.48915   2.50357
 Alpha virt. eigenvalues --    2.54001   2.56108   2.58136   2.58742   2.64247
 Alpha virt. eigenvalues --    2.70348   2.77274   2.79505   2.81985   2.83670
 Alpha virt. eigenvalues --    2.86724   2.87888   2.94221   2.95550   3.01945
 Alpha virt. eigenvalues --    3.11641   3.13160   3.20921   3.23269   3.31800
 Alpha virt. eigenvalues --    3.36400   3.46549   3.53096   3.59040   3.76257
 Alpha virt. eigenvalues --    3.77057   3.78046   3.85288   3.88733   4.19731
 Alpha virt. eigenvalues --    4.23794   4.43673
          Condensed to atoms (all electrons):
               1          2          3          4          5          6
     1  C    7.639768  -2.042291  -0.082219   0.172532  -0.039229  -0.444176
     2  C   -2.042291   9.682353  -1.168817   0.312996   0.124456  -0.297427
     3  C   -0.082219  -1.168817  10.783744  -1.176206  -0.020281  -0.220977
     4  C    0.172532   0.312996  -1.176206   6.319175  -0.068010   0.401553
     5  H   -0.039229   0.124456  -0.020281  -0.068010   1.542099  -0.016592
     6  S   -0.444176  -0.297427  -0.220977   0.401553  -0.016592  16.274018
     7  H   -0.065136   0.058878   0.036306   0.280400  -0.063829  -0.143926
     8  C    0.449316  -0.788964  -1.996061   0.226908   0.020092  -0.031944
     9  S   -0.036032  -0.010020  -0.640236   0.032037  -0.002191   0.279041
    10  C    0.013029   0.016603  -0.207538   0.014446   0.000287   0.047324
    11  C   -0.051538  -0.038824   0.357132  -0.009099  -0.001859   0.018655
    12  C   -0.015153   0.403893  -0.252182  -0.088259  -0.002303  -0.337027
    13  H    0.003644  -0.013102   0.092476   0.004940   0.001064   0.010226
    14  S    0.000313   0.010174  -0.072125  -0.000634  -0.000008   0.001636
    15  C   -0.000542  -0.011339   0.030416   0.000628  -0.000013   0.004492
    16  C   -0.000151   0.012886  -0.340257  -0.002941  -0.000142   0.012626
    17  H   -0.000047   0.000068  -0.000119   0.000023  -0.000002   0.000155
    18  H   -0.000302   0.000287  -0.007852  -0.000083  -0.000028   0.001227
    19  O    0.089084  -0.678468   0.267595  -0.066216  -0.055568   0.005357
    20  H   -0.145647   0.017346  -0.002485  -0.010039  -0.008871   0.013392
               7          8          9         10         11         12
     1  C   -0.065136   0.449316  -0.036032   0.013029  -0.051538  -0.015153
     2  C    0.058878  -0.788964  -0.010020   0.016603  -0.038824   0.403893
     3  C    0.036306  -1.996061  -0.640236  -0.207538   0.357132  -0.252182
     4  C    0.280400   0.226908   0.032037   0.014446  -0.009099  -0.088259
     5  H   -0.063829   0.020092  -0.002191   0.000287  -0.001859  -0.002303
     6  S   -0.143926  -0.031944   0.279041   0.047324   0.018655  -0.337027
     7  H    1.213134  -0.003767   0.003864   0.001340   0.000272  -0.002000
     8  C   -0.003767  11.045883   0.323021  -0.273693  -0.389542  -2.826265
     9  S    0.003864   0.323021  16.390884   0.313876  -0.418728  -0.485441
    10  C    0.001340  -0.273693   0.313876   9.742489  -0.024100  -0.799525
    11  C    0.000272  -0.389542  -0.418728  -0.024100  10.672680  -2.891662
    12  C   -0.002000  -2.826265  -0.485441  -0.799525  -2.891662  14.348686
    13  H    0.000194   0.332788   0.028745  -0.075992   0.463343  -0.930349
    14  S   -0.000055  -0.243570   0.094784  -0.027365  -0.280281  -0.005994
    15  C    0.000042   0.049640  -0.091712  -0.174480  -0.746689  -0.088484
    16  C   -0.000072  -0.288666  -0.234473  -2.330915  -0.643644   0.078273
    17  H    0.000002   0.000340   0.006654   0.034898  -0.037374   0.034001
    18  H    0.000016   0.087251   0.016210   0.485159   0.043622  -0.064744
    19  O   -0.001944   0.048273   0.002019   0.002381   0.019239  -0.063163
    20  H    0.001371  -0.020926  -0.002053   0.000287   0.001854   0.016886
              13         14         15         16         17         18
     1  C    0.003644   0.000313  -0.000542  -0.000151  -0.000047  -0.000302
     2  C   -0.013102   0.010174  -0.011339   0.012886   0.000068   0.000287
     3  C    0.092476  -0.072125   0.030416  -0.340257  -0.000119  -0.007852
     4  C    0.004940  -0.000634   0.000628  -0.002941   0.000023  -0.000083
     5  H    0.001064  -0.000008  -0.000013  -0.000142  -0.000002  -0.000028
     6  S    0.010226   0.001636   0.004492   0.012626   0.000155   0.001227
     7  H    0.000194  -0.000055   0.000042  -0.000072   0.000002   0.000016
     8  C    0.332788  -0.243570   0.049640  -0.288666   0.000340   0.087251
     9  S    0.028745   0.094784  -0.091712  -0.234473   0.006654   0.016210
    10  C   -0.075992  -0.027365  -0.174480  -2.330915   0.034898   0.485159
    11  C    0.463343  -0.280281  -0.746689  -0.643644  -0.037374   0.043622
    12  C   -0.930349  -0.005994  -0.088484   0.078273   0.034001  -0.064744
    13  H    1.536374  -0.044239   0.013123  -0.033863   0.001609  -0.000825
    14  S   -0.044239  15.934565   0.190909  -0.026444  -0.151371  -0.002412
    15  C    0.013123   0.190909   6.505772   0.305055   0.283498  -0.137363
    16  C   -0.033863  -0.026444   0.305055   9.409391  -0.001339  -0.415731
    17  H    0.001609  -0.151371   0.283498  -0.001339   1.239677  -0.060693
    18  H   -0.000825  -0.002412  -0.137363  -0.415731  -0.060693   1.346898
    19  O    0.008913  -0.003377   0.000002  -0.000150  -0.000038   0.000112
    20  H   -0.001118   0.000172  -0.000094   0.000538   0.000005   0.000029
              19         20
     1  C    0.089084  -0.145647
     2  C   -0.678468   0.017346
     3  C    0.267595  -0.002485
     4  C   -0.066216  -0.010039
     5  H   -0.055568  -0.008871
     6  S    0.005357   0.013392
     7  H   -0.001944   0.001371
     8  C    0.048273  -0.020926
     9  S    0.002019  -0.002053
    10  C    0.002381   0.000287
    11  C    0.019239   0.001854
    12  C   -0.063163   0.016886
    13  H    0.008913  -0.001118
    14  S   -0.003377   0.000172
    15  C    0.000002  -0.000094
    16  C   -0.000150   0.000538
    17  H   -0.000038   0.000005
    18  H    0.000112   0.000029
    19  O    9.027307   0.362600
    20  H    0.362600   0.582922
 Mulliken charges:
               1
     1  C    0.554775
     2  C    0.409314
     3  C    0.619687
     4  C   -0.344148
     5  H   -0.409072
     6  S    0.422369
     7  H   -0.315093
     8  C    0.279888
     9  S    0.429752
    10  C   -0.758511
    11  C   -0.043455
    12  C   -0.029186
    13  H   -0.397950
    14  S    0.625322
    15  C   -0.132863
    16  C    0.500018
    17  H   -0.349947
    18  H   -0.290777
    19  O   -0.963957
    20  H    0.193833
 Sum of Mulliken charges =  -0.00000
 Mulliken charges with hydrogens summed into heavy atoms:
               1
     1  C    0.145703
     2  C    0.409314
     3  C    0.619687
     4  C   -0.659241
     6  S    0.422369
     8  C    0.279888
     9  S    0.429752
    10  C   -0.758511
    11  C   -0.043455
    12  C   -0.427136
    14  S    0.625322
    15  C   -0.482810
    16  C    0.209241
    19  O   -0.770124
 Electronic spatial extent (au):  <R**2>=           4324.7344
 Charge=             -0.0000 electrons
 Dipole moment (field-independent basis, Debye):
    X=              2.1867    Y=              1.0145    Z=              0.7413  Tot=              2.5220
 Quadrupole moment (field-independent basis, Debye-Ang):
   XX=            -78.2431   YY=            -98.1996   ZZ=           -107.1763
   XY=              9.2664   XZ=              1.0002   YZ=              0.3322
 Traceless Quadrupole moment (field-independent basis, Debye-Ang):
   XX=             16.2965   YY=             -3.6600   ZZ=            -12.6366
   XY=              9.2664   XZ=              1.0002   YZ=              0.3322
 Octapole moment (field-independent basis, Debye-Ang**2):
  XXX=             45.6885  YYY=             23.3804  ZZZ=              7.5936  XYY=             21.1556
  XXY=              5.3047  XXZ=             20.5141  XZZ=              8.7902  YZZ=              7.9980
  YYZ=             11.4388  XYZ=             25.4590
 Hexadecapole moment (field-independent basis, Debye-Ang**3):
 XXXX=          -4027.3916 YYYY=           -839.0946 ZZZZ=           -347.1830 XXXY=            104.2679
 XXXZ=             -8.1028 YYYX=             93.8457 YYYZ=             25.3988 ZZZX=             20.6869
 ZZZY=             16.6924 XXYY=           -867.8958 XXZZ=           -910.3757 YYZZ=           -182.4378
 XXYZ=             44.7450 YYXZ=             23.9628 ZZXY=             26.5803
 N-N= 1.120262687487D+03 E-N=-6.147098096959D+03  KE= 1.648685407965D+03
 Unable to Open any file for archive entry.
 1\1\GINC-CX3-12-27\FOpt\RMP2-FC\Aug-CC-pVDZ\C10H6O1S3\NS5018\27-Oct-20
 21\0\\# opt=modredundant mp2/aug-cc-pvdz\\pBTTT_-120.pdb\\0,1\C,3.9413
 190294,0.7817147393,0.2690308379\C,2.5456577784,1.0348447993,0.3910910
 521\C,1.7441043409,0.0207777823,-0.1463186682\C,4.2007728484,-0.440087
 6377,-0.3446947004\H,4.7266454205,1.4566348372,0.6203864302\S,2.743775
 7323,-1.2578482552,-0.7876325862\H,5.1695004705,-0.8869906662,-0.56855
 73989\C,0.29111728,-0.064251269,-0.1189451525\S,-0.5039355546,-1.43321
 48883,0.6657849599\C,-2.0757744839,-0.7506265033,0.3570204935\C,-1.958
 8604906,0.5021785216,-0.2971136611\C,-0.6193994147,0.8920150265,-0.570
 0207215\H,-0.3000418831,1.8101486896,-1.0664667381\S,-3.5319006725,1.1
 846899786,-0.6045402422\C,-4.3155850444,-0.1945151165,0.1327299087\C,-
 3.4225697382,-1.1510447324,0.5998746038\H,-5.4050494568,-0.2209674949,
 0.1842569549\H,-3.7361923353,-2.0753146514,1.0882955917\O,1.9707672442
 ,2.1475275314,0.9658677957\H,2.6736489298,2.677329309,1.3689512407\\Ve
 rsion=ES64L-G16RevC.01\State=1-A\HF=-1649.630027\MP2=-1651.6214282\RMS
 D=5.050e-09\RMSF=5.698e-04\Dipole=0.6793235,0.3270939,0.2539983\PG=C01
  [X(C10H6O1S3)]\\@
 The archive entry for this job was punched.


 A MUSTACHE HAIR ACROSS A CHIP IS LIKE A REDWOOD
 TREE FALLING THROUGH A HOUSING PROJECT.
 - AN IBM MANAGER IN EAST FISHKILL, NEW YORK
   AS QUOTED IN "FROM SANDS TO CIRCUITS", IBM INNOVATION JANUARY 1985.
 Job cpu time:       0 days 16 hours 44 minutes 21.4 seconds.
 Elapsed time:       0 days  2 hours 15 minutes 34.1 seconds.
 File lengths (MBytes):  RWF=    106 Int=      0 D2E=      0 Chk=     16 Scr=      1
 Normal termination of Gaussian 16 at Wed Oct 27 06:22:54 2021.
