 Entering Gaussian System, Link 0=g16
 Input=pBTTT_110.gjf
 Output=pBTTT_110.log
 Initial command:
 /apps/gaussian/g16-c01-avx/g16/l1.exe "/tmp/pbs.4766300[285].pbs/Gau-1189273.inp" -scrdir="/tmp/pbs.4766300[285].pbs/"
 Entering Link 1 = /apps/gaussian/g16-c01-avx/g16/l1.exe PID=   1189274.
  
 Copyright (c) 1988-2019, Gaussian, Inc.  All Rights Reserved.
  
 This is part of the Gaussian(R) 16 program.  It is based on
 the Gaussian(R) 09 system (copyright 2009, Gaussian, Inc.),
 the Gaussian(R) 03 system (copyright 2003, Gaussian, Inc.),
 the Gaussian(R) 98 system (copyright 1998, Gaussian, Inc.),
 the Gaussian(R) 94 system (copyright 1995, Gaussian, Inc.),
 the Gaussian 92(TM) system (copyright 1992, Gaussian, Inc.),
 the Gaussian 90(TM) system (copyright 1990, Gaussian, Inc.),
 the Gaussian 88(TM) system (copyright 1988, Gaussian, Inc.),
 the Gaussian 86(TM) system (copyright 1986, Carnegie Mellon
 University), and the Gaussian 82(TM) system (copyright 1983,
 Carnegie Mellon University). Gaussian is a federally registered
 trademark of Gaussian, Inc.
  
 This software contains proprietary and confidential information,
 including trade secrets, belonging to Gaussian, Inc.
  
 This software is provided under written license and may be
 used, copied, transmitted, or stored only in accord with that
 written license.
  
 The following legend is applicable only to US Government
 contracts under FAR:
  
                    RESTRICTED RIGHTS LEGEND
  
 Use, reproduction and disclosure by the US Government is
 subject to restrictions as set forth in subparagraphs (a)
 and (c) of the Commercial Computer Software - Restricted
 Rights clause in FAR 52.227-19.
  
 Gaussian, Inc.
 340 Quinnipiac St., Bldg. 40, Wallingford CT 06492
  
  
 ---------------------------------------------------------------
 Warning -- This program may not be used in any manner that
 competes with the business of Gaussian, Inc. or will provide
 assistance to any competitor of Gaussian, Inc.  The licensee
 of this program is prohibited from giving any competitor of
 Gaussian, Inc. access to this program.  By using this program,
 the user acknowledges that Gaussian, Inc. is engaged in the
 business of creating and licensing software in the field of
 computational chemistry and represents and warrants to the
 licensee that it is not a competitor of Gaussian, Inc. and that
 it will not use this program in any manner prohibited above.
 ---------------------------------------------------------------
  

 Cite this work as:
 Gaussian 16, Revision C.01,
 M. J. Frisch, G. W. Trucks, H. B. Schlegel, G. E. Scuseria, 
 M. A. Robb, J. R. Cheeseman, G. Scalmani, V. Barone, 
 G. A. Petersson, H. Nakatsuji, X. Li, M. Caricato, A. V. Marenich, 
 J. Bloino, B. G. Janesko, R. Gomperts, B. Mennucci, H. P. Hratchian, 
 J. V. Ortiz, A. F. Izmaylov, J. L. Sonnenberg, D. Williams-Young, 
 F. Ding, F. Lipparini, F. Egidi, J. Goings, B. Peng, A. Petrone, 
 T. Henderson, D. Ranasinghe, V. G. Zakrzewski, J. Gao, N. Rega, 
 G. Zheng, W. Liang, M. Hada, M. Ehara, K. Toyota, R. Fukuda, 
 J. Hasegawa, M. Ishida, T. Nakajima, Y. Honda, O. Kitao, H. Nakai, 
 T. Vreven, K. Throssell, J. A. Montgomery, Jr., J. E. Peralta, 
 F. Ogliaro, M. J. Bearpark, J. J. Heyd, E. N. Brothers, K. N. Kudin, 
 V. N. Staroverov, T. A. Keith, R. Kobayashi, J. Normand, 
 K. Raghavachari, A. P. Rendell, J. C. Burant, S. S. Iyengar, 
 J. Tomasi, M. Cossi, J. M. Millam, M. Klene, C. Adamo, R. Cammi, 
 J. W. Ochterski, R. L. Martin, K. Morokuma, O. Farkas, 
 J. B. Foresman, and D. J. Fox, Gaussian, Inc., Wallingford CT, 2019.
 
 ******************************************
 Gaussian 16:  ES64L-G16RevC.01  3-Jul-2019
                27-Oct-2021 
 ******************************************
 %mem=100GB
 %nprocshared=8
 Will use up to    8 processors via shared memory.
 ----------------------------------
 # opt=modredundant mp2/aug-cc-pvdz
 ----------------------------------
 1/18=120,19=15,38=1/1,3;
 2/9=110,12=2,17=6,18=5,40=1/2;
 3/5=16,7=10,11=9,25=1,30=1,71=1/1,2,3;
 4//1;
 5/5=2,38=5/2;
 8/6=4,10=1/1;
 9/15=2,16=-3/6;
 10/5=1/2;
 6/7=2,8=2,9=2,10=2/1;
 7/12=2/1,2,3,16;
 1/18=20,19=15/3(2);
 2/9=110/2;
 99//99;
 2/9=110/2;
 3/5=16,7=10,11=9,25=1,30=1,71=1/1,2,3;
 4/5=5,16=3,69=1/1;
 5/5=2,38=5/2;
 8/6=4,10=1/1;
 9/15=2,16=-3/6;
 10/5=1/2;
 7/12=2/1,2,3,16;
 1/18=20,19=15/3(-8);
 2/9=110/2;
 6/7=2,8=2,9=2,10=2/1;
 99/9=10/99;
 -------------
 pBTTT_110.pdb
 -------------
 Symbolic Z-matrix:
 Charge =  0 Multiplicity = 1
 C                    -3.946     0.732     0.264 
 C                    -2.543     0.965     0.478 
 C                    -1.744     0.035    -0.094 
 C                    -4.172    -0.383    -0.461 
 H                    -4.726     1.375     0.643 
 S                    -2.71     -1.172    -0.914 
 H                    -5.125    -0.783    -0.761 
 C                    -0.276    -0.04     -0.052 
 S                     0.529    -1.307     0.868 
 C                     2.084    -0.673     0.431 
 C                     1.959     0.437    -0.353 
 C                     0.603     0.803    -0.637 
 H                     0.3       1.643    -1.239 
 S                     3.516     1.073    -0.792 
 C                     4.306    -0.196     0.107 
 C                     3.443    -1.047     0.7 
 H                     5.382    -0.232     0.141 
 H                     3.747    -1.891     1.297 
 O                    -2.058     2.011     1.179 
 H                    -2.756     2.497     1.583 
 
 The following ModRedundant input section has been read:
 D       2       3       8       9 F                                           
 

 GradGradGradGradGradGradGradGradGradGradGradGradGradGradGradGradGradGrad
 Berny optimization.
 Initialization pass.
                           ----------------------------
                           !    Initial Parameters    !
                           ! (Angstroms and Degrees)  !
 --------------------------                            --------------------------
 ! Name  Definition              Value          Derivative Info.                !
 --------------------------------------------------------------------------------
 ! R1    R(1,2)                  1.4382         estimate D2E/DX2                !
 ! R2    R(1,4)                  1.349          estimate D2E/DX2                !
 ! R3    R(1,5)                  1.0796         estimate D2E/DX2                !
 ! R4    R(2,3)                  1.353          estimate D2E/DX2                !
 ! R5    R(2,19)                 1.3493         estimate D2E/DX2                !
 ! R6    R(3,6)                  1.75           estimate D2E/DX2                !
 ! R7    R(3,8)                  1.4705         estimate D2E/DX2                !
 ! R8    R(4,6)                  1.722          estimate D2E/DX2                !
 ! R9    R(4,7)                  1.0762         estimate D2E/DX2                !
 ! R10   R(8,9)                  1.7606         estimate D2E/DX2                !
 ! R11   R(8,12)                 1.3511         estimate D2E/DX2                !
 ! R12   R(9,10)                 1.7352         estimate D2E/DX2                !
 ! R13   R(10,11)                1.3647         estimate D2E/DX2                !
 ! R14   R(10,16)                1.435          estimate D2E/DX2                !
 ! R15   R(11,12)                1.433          estimate D2E/DX2                !
 ! R16   R(11,14)                1.7382         estimate D2E/DX2                !
 ! R17   R(12,13)                1.0769         estimate D2E/DX2                !
 ! R18   R(14,15)                1.7443         estimate D2E/DX2                !
 ! R19   R(15,16)                1.3493         estimate D2E/DX2                !
 ! R20   R(15,17)                1.0771         estimate D2E/DX2                !
 ! R21   R(16,18)                1.0776         estimate D2E/DX2                !
 ! R22   R(19,20)                0.9416         estimate D2E/DX2                !
 ! A1    A(2,1,4)              112.1657         estimate D2E/DX2                !
 ! A2    A(2,1,5)              123.7852         estimate D2E/DX2                !
 ! A3    A(4,1,5)              124.0489         estimate D2E/DX2                !
 ! A4    A(1,2,3)              113.6925         estimate D2E/DX2                !
 ! A5    A(1,2,19)             123.6084         estimate D2E/DX2                !
 ! A6    A(3,2,19)             122.6989         estimate D2E/DX2                !
 ! A7    A(2,3,6)              110.2561         estimate D2E/DX2                !
 ! A8    A(2,3,8)              127.7729         estimate D2E/DX2                !
 ! A9    A(6,3,8)              121.9562         estimate D2E/DX2                !
 ! A10   A(1,4,6)              112.2005         estimate D2E/DX2                !
 ! A11   A(1,4,7)              127.2542         estimate D2E/DX2                !
 ! A12   A(6,4,7)              120.5439         estimate D2E/DX2                !
 ! A13   A(3,6,4)               91.6831         estimate D2E/DX2                !
 ! A14   A(3,8,9)              120.5358         estimate D2E/DX2                !
 ! A15   A(3,8,12)             127.2484         estimate D2E/DX2                !
 ! A16   A(9,8,12)             112.1971         estimate D2E/DX2                !
 ! A17   A(8,9,10)              90.8713         estimate D2E/DX2                !
 ! A18   A(9,10,11)            111.0868         estimate D2E/DX2                !
 ! A19   A(9,10,16)            134.932          estimate D2E/DX2                !
 ! A20   A(11,10,16)           113.981          estimate D2E/DX2                !
 ! A21   A(10,11,12)           114.0972         estimate D2E/DX2                !
 ! A22   A(10,11,14)           111.1399         estimate D2E/DX2                !
 ! A23   A(12,11,14)           134.7589         estimate D2E/DX2                !
 ! A24   A(8,12,11)            111.7441         estimate D2E/DX2                !
 ! A25   A(8,12,13)            123.0686         estimate D2E/DX2                !
 ! A26   A(11,12,13)           125.1873         estimate D2E/DX2                !
 ! A27   A(11,14,15)            90.5345         estimate D2E/DX2                !
 ! A28   A(14,15,16)           113.3077         estimate D2E/DX2                !
 ! A29   A(14,15,17)           119.5381         estimate D2E/DX2                !
 ! A30   A(16,15,17)           127.1542         estimate D2E/DX2                !
 ! A31   A(10,16,15)           111.0366         estimate D2E/DX2                !
 ! A32   A(10,16,18)           125.1122         estimate D2E/DX2                !
 ! A33   A(15,16,18)           123.851          estimate D2E/DX2                !
 ! A34   A(2,19,20)            110.8892         estimate D2E/DX2                !
 ! D1    D(4,1,2,3)              0.4985         estimate D2E/DX2                !
 ! D2    D(4,1,2,19)          -179.6448         estimate D2E/DX2                !
 ! D3    D(5,1,2,3)           -179.6557         estimate D2E/DX2                !
 ! D4    D(5,1,2,19)             0.2011         estimate D2E/DX2                !
 ! D5    D(2,1,4,6)             -0.4456         estimate D2E/DX2                !
 ! D6    D(2,1,4,7)            179.9841         estimate D2E/DX2                !
 ! D7    D(5,1,4,6)            179.709          estimate D2E/DX2                !
 ! D8    D(5,1,4,7)              0.1387         estimate D2E/DX2                !
 ! D9    D(1,2,3,6)             -0.3122         estimate D2E/DX2                !
 ! D10   D(1,2,3,8)           -178.9177         estimate D2E/DX2                !
 ! D11   D(19,2,3,6)           179.8296         estimate D2E/DX2                !
 ! D12   D(19,2,3,8)             1.2241         estimate D2E/DX2                !
 ! D13   D(1,2,19,20)            6.5393         estimate D2E/DX2                !
 ! D14   D(3,2,19,20)         -173.6166         estimate D2E/DX2                !
 ! D15   D(2,3,6,4)              0.0527         estimate D2E/DX2                !
 ! D16   D(8,3,6,4)            178.7535         estimate D2E/DX2                !
 ! D17   D(2,3,8,9)            109.9733         Frozen                          !
 ! D18   D(2,3,8,12)           -68.3269         estimate D2E/DX2                !
 ! D19   D(6,3,8,9)            -68.4848         estimate D2E/DX2                !
 ! D20   D(6,3,8,12)           113.2151         estimate D2E/DX2                !
 ! D21   D(1,4,6,3)              0.2336         estimate D2E/DX2                !
 ! D22   D(7,4,6,3)            179.8365         estimate D2E/DX2                !
 ! D23   D(3,8,9,10)          -178.9196         estimate D2E/DX2                !
 ! D24   D(12,8,9,10)           -0.3809         estimate D2E/DX2                !
 ! D25   D(3,8,12,11)          178.5345         estimate D2E/DX2                !
 ! D26   D(3,8,12,13)           -1.3993         estimate D2E/DX2                !
 ! D27   D(9,8,12,11)            0.1157         estimate D2E/DX2                !
 ! D28   D(9,8,12,13)         -179.8181         estimate D2E/DX2                !
 ! D29   D(8,9,10,11)            0.5508         estimate D2E/DX2                !
 ! D30   D(8,9,10,16)         -179.2694         estimate D2E/DX2                !
 ! D31   D(9,10,11,12)          -0.5999         estimate D2E/DX2                !
 ! D32   D(9,10,11,14)        -179.9826         estimate D2E/DX2                !
 ! D33   D(16,10,11,12)        179.2607         estimate D2E/DX2                !
 ! D34   D(16,10,11,14)         -0.1219         estimate D2E/DX2                !
 ! D35   D(9,10,16,15)         179.9852         estimate D2E/DX2                !
 ! D36   D(9,10,16,18)          -0.1894         estimate D2E/DX2                !
 ! D37   D(11,10,16,15)          0.1688         estimate D2E/DX2                !
 ! D38   D(11,10,16,18)        179.9942         estimate D2E/DX2                !
 ! D39   D(10,11,12,8)           0.316          estimate D2E/DX2                !
 ! D40   D(10,11,12,13)       -179.7519         estimate D2E/DX2                !
 ! D41   D(14,11,12,8)         179.5052         estimate D2E/DX2                !
 ! D42   D(14,11,12,13)         -0.5628         estimate D2E/DX2                !
 ! D43   D(10,11,14,15)          0.0365         estimate D2E/DX2                !
 ! D44   D(12,11,14,15)       -179.1699         estimate D2E/DX2                !
 ! D45   D(11,14,15,16)          0.0616         estimate D2E/DX2                !
 ! D46   D(11,14,15,17)       -179.8871         estimate D2E/DX2                !
 ! D47   D(14,15,16,10)         -0.1378         estimate D2E/DX2                !
 ! D48   D(14,15,16,18)       -179.9658         estimate D2E/DX2                !
 ! D49   D(17,15,16,10)        179.8062         estimate D2E/DX2                !
 ! D50   D(17,15,16,18)         -0.0218         estimate D2E/DX2                !
 --------------------------------------------------------------------------------
 Trust Radius=3.00D-01 FncErr=1.00D-07 GrdErr=1.00D-07 EigMax=2.50D+02 EigMin=1.00D-04
 Number of steps in this run=    116 maximum allowed number of steps=    120.
 GradGradGradGradGradGradGradGradGradGradGradGradGradGradGradGradGradGrad

                          Input orientation:                          
 ---------------------------------------------------------------------
 Center     Atomic      Atomic             Coordinates (Angstroms)
 Number     Number       Type             X           Y           Z
 ---------------------------------------------------------------------
      1          6           0       -3.946000    0.732000    0.264000
      2          6           0       -2.543000    0.965000    0.478000
      3          6           0       -1.744000    0.035000   -0.094000
      4          6           0       -4.172000   -0.383000   -0.461000
      5          1           0       -4.726000    1.375000    0.643000
      6         16           0       -2.710000   -1.172000   -0.914000
      7          1           0       -5.125000   -0.783000   -0.761000
      8          6           0       -0.276000   -0.040000   -0.052000
      9         16           0        0.529000   -1.307000    0.868000
     10          6           0        2.084000   -0.673000    0.431000
     11          6           0        1.959000    0.437000   -0.353000
     12          6           0        0.603000    0.803000   -0.637000
     13          1           0        0.300000    1.643000   -1.239000
     14         16           0        3.516000    1.073000   -0.792000
     15          6           0        4.306000   -0.196000    0.107000
     16          6           0        3.443000   -1.047000    0.700000
     17          1           0        5.382000   -0.232000    0.141000
     18          1           0        3.747000   -1.891000    1.297000
     19          8           0       -2.058000    2.011000    1.179000
     20          1           0       -2.756000    2.497000    1.583000
 ---------------------------------------------------------------------
                    Distance matrix (angstroms):
                    1          2          3          4          5
     1  C    0.000000
     2  C    1.438226   0.000000
     3  C    2.337258   1.352954   0.000000
     4  C    1.349046   2.313540   2.490903   0.000000
     5  H    1.079579   2.227288   3.351282   2.148557   0.000000
     6  S    2.557459   2.555841   1.749973   1.721968   3.602182
     7  H    2.176210   3.355197   3.541917   1.076201   2.605260
     8  C    3.763607   2.535787   1.470515   3.932397   4.720990
     9  S    4.954590   3.840738   2.809437   4.971863   5.904132
    10  C    6.193772   4.908603   3.928164   6.325923   7.114446
    11  C    5.944471   4.608400   3.733751   6.186536   6.823568
    12  C    4.637914   3.341674   2.528454   4.923230   5.510338
    13  H    4.595372   3.389752   2.841588   4.970789   5.373493
    14  S    7.544061   6.191611   5.406685   7.831656   8.371439
    15  C    8.305500   6.956606   6.057744   8.499063   9.183265
    16  C    7.612638   6.318989   5.357810   7.731561   8.520675
    17  H    9.378486   8.021970   7.134871   9.574138  10.247249
    18  H    8.193257   6.956407   5.982929   8.250769   9.104186
    19  O    2.457155   1.349349   2.371434   3.590241   2.794641
    20  H    2.504214   1.900899   3.146096   3.804917   2.454258
                    6          7          8          9         10
     6  S    0.000000
     7  H    2.450909   0.000000
     8  C    2.819366   4.956564   0.000000
     9  S    3.699307   5.907278   1.760600   0.000000
    10  C    5.004045   7.307711   2.490698   1.735209   0.000000
    11  C    4.970228   7.199856   2.305072   2.564620   1.364691
    12  C    3.866953   5.944809   1.351116   2.592798   2.347884
    13  H    4.133999   5.961928   2.138512   3.632408   3.366810
    14  S    6.619515   8.838132   4.020651   4.164393   2.568048
    15  C    7.156764   9.489033   4.587411   4.009884   2.295602
    16  C    6.362392   8.695679   3.925623   2.930396   1.434963
    17  H    8.214444  10.560031   5.664546   5.023521   3.339968
    18  H    6.862822   9.174716   4.629312   3.298579   2.235855
    19  O    3.864873   4.580014   2.982865   4.218817   4.991946
    20  H    4.438320   4.675992   3.906404   5.076698   5.899288
                   11         12         13         14         15
    11  C    0.000000
    12  C    1.432951   0.000000
    13  H    2.234214   1.076946   0.000000
    14  S    1.738236   2.929589   3.296569   0.000000
    15  C    2.474004   3.906884   4.608869   1.744323   0.000000
    16  C    2.348046   3.643579   4.568837   2.593413   1.349303
    17  H    3.522574   4.951298   5.589879   2.460786   1.077139
    18  H    3.367347   4.569762   5.549978   3.633535   2.145135
    19  O    4.578295   3.440645   3.397398   5.986164   6.820596
    20  H    5.497538   4.368171   4.246426   6.856120   7.700823
                   16         17         18         19         20
    16  C    0.000000
    17  H    2.176333   0.000000
    18  H    1.077572   2.600354   0.000000
    19  O    6.312037   7.839776   6.995538   0.000000
    20  H    7.194944   8.703669   7.850181   0.941603   0.000000
 Stoichiometry    C10H6OS3
 Framework group  C1[X(C10H6OS3)]
 Deg. of freedom    54
 Full point group                 C1      NOp   1
 Largest Abelian subgroup         C1      NOp   1
 Largest concise Abelian subgroup C1      NOp   1
                         Standard orientation:                         
 ---------------------------------------------------------------------
 Center     Atomic      Atomic             Coordinates (Angstroms)
 Number     Number       Type             X           Y           Z
 ---------------------------------------------------------------------
      1          6           0       -3.946047    0.731845    0.264115
      2          6           0       -2.543056    0.964903    0.478115
      3          6           0       -1.744018    0.034936   -0.093885
      4          6           0       -4.172001   -0.383164   -0.460885
      5          1           0       -4.726073    1.374813    0.643115
      6         16           0       -2.709968   -1.172104   -0.913885
      7          1           0       -5.124984   -0.783203   -0.760885
      8          6           0       -0.276015   -0.040003   -0.051885
      9         16           0        0.529038   -1.306970    0.868115
     10          6           0        2.084011   -0.672906    0.431115
     11          6           0        1.958966    0.437089   -0.352885
     12          6           0        0.602950    0.803033   -0.636885
     13          1           0        0.299916    1.643021   -1.238885
     14         16           0        3.515939    1.073153   -0.791885
     15          6           0        4.305992   -0.195814    0.107115
     16          6           0        3.443027   -1.046850    0.700115
     17          1           0        5.381993   -0.231770    0.141115
     18          1           0        3.747062   -1.890837    1.297115
     19          8           0       -2.058099    2.010923    1.179115
     20          1           0       -2.756119    2.496894    1.583115
 ---------------------------------------------------------------------
 Rotational constants (GHZ):           1.3153475           0.2651919           0.2467116
 Standard basis: Aug-CC-pVDZ (5D, 7F)
 There are   416 symmetry adapted cartesian basis functions of A   symmetry.
 There are   388 symmetry adapted basis functions of A   symmetry.
   388 basis functions,   782 primitive gaussians,   416 cartesian basis functions
    61 alpha electrons       61 beta electrons
       nuclear repulsion energy      1126.8425592667 Hartrees.
 NAtoms=   20 NActive=   20 NUniq=   20 SFac= 1.00D+00 NAtFMM=   60 NAOKFM=F Big=F
 Integral buffers will be    131072 words long.
 Raffenetti 1 integral format.
 Two-electron integral symmetry is turned on.
 One-electron integrals computed using PRISM.
 NBasis=   388 RedAO= T EigKep=  3.55D-06  NBF=   388
 NBsUse=   388 1.00D-06 EigRej= -1.00D+00 NBFU=   388
 ExpMin= 2.97D-02 ExpMax= 1.11D+05 ExpMxC= 1.07D+03 IAcc=3 IRadAn=         5 AccDes= 0.00D+00
 Harris functional with IExCor=  205 and IRadAn=       5 diagonalized for initial guess.
 HarFok:  IExCor=  205 AccDes= 0.00D+00 IRadAn=         5 IDoV= 1 UseB2=F ITyADJ=14
 ICtDFT=  3500011 ScaDFX=  1.000000  1.000000  1.000000  1.000000
 FoFCou: FMM=F IPFlag=           0 FMFlag=      100000 FMFlg1=           0
         NFxFlg=           0 DoJE=T BraDBF=F KetDBF=T FulRan=T
         wScrn=  0.000000 ICntrl=       500 IOpCl=  0 I1Cent=   200000004 NGrid=           0
         NMat0=    1 NMatS0=      1 NMatT0=    0 NMatD0=    1 NMtDS0=    0 NMtDT0=    0
 Petite list used in FoFCou.
 Requested convergence on RMS density matrix=1.00D-08 within 128 cycles.
 Requested convergence on MAX density matrix=1.00D-06.
 Requested convergence on             energy=1.00D-06.
 No special actions if energy rises.
 SCF Done:  E(RHF) =  -1649.64169284     A.U. after   17 cycles
            NFock= 17  Conv=0.59D-08     -V/T= 2.0000
 ExpMin= 2.97D-02 ExpMax= 1.11D+05 ExpMxC= 1.07D+03 IAcc=3 IRadAn=         5 AccDes= 0.00D+00
 HarFok:  IExCor=  205 AccDes= 0.00D+00 IRadAn=         5 IDoV=-2 UseB2=F ITyADJ=14
 ICtDFT= 12500011 ScaDFX=  1.000000  1.000000  1.000000  1.000000
 GSVD:  LWork=        -884 too small for GESVD, short by        3770 words or        3770 for optimal perf.
 Range of M.O.s used for correlation:    27   388
 NBasis=   388 NAE=    61 NBE=    61 NFC=    26 NFV=     0
 NROrb=    362 NOA=    35 NOB=    35 NVA=   327 NVB=   327

 **** Warning!!: The largest alpha MO coefficient is  0.85717561D+02

 Fully direct method using O(ONN) memory.
 JobTyp=1 Pass  1:  I=  27 to  61 NPSUse=  8 ParTrn=T ParDer=T DoDerP=T.
 Spin components of T(2) and E(2):
     alpha-alpha T2 =       0.1135165243D+00 E2=     -0.2737810317D+00
     alpha-beta  T2 =       0.5539784961D+00 E2=     -0.1420584695D+01
     beta-beta   T2 =       0.1135165243D+00 E2=     -0.2737810317D+00
 ANorm=    0.1334545445D+01
 E2 =    -0.1968146758D+01 EUMP2 =    -0.16516098395993D+04
          IDoAtm=11111111111111111111
          Differentiating once with respect to electric field.
                with respect to dipole field.
          Differentiating once with respect to nuclear coordinates.
 Keep R1 ints in memory in canonical form, NReq=2883857471.
          There are     1 degrees of freedom in the 1st order CPHF.  IDoFFX=0 NUNeed=     1.
 LinEq1:  Iter=  0 NonCon=     1 RMS=2.87D-03 Max=5.85D-02 NDo=     1
 AX will form     1 AO Fock derivatives at one time.
 LinEq1:  Iter=  1 NonCon=     1 RMS=6.77D-04 Max=8.97D-03 NDo=     1
 LinEq1:  Iter=  2 NonCon=     1 RMS=3.47D-04 Max=9.35D-03 NDo=     1
 LinEq1:  Iter=  3 NonCon=     1 RMS=9.14D-05 Max=1.61D-03 NDo=     1
 LinEq1:  Iter=  4 NonCon=     1 RMS=3.72D-05 Max=6.55D-04 NDo=     1
 LinEq1:  Iter=  5 NonCon=     1 RMS=1.50D-05 Max=3.23D-04 NDo=     1
 LinEq1:  Iter=  6 NonCon=     1 RMS=6.45D-06 Max=1.90D-04 NDo=     1
 LinEq1:  Iter=  7 NonCon=     1 RMS=2.85D-06 Max=5.82D-05 NDo=     1
 LinEq1:  Iter=  8 NonCon=     1 RMS=1.08D-06 Max=2.32D-05 NDo=     1
 LinEq1:  Iter=  9 NonCon=     1 RMS=4.26D-07 Max=8.82D-06 NDo=     1
 LinEq1:  Iter= 10 NonCon=     1 RMS=1.62D-07 Max=2.90D-06 NDo=     1
 LinEq1:  Iter= 11 NonCon=     1 RMS=6.51D-08 Max=2.39D-06 NDo=     1
 LinEq1:  Iter= 12 NonCon=     1 RMS=2.39D-08 Max=4.72D-07 NDo=     1
 LinEq1:  Iter= 13 NonCon=     1 RMS=9.43D-09 Max=1.62D-07 NDo=     1
 LinEq1:  Iter= 14 NonCon=     1 RMS=3.05D-09 Max=4.23D-08 NDo=     1
 LinEq1:  Iter= 15 NonCon=     1 RMS=1.16D-09 Max=2.03D-08 NDo=     1
 LinEq1:  Iter= 16 NonCon=     1 RMS=4.26D-10 Max=7.65D-09 NDo=     1
 LinEq1:  Iter= 17 NonCon=     1 RMS=1.87D-10 Max=5.69D-09 NDo=     1
 LinEq1:  Iter= 18 NonCon=     1 RMS=7.48D-11 Max=1.85D-09 NDo=     1
 LinEq1:  Iter= 19 NonCon=     0 RMS=2.73D-11 Max=4.29D-10 NDo=     1
 Linear equations converged to 1.000D-10 1.000D-09 after    19 iterations.
 End of Minotr F.D. properties file   721 does not exist.
 End of Minotr F.D. properties file   722 does not exist.
 End of Minotr F.D. properties file   788 does not exist.

 **********************************************************************

            Population analysis using the SCF Density.

 **********************************************************************

 Orbital symmetries:
       Occupied  (A) (A) (A) (A) (A) (A) (A) (A) (A) (A) (A) (A)
                 (A) (A) (A) (A) (A) (A) (A) (A) (A) (A) (A) (A)
                 (A) (A) (A) (A) (A) (A) (A) (A) (A) (A) (A) (A)
                 (A) (A) (A) (A) (A) (A) (A) (A) (A) (A) (A) (A)
                 (A) (A) (A) (A) (A) (A) (A) (A) (A) (A) (A) (A)
                 (A)
       Virtual   (A) (A) (A) (A) (A) (A) (A) (A) (A) (A) (A) (A)
                 (A) (A) (A) (A) (A) (A) (A) (A) (A) (A) (A) (A)
                 (A) (A) (A) (A) (A) (A) (A) (A) (A) (A) (A) (A)
                 (A) (A) (A) (A) (A) (A) (A) (A) (A) (A) (A) (A)
                 (A) (A) (A) (A) (A) (A) (A) (A) (A) (A) (A) (A)
                 (A) (A) (A) (A) (A) (A) (A) (A) (A) (A) (A) (A)
                 (A) (A) (A) (A) (A) (A) (A) (A) (A) (A) (A) (A)
                 (A) (A) (A) (A) (A) (A) (A) (A) (A) (A) (A) (A)
                 (A) (A) (A) (A) (A) (A) (A) (A) (A) (A) (A) (A)
                 (A) (A) (A) (A) (A) (A) (A) (A) (A) (A) (A) (A)
                 (A) (A) (A) (A) (A) (A) (A) (A) (A) (A) (A) (A)
                 (A) (A) (A) (A) (A) (A) (A) (A) (A) (A) (A) (A)
                 (A) (A) (A) (A) (A) (A) (A) (A) (A) (A) (A) (A)
                 (A) (A) (A) (A) (A) (A) (A) (A) (A) (A) (A) (A)
                 (A) (A) (A) (A) (A) (A) (A) (A) (A) (A) (A) (A)
                 (A) (A) (A) (A) (A) (A) (A) (A) (A) (A) (A) (A)
                 (A) (A) (A) (A) (A) (A) (A) (A) (A) (A) (A) (A)
                 (A) (A) (A) (A) (A) (A) (A) (A) (A) (A) (A) (A)
                 (A) (A) (A) (A) (A) (A) (A) (A) (A) (A) (A) (A)
                 (A) (A) (A) (A) (A) (A) (A) (A) (A) (A) (A) (A)
                 (A) (A) (A) (A) (A) (A) (A) (A) (A) (A) (A) (A)
                 (A) (A) (A) (A) (A) (A) (A) (A) (A) (A) (A) (A)
                 (A) (A) (A) (A) (A) (A) (A) (A) (A) (A) (A) (A)
                 (A) (A) (A) (A) (A) (A) (A) (A) (A) (A) (A) (A)
                 (A) (A) (A) (A) (A) (A) (A) (A) (A) (A) (A) (A)
                 (A) (A) (A) (A) (A) (A) (A) (A) (A) (A) (A) (A)
                 (A) (A) (A) (A) (A) (A) (A) (A) (A) (A) (A) (A)
                 (A) (A) (A)
 The electronic state is 1-A.
 Alpha  occ. eigenvalues --  -91.98957 -91.98653 -91.98459 -20.60953 -11.31793
 Alpha  occ. eigenvalues --  -11.28389 -11.28374 -11.27423 -11.26918 -11.26863
 Alpha  occ. eigenvalues --  -11.26710 -11.25481 -11.25430 -11.25276  -8.99149
 Alpha  occ. eigenvalues --   -8.98834  -8.98624  -6.67316  -6.67223  -6.67025
 Alpha  occ. eigenvalues --   -6.67001  -6.66924  -6.66788  -6.66717  -6.66707
 Alpha  occ. eigenvalues --   -6.66499  -1.43000  -1.21268  -1.18397  -1.12574
 Alpha  occ. eigenvalues --   -1.02870  -1.01998  -0.98624  -0.95612  -0.94242
 Alpha  occ. eigenvalues --   -0.82572  -0.81146  -0.77020  -0.74989  -0.72255
 Alpha  occ. eigenvalues --   -0.69680  -0.66798  -0.66484  -0.62130  -0.61053
 Alpha  occ. eigenvalues --   -0.58301  -0.56336  -0.56024  -0.53837  -0.53143
 Alpha  occ. eigenvalues --   -0.52700  -0.50647  -0.49298  -0.48607  -0.46010
 Alpha  occ. eigenvalues --   -0.45821  -0.38411  -0.34989  -0.32986  -0.31713
 Alpha  occ. eigenvalues --   -0.29506
 Alpha virt. eigenvalues --    0.02761   0.03716   0.03963   0.04965   0.05093
 Alpha virt. eigenvalues --    0.06233   0.08075   0.08326   0.08634   0.09039
 Alpha virt. eigenvalues --    0.09944   0.10252   0.10444   0.10938   0.11355
 Alpha virt. eigenvalues --    0.12357   0.12511   0.12682   0.12954   0.13602
 Alpha virt. eigenvalues --    0.13749   0.14109   0.14425   0.14677   0.15009
 Alpha virt. eigenvalues --    0.15457   0.16024   0.16202   0.16462   0.16725
 Alpha virt. eigenvalues --    0.17581   0.18107   0.18287   0.18617   0.19500
 Alpha virt. eigenvalues --    0.19681   0.20203   0.20587   0.20929   0.21069
 Alpha virt. eigenvalues --    0.21873   0.22238   0.23075   0.23239   0.23473
 Alpha virt. eigenvalues --    0.23880   0.24402   0.24745   0.24916   0.25807
 Alpha virt. eigenvalues --    0.26623   0.27128   0.27834   0.27866   0.27997
 Alpha virt. eigenvalues --    0.28790   0.30031   0.30746   0.31263   0.31681
 Alpha virt. eigenvalues --    0.32085   0.32365   0.32691   0.33004   0.33173
 Alpha virt. eigenvalues --    0.33898   0.34809   0.35135   0.35384   0.35945
 Alpha virt. eigenvalues --    0.36505   0.37222   0.37385   0.38783   0.39225
 Alpha virt. eigenvalues --    0.40151   0.40621   0.40821   0.41418   0.42225
 Alpha virt. eigenvalues --    0.43422   0.43627   0.44670   0.45293   0.45583
 Alpha virt. eigenvalues --    0.45930   0.46458   0.46865   0.48258   0.48716
 Alpha virt. eigenvalues --    0.49218   0.49594   0.50052   0.51277   0.51910
 Alpha virt. eigenvalues --    0.53085   0.54176   0.54466   0.54851   0.55132
 Alpha virt. eigenvalues --    0.56152   0.57504   0.58619   0.59063   0.59640
 Alpha virt. eigenvalues --    0.60312   0.60929   0.61412   0.61943   0.62352
 Alpha virt. eigenvalues --    0.62675   0.63456   0.64613   0.64886   0.65995
 Alpha virt. eigenvalues --    0.66187   0.67162   0.67746   0.68460   0.68625
 Alpha virt. eigenvalues --    0.69002   0.69572   0.70255   0.70487   0.70858
 Alpha virt. eigenvalues --    0.72167   0.72267   0.72923   0.73510   0.74195
 Alpha virt. eigenvalues --    0.74274   0.75104   0.75586   0.76314   0.76547
 Alpha virt. eigenvalues --    0.77121   0.77887   0.78534   0.78918   0.79894
 Alpha virt. eigenvalues --    0.81275   0.81837   0.82999   0.83319   0.84085
 Alpha virt. eigenvalues --    0.85349   0.85489   0.86134   0.87470   0.88068
 Alpha virt. eigenvalues --    0.88456   0.89248   0.89699   0.90986   0.91577
 Alpha virt. eigenvalues --    0.92242   0.92532   0.93644   0.94225   0.95463
 Alpha virt. eigenvalues --    0.95856   0.96379   0.96822   0.97331   0.98286
 Alpha virt. eigenvalues --    0.99444   0.99722   1.00737   1.02918   1.03678
 Alpha virt. eigenvalues --    1.04488   1.04876   1.06027   1.06859   1.07935
 Alpha virt. eigenvalues --    1.09590   1.09597   1.10388   1.11348   1.12598
 Alpha virt. eigenvalues --    1.13496   1.14483   1.17599   1.18141   1.19046
 Alpha virt. eigenvalues --    1.20135   1.21306   1.22314   1.22608   1.23651
 Alpha virt. eigenvalues --    1.25078   1.25286   1.25337   1.25759   1.26779
 Alpha virt. eigenvalues --    1.28059   1.29146   1.30022   1.30856   1.32298
 Alpha virt. eigenvalues --    1.33135   1.34520   1.34761   1.36828   1.37066
 Alpha virt. eigenvalues --    1.37997   1.38764   1.41017   1.41884   1.42131
 Alpha virt. eigenvalues --    1.43140   1.44978   1.45676   1.47100   1.49202
 Alpha virt. eigenvalues --    1.50789   1.54406   1.54907   1.55897   1.56908
 Alpha virt. eigenvalues --    1.57062   1.58402   1.59404   1.60481   1.61554
 Alpha virt. eigenvalues --    1.62181   1.63399   1.65056   1.65828   1.66666
 Alpha virt. eigenvalues --    1.67053   1.69503   1.70374   1.71361   1.72404
 Alpha virt. eigenvalues --    1.73731   1.74480   1.75734   1.76317   1.77144
 Alpha virt. eigenvalues --    1.79769   1.80355   1.81528   1.82076   1.84549
 Alpha virt. eigenvalues --    1.86159   1.86248   1.87925   1.88595   1.90214
 Alpha virt. eigenvalues --    1.91952   1.92162   1.94175   1.95358   1.97245
 Alpha virt. eigenvalues --    1.98096   1.99407   2.02095   2.03441   2.04864
 Alpha virt. eigenvalues --    2.06151   2.07820   2.08660   2.08911   2.10000
 Alpha virt. eigenvalues --    2.10846   2.12569   2.13761   2.15004   2.16098
 Alpha virt. eigenvalues --    2.17526   2.18793   2.19973   2.20382   2.21820
 Alpha virt. eigenvalues --    2.23332   2.25714   2.28078   2.28865   2.30698
 Alpha virt. eigenvalues --    2.32587   2.33358   2.33656   2.35508   2.37953
 Alpha virt. eigenvalues --    2.40469   2.41491   2.42918   2.45309   2.45909
 Alpha virt. eigenvalues --    2.47672   2.49889   2.50523   2.51295   2.52980
 Alpha virt. eigenvalues --    2.56857   2.58417   2.60866   2.62878   2.66673
 Alpha virt. eigenvalues --    2.74451   2.81928   2.84464   2.86596   2.87812
 Alpha virt. eigenvalues --    2.92307   2.92982   2.98776   3.00135   3.03823
 Alpha virt. eigenvalues --    3.10791   3.17675   3.25005   3.26087   3.35461
 Alpha virt. eigenvalues --    3.43611   3.53321   3.58261   3.63410   3.76125
 Alpha virt. eigenvalues --    3.77988   3.80552   3.87398   3.87972   4.22922
 Alpha virt. eigenvalues --    4.24425   4.48655
          Condensed to atoms (all electrons):
               1          2          3          4          5          6
     1  C    7.582775  -1.847178  -0.088817   0.037899  -0.174378  -0.533779
     2  C   -1.847178   9.824683  -1.795031   0.498393   0.181771  -0.248195
     3  C   -0.088817  -1.795031  11.684816  -1.387789  -0.069519  -0.135196
     4  C    0.037899   0.498393  -1.387789   6.517304   0.003210   0.425462
     5  H   -0.174378   0.181771  -0.069519   0.003210   1.658975  -0.015138
     6  S   -0.533779  -0.248195  -0.135196   0.425462  -0.015138  16.350034
     7  H    0.011945   0.045988   0.059571   0.191543  -0.068836  -0.161865
     8  C    0.514728  -0.624446  -2.106840   0.208494   0.026709  -0.303543
     9  S   -0.025095   0.046311  -0.682649   0.038578  -0.003309   0.230243
    10  C    0.017602   0.056832  -0.439013   0.023005   0.001481   0.018741
    11  C   -0.044395  -0.113843   0.591186  -0.005707  -0.002956   0.061387
    12  C   -0.070236   0.376545  -0.262094  -0.109041  -0.003639  -0.127735
    13  H    0.005770  -0.019757   0.091208   0.005555   0.000671   0.014855
    14  S    0.000238   0.008757  -0.078277  -0.000917  -0.000014   0.003107
    15  C   -0.001187  -0.011758   0.035671   0.000801  -0.000059   0.005040
    16  C    0.002088   0.027443  -0.375869  -0.002363  -0.000023  -0.000336
    17  H   -0.000075   0.000145  -0.000205   0.000040  -0.000004   0.000180
    18  H   -0.000085   0.000049  -0.011389  -0.000056  -0.000012   0.001241
    19  O    0.102411  -0.704189   0.332632  -0.094766  -0.070724  -0.000538
    20  H   -0.143334   0.005397  -0.035884  -0.015839  -0.010919   0.017232
               7          8          9         10         11         12
     1  C    0.011945   0.514728  -0.025095   0.017602  -0.044395  -0.070236
     2  C    0.045988  -0.624446   0.046311   0.056832  -0.113843   0.376545
     3  C    0.059571  -2.106840  -0.682649  -0.439013   0.591186  -0.262094
     4  C    0.191543   0.208494   0.038578   0.023005  -0.005707  -0.109041
     5  H   -0.068836   0.026709  -0.003309   0.001481  -0.002956  -0.003639
     6  S   -0.161865  -0.303543   0.230243   0.018741   0.061387  -0.127735
     7  H    1.263099  -0.011468   0.002687   0.000324   0.001066   0.002854
     8  C   -0.011468  12.080459   0.310674   0.183593  -0.748710  -3.381474
     9  S    0.002687   0.310674  16.461801   0.304783  -0.467513  -0.481867
    10  C    0.000324   0.183593   0.304783  10.753486  -0.543902  -1.622583
    11  C    0.001066  -0.748710  -0.467513  -0.543902  11.858590  -2.810474
    12  C    0.002854  -3.381474  -0.481867  -1.622583  -2.810474  15.234297
    13  H    0.000355   0.222736   0.035165  -0.063150   0.622353  -1.073105
    14  S   -0.000075  -0.257278   0.094852  -0.106199  -0.298668   0.049836
    15  C    0.000069   0.075746  -0.094414  -0.104054  -0.947665  -0.173170
    16  C   -0.000069  -0.654077  -0.189718  -2.301768  -1.034347   0.434485
    17  H    0.000004   0.002163   0.007746   0.056596  -0.039830   0.034565
    18  H    0.000004   0.116288   0.011014   0.579753   0.052504  -0.073120
    19  O   -0.001214  -0.016604   0.006915  -0.003662   0.038756  -0.038495
    20  H    0.001265   0.010137  -0.001150   0.001249  -0.000813   0.004911
              13         14         15         16         17         18
     1  C    0.005770   0.000238  -0.001187   0.002088  -0.000075  -0.000085
     2  C   -0.019757   0.008757  -0.011758   0.027443   0.000145   0.000049
     3  C    0.091208  -0.078277   0.035671  -0.375869  -0.000205  -0.011389
     4  C    0.005555  -0.000917   0.000801  -0.002363   0.000040  -0.000056
     5  H    0.000671  -0.000014  -0.000059  -0.000023  -0.000004  -0.000012
     6  S    0.014855   0.003107   0.005040  -0.000336   0.000180   0.001241
     7  H    0.000355  -0.000075   0.000069  -0.000069   0.000004   0.000004
     8  C    0.222736  -0.257278   0.075746  -0.654077   0.002163   0.116288
     9  S    0.035165   0.094852  -0.094414  -0.189718   0.007746   0.011014
    10  C   -0.063150  -0.106199  -0.104054  -2.301768   0.056596   0.579753
    11  C    0.622353  -0.298668  -0.947665  -1.034347  -0.039830   0.052504
    12  C   -1.073105   0.049836  -0.173170   0.434485   0.034565  -0.073120
    13  H    1.636190  -0.042880   0.015637  -0.037578   0.001724  -0.001329
    14  S   -0.042880  15.987921   0.191041  -0.017868  -0.160141  -0.004784
    15  C    0.015637   0.191041   6.898421   0.127891   0.187348  -0.115956
    16  C   -0.037578  -0.017868   0.127891   9.958581   0.063832  -0.597225
    17  H    0.001724  -0.160141   0.187348   0.063832   1.291684  -0.068800
    18  H   -0.001329  -0.004784  -0.115956  -0.597225  -0.068800   1.436959
    19  O    0.010565  -0.003258  -0.000061  -0.001627  -0.000054   0.000141
    20  H   -0.000275   0.000425  -0.000029   0.000599   0.000010   0.000025
              19         20
     1  C    0.102411  -0.143334
     2  C   -0.704189   0.005397
     3  C    0.332632  -0.035884
     4  C   -0.094766  -0.015839
     5  H   -0.070724  -0.010919
     6  S   -0.000538   0.017232
     7  H   -0.001214   0.001265
     8  C   -0.016604   0.010137
     9  S    0.006915  -0.001150
    10  C   -0.003662   0.001249
    11  C    0.038756  -0.000813
    12  C   -0.038495   0.004911
    13  H    0.010565  -0.000275
    14  S   -0.003258   0.000425
    15  C   -0.000061  -0.000029
    16  C   -0.001627   0.000599
    17  H   -0.000054   0.000010
    18  H    0.000141   0.000025
    19  O    8.991523   0.378207
    20  H    0.378207   0.628980
 Mulliken charges:
               1
     1  C    0.653101
     2  C    0.292084
     3  C    0.673488
     4  C   -0.333807
     5  H   -0.453288
     6  S    0.398804
     7  H   -0.337248
     8  C    0.352714
     9  S    0.394947
    10  C   -0.813116
    11  C   -0.167020
    12  C    0.089540
    13  H   -0.424710
    14  S    0.634181
    15  C   -0.089311
    16  C    0.597949
    17  H   -0.376928
    18  H   -0.325223
    19  O   -0.925960
    20  H    0.159804
 Sum of Mulliken charges =  -0.00000
 Mulliken charges with hydrogens summed into heavy atoms:
               1
     1  C    0.199812
     2  C    0.292084
     3  C    0.673488
     4  C   -0.671055
     6  S    0.398804
     8  C    0.352714
     9  S    0.394947
    10  C   -0.813116
    11  C   -0.167020
    12  C   -0.335170
    14  S    0.634181
    15  C   -0.466240
    16  C    0.272726
    19  O   -0.766155
 Electronic spatial extent (au):  <R**2>=           4299.5527
 Charge=             -0.0000 electrons
 Dipole moment (field-independent basis, Debye):
    X=             -2.1386    Y=              1.0427    Z=              0.7428  Tot=              2.4925
 Quadrupole moment (field-independent basis, Debye-Ang):
   XX=            -77.4155   YY=           -100.1373   ZZ=           -105.3188
   XY=             -9.3370   XZ=             -0.7070   YZ=              0.2412
 Traceless Quadrupole moment (field-independent basis, Debye-Ang):
   XX=             16.8750   YY=             -5.8468   ZZ=            -11.0283
   XY=             -9.3370   XZ=             -0.7070   YZ=              0.2412
 Octapole moment (field-independent basis, Debye-Ang**2):
  XXX=            -46.2601  YYY=             20.5415  ZZZ=             10.0594  XYY=            -19.5118
  XXY=              6.4238  XXZ=             22.1441  XZZ=            -10.8848  YZZ=              7.9905
  YYZ=             10.6214  XYZ=            -26.3757
 Hexadecapole moment (field-independent basis, Debye-Ang**3):
 XXXX=          -3989.6239 YYYY=           -748.1998 ZZZZ=           -441.3650 XXXY=           -117.0584
 XXXZ=             15.8853 YYYX=            -81.2574 YYYZ=             25.2304 ZZZX=            -25.1569
 ZZZY=             18.6697 XXYY=           -866.5898 XXZZ=           -893.0513 YYZZ=           -173.8733
 XXYZ=             50.9187 YYXZ=            -24.0273 ZZXY=            -31.9579
 N-N= 1.126842559267D+03 E-N=-6.161142058627D+03  KE= 1.649564076569D+03
 Calling FoFJK, ICntrl=  10002127 FMM=F ISym2X=0 I1Cent= 0 IOpClX= 0 NMat=1 NMatS=1 NMatT=0.
 ***** Axes restored to original set *****
 -------------------------------------------------------------------
 Center     Atomic                   Forces (Hartrees/Bohr)
 Number     Number              X              Y              Z
 -------------------------------------------------------------------
      1        6           0.016351906    0.024049452    0.015910063
      2        6          -0.038720869    0.015977452    0.008205553
      3        6           0.028159413   -0.028119294   -0.014790968
      4        6          -0.003225918   -0.024127165   -0.015422084
      5        1          -0.007316278    0.006057191    0.003577002
      6       16           0.004883137   -0.005214903   -0.002888943
      7        1          -0.008611463   -0.005132471   -0.003681439
      8        6          -0.029819405   -0.020498433    0.014225973
      9       16          -0.004227310   -0.007096291    0.004292901
     10        6           0.007928607   -0.033720534    0.023615740
     11        6          -0.009084597    0.034280696   -0.023829315
     12        6           0.030573923    0.018455318   -0.012114352
     13        1          -0.003648085    0.008273507   -0.006079237
     14       16           0.002387716    0.006219718   -0.004324412
     15        6           0.014943405    0.019914609   -0.014004709
     16        6          -0.027393449   -0.017082674    0.011938913
     17        1           0.010185105    0.000625161   -0.000367304
     18        1           0.002949555   -0.007966923    0.005621754
     19        8           0.035352420    0.002943796   -0.000112945
     20        1          -0.021667814    0.012161789    0.010227807
 -------------------------------------------------------------------
 Cartesian Forces:  Max     0.038720869 RMS     0.016735624

 GradGradGradGradGradGradGradGradGradGradGradGradGradGradGradGradGradGrad
 Berny optimization.
 FormGI is forming the generalized inverse of G from B-inverse, IUseBI=4.
 Internal  Forces:  Max     0.042686224 RMS     0.009825525
 Search for a local minimum.
 Step number   1 out of a maximum of  116
 All quantities printed in internal units (Hartrees-Bohrs-Radians)
 Mixed Optimization -- RFO/linear search
 Second derivative matrix not updated -- first step.
 ITU=  0
     Eigenvalues ---    0.01461   0.01578   0.01628   0.01696   0.01751
     Eigenvalues ---    0.01755   0.01983   0.02009   0.02063   0.02134
     Eigenvalues ---    0.02213   0.02288   0.02327   0.02362   0.02376
     Eigenvalues ---    0.02439   0.16000   0.16000   0.16000   0.16000
     Eigenvalues ---    0.16000   0.16000   0.22525   0.22566   0.23648
     Eigenvalues ---    0.24761   0.24783   0.24991   0.24992   0.24997
     Eigenvalues ---    0.25000   0.29010   0.29880   0.30348   0.30953
     Eigenvalues ---    0.31288   0.32568   0.35679   0.36045   0.36289
     Eigenvalues ---    0.36342   0.36366   0.36457   0.38819   0.39180
     Eigenvalues ---    0.39432   0.45802   0.50684   0.52624   0.53696
     Eigenvalues ---    0.54271   0.55160   0.596261000.000001000.00000
     Eigenvalues --- 1000.000001000.000001000.000001000.000001000.00000
     Eigenvalues --- 1000.000001000.000001000.000001000.000001000.00000
     Eigenvalues --- 1000.000001000.000001000.000001000.000001000.00000
     Eigenvalues --- 1000.000001000.000001000.000001000.000001000.00000
     Eigenvalues --- 1000.000001000.000001000.000001000.000001000.00000
     Eigenvalues --- 1000.000001000.000001000.000001000.000001000.00000
     Eigenvalues --- 1000.000001000.000001000.000001000.000001000.00000
     Eigenvalues --- 1000.000001000.000001000.000001000.000001000.00000
     Eigenvalues --- 1000.000001000.000001000.000001000.000001000.00000
     Eigenvalues --- 1000.000001000.000001000.000001000.000001000.00000
     Eigenvalues --- 1000.00000
 RFO step:  Lambda=-1.92553760D-02 EMin= 1.46139207D-02
 Linear search not attempted -- first point.
 Iteration  1 RMS(Cart)=  0.02530452 RMS(Int)=  0.00013850
 Iteration  2 RMS(Cart)=  0.00026838 RMS(Int)=  0.00004295
 Iteration  3 RMS(Cart)=  0.00000004 RMS(Int)=  0.00004295
 Iteration  1 RMS(Cart)=  0.00000532 RMS(Int)=  0.00000216
 Iteration  2 RMS(Cart)=  0.00000291 RMS(Int)=  0.00000241
 Iteration  3 RMS(Cart)=  0.00000160 RMS(Int)=  0.00000273
 Iteration  4 RMS(Cart)=  0.00000088 RMS(Int)=  0.00000294
 Variable       Old X    -DE/DX   Delta X   Delta X   Delta X     New X
                                 (Linear)    (Quad)   (Total)
    R1        2.71785  -0.00263   0.00000  -0.00394  -0.00388   2.71398
    R2        2.54933   0.03893   0.00000   0.06888   0.06891   2.61824
    R3        2.04011   0.01015   0.00000   0.02673   0.02673   2.06684
    R4        2.55671   0.03982   0.00000   0.07129   0.07131   2.62802
    R5        2.54990   0.02188   0.00000   0.03833   0.03833   2.58823
    R6        3.30697   0.00264   0.00000   0.00581   0.00577   3.31273
    R7        2.77887  -0.00530   0.00000  -0.01408  -0.01408   2.76478
    R8        3.25405   0.00705   0.00000   0.01812   0.01809   3.27214
    R9        2.03373   0.01056   0.00000   0.02751   0.02751   2.06124
   R10        3.32705   0.00596   0.00000   0.01618   0.01613   3.34318
   R11        2.55324   0.03991   0.00000   0.07072   0.07074   2.62397
   R12        3.27907   0.00607   0.00000   0.01619   0.01616   3.29523
   R13        2.57889   0.04269   0.00000   0.08147   0.08154   2.66043
   R14        2.71169  -0.00193   0.00000  -0.00217  -0.00212   2.70957
   R15        2.70788  -0.00363   0.00000  -0.00613  -0.00607   2.70182
   R16        3.28479   0.00501   0.00000   0.01337   0.01334   3.29813
   R17        2.03513   0.01088   0.00000   0.02841   0.02841   2.06354
   R18        3.29629   0.00663   0.00000   0.01733   0.01728   3.31357
   R19        2.54981   0.03848   0.00000   0.06758   0.06759   2.61740
   R20        2.03550   0.01014   0.00000   0.02650   0.02650   2.06200
   R21        2.03632   0.01019   0.00000   0.02666   0.02666   2.06297
   R22        1.77937   0.02673   0.00000   0.04342   0.04342   1.82279
    A1        1.95766  -0.00195   0.00000  -0.00204  -0.00195   1.95571
    A2        2.16046   0.00095   0.00000   0.00088   0.00083   2.16129
    A3        2.16506   0.00100   0.00000   0.00116   0.00111   2.16617
    A4        1.98431  -0.00424   0.00000  -0.01079  -0.01072   1.97359
    A5        2.15737   0.00762   0.00000   0.02582   0.02578   2.18315
    A6        2.14150  -0.00338   0.00000  -0.01503  -0.01507   2.12643
    A7        1.92433   0.00286   0.00000   0.00961   0.00958   1.93391
    A8        2.23006  -0.00174   0.00000  -0.00601  -0.00600   2.22406
    A9        2.12854  -0.00112   0.00000  -0.00369  -0.00368   2.12486
   A10        1.95827   0.00045   0.00000   0.00168   0.00169   1.95995
   A11        2.22100   0.00140   0.00000   0.00822   0.00821   2.22922
   A12        2.10389  -0.00185   0.00000  -0.00990  -0.00990   2.09399
   A13        1.60017   0.00288   0.00000   0.00153   0.00137   1.60155
   A14        2.10375  -0.00310   0.00000  -0.01119  -0.01119   2.09255
   A15        2.22090  -0.00038   0.00000  -0.00110  -0.00111   2.21980
   A16        1.95821   0.00348   0.00000   0.01210   0.01207   1.97028
   A17        1.58600   0.00167   0.00000  -0.00189  -0.00204   1.58397
   A18        1.93883   0.00169   0.00000   0.00439   0.00436   1.94319
   A19        2.35501   0.00149   0.00000   0.00121   0.00115   2.35615
   A20        1.98934  -0.00317   0.00000  -0.00560  -0.00550   1.98384
   A21        1.99137  -0.00279   0.00000  -0.00419  -0.00408   1.98729
   A22        1.93976   0.00126   0.00000   0.00295   0.00291   1.94267
   A23        2.35199   0.00153   0.00000   0.00123   0.00116   2.35314
   A24        1.95030  -0.00405   0.00000  -0.01045  -0.01034   1.93996
   A25        2.14795   0.00140   0.00000   0.00174   0.00169   2.14964
   A26        2.18493   0.00265   0.00000   0.00871   0.00866   2.19359
   A27        1.58013   0.00271   0.00000   0.00171   0.00158   1.58171
   A28        1.97759   0.00223   0.00000   0.00774   0.00773   1.98532
   A29        2.08633  -0.00232   0.00000  -0.01060  -0.01059   2.07574
   A30        2.21926   0.00009   0.00000   0.00286   0.00287   2.22212
   A31        1.93795  -0.00302   0.00000  -0.00680  -0.00671   1.93124
   A32        2.18362   0.00159   0.00000   0.00385   0.00380   2.18742
   A33        2.16161   0.00143   0.00000   0.00295   0.00291   2.16451
   A34        1.93538  -0.00491   0.00000  -0.02738  -0.02738   1.90800
    D1        0.00870   0.00000   0.00000   0.00297   0.00295   0.01165
    D2       -3.13539  -0.00008   0.00000   0.00071   0.00067  -3.13472
    D3       -3.13558  -0.00001   0.00000   0.00134   0.00133  -3.13426
    D4        0.00351  -0.00010   0.00000  -0.00091  -0.00095   0.00256
    D5       -0.00778  -0.00012   0.00000  -0.00165  -0.00168  -0.00946
    D6        3.14131  -0.00001   0.00000  -0.00113  -0.00113   3.14018
    D7        3.13651  -0.00010   0.00000  -0.00002  -0.00005   3.13646
    D8        0.00242   0.00000   0.00000   0.00051   0.00049   0.00291
    D9       -0.00545   0.00001   0.00000  -0.00302  -0.00304  -0.00849
   D10       -3.12270  -0.00019   0.00000   0.00114   0.00116  -3.12155
   D11        3.13862   0.00008   0.00000  -0.00086  -0.00092   3.13770
   D12        0.02136  -0.00013   0.00000   0.00331   0.00328   0.02465
   D13        0.11413  -0.00012   0.00000  -0.00254  -0.00253   0.11160
   D14       -3.03018  -0.00021   0.00000  -0.00498  -0.00498  -3.03516
   D15        0.00092  -0.00009   0.00000   0.00174   0.00174   0.00266
   D16        3.11984   0.00009   0.00000  -0.00220  -0.00224   3.11760
   D17        1.91940   0.00091   0.00000   0.00000   0.00000   1.91940
   D18       -1.19253   0.00078   0.00000   0.00874   0.00870  -1.18383
   D19       -1.19528   0.00064   0.00000   0.00445   0.00446  -1.19083
   D20        1.97598   0.00051   0.00000   0.01319   0.01316   1.98913
   D21        0.00408   0.00008   0.00000  -0.00007  -0.00008   0.00400
   D22        3.13874   0.00000   0.00000  -0.00047  -0.00049   3.13824
   D23       -3.12274  -0.00000   0.00000   0.00625   0.00624  -3.11650
   D24       -0.00665   0.00007   0.00000  -0.00141  -0.00143  -0.00808
   D25        3.11601  -0.00013   0.00000  -0.00802  -0.00807   3.10795
   D26       -0.02442  -0.00007   0.00000  -0.00690  -0.00694  -0.03137
   D27        0.00202  -0.00016   0.00000   0.00043   0.00044   0.00246
   D28       -3.13842  -0.00010   0.00000   0.00155   0.00156  -3.13686
   D29        0.00961  -0.00002   0.00000   0.00190   0.00189   0.01151
   D30       -3.12884  -0.00005   0.00000   0.00026   0.00025  -3.12859
   D31       -0.01047  -0.00007   0.00000  -0.00209  -0.00209  -0.01256
   D32       -3.14129  -0.00003   0.00000  -0.00115  -0.00115   3.14074
   D33        3.12869  -0.00004   0.00000  -0.00082  -0.00081   3.12788
   D34       -0.00213   0.00000   0.00000   0.00013   0.00013  -0.00200
   D35        3.14133  -0.00000   0.00000   0.00086   0.00087  -3.14098
   D36       -0.00331   0.00002   0.00000   0.00136   0.00136  -0.00194
   D37        0.00295  -0.00004   0.00000  -0.00083  -0.00082   0.00213
   D38        3.14149  -0.00002   0.00000  -0.00033  -0.00032   3.14117
   D39        0.00552   0.00011   0.00000   0.00100   0.00098   0.00650
   D40       -3.13726   0.00005   0.00000  -0.00016  -0.00018  -3.13745
   D41        3.13296   0.00004   0.00000  -0.00024  -0.00025   3.13270
   D42       -0.00982  -0.00003   0.00000  -0.00140  -0.00142  -0.01124
   D43        0.00064  -0.00000   0.00000   0.00038   0.00039   0.00103
   D44       -3.12710   0.00010   0.00000   0.00164   0.00165  -3.12546
   D45        0.00107  -0.00002   0.00000  -0.00089  -0.00089   0.00018
   D46       -3.13962  -0.00002   0.00000  -0.00020  -0.00020  -3.13982
   D47       -0.00240   0.00002   0.00000   0.00108   0.00109  -0.00132
   D48       -3.14100  -0.00000   0.00000   0.00059   0.00060  -3.14040
   D49        3.13821   0.00001   0.00000   0.00032   0.00032   3.13853
   D50       -0.00038  -0.00001   0.00000  -0.00017  -0.00017  -0.00055
         Item               Value     Threshold  Converged?
 Maximum Force            0.042684     0.000450     NO 
 RMS     Force            0.009871     0.000300     NO 
 Maximum Displacement     0.087105     0.001800     NO 
 RMS     Displacement     0.025241     0.001200     NO 
 Predicted change in Energy=-9.991627D-03
 GradGradGradGradGradGradGradGradGradGradGradGradGradGradGradGradGradGrad

                          Input orientation:                          
 ---------------------------------------------------------------------
 Center     Atomic      Atomic             Coordinates (Angstroms)
 Number     Number       Type             X           Y           Z
 ---------------------------------------------------------------------
      1          6           0       -3.957620    0.741184    0.277086
      2          6           0       -2.557862    0.982423    0.489406
      3          6           0       -1.743376    0.023845   -0.103682
      4          6           0       -4.180949   -0.408340   -0.463433
      5          1           0       -4.751995    1.388242    0.659858
      6         16           0       -2.706277   -1.193403   -0.918678
      7          1           0       -5.139483   -0.829094   -0.769922
      8          6           0       -0.282601   -0.048543   -0.065667
      9         16           0        0.512995   -1.327635    0.862121
     10          6           0        2.080473   -0.693371    0.436194
     11          6           0        1.966503    0.456127   -0.368591
     12          6           0        0.616763    0.825435   -0.661798
     13          1           0        0.307429    1.678405   -1.269394
     14         16           0        3.535751    1.091071   -0.793286
     15          6           0        4.320183   -0.190871    0.110008
     16          6           0        3.435975   -1.070192    0.712827
     17          1           0        5.410358   -0.220751    0.145555
     18          1           0        3.742507   -1.927272    1.315498
     19          8           0       -2.038449    2.037520    1.191458
     20          1           0       -2.757325    2.532221    1.602439
 ---------------------------------------------------------------------
                    Distance matrix (angstroms):
                    1          2          3          4          5
     1  C    0.000000
     2  C    1.436174   0.000000
     3  C    2.358482   1.390687   0.000000
     4  C    1.385514   2.340200   2.501593   0.000000
     5  H    1.093723   2.237848   3.390628   2.194444   0.000000
     6  S    2.595831   2.595948   1.753024   1.731540   3.652620
     7  H    2.226836   3.395919   3.564397   1.090759   2.666645
     8  C    3.774508   2.558869   1.463061   3.935072   4.750391
     9  S    4.960713   3.860757   2.801871   4.963397   5.927648
    10  C    6.208206   4.932066   3.927809   6.332139   7.146031
    11  C    5.966020   4.634979   3.744362   6.208661   6.860376
    12  C    4.670501   3.380556   2.554270   4.957781   5.557615
    13  H    4.632561   3.433316   2.881363   5.014940   5.422544
    14  S    7.577514   6.228100   5.429890   7.867941   8.419422
    15  C    8.331786   6.987709   6.071122   8.523226   9.224985
    16  C    7.624710   6.339498   5.356238   7.735579   8.549243
    17  H    9.418154   8.065878   7.162252   9.612452  10.301786
    18  H    8.215285   6.988806   5.992983   8.261532   9.142158
    19  O    2.489936   1.369634   2.412331   3.648452   2.840333
    20  H    2.530827   1.918464   3.198576   3.865415   2.485127
                    6          7          8          9         10
     6  S    0.000000
     7  H    2.464821   0.000000
     8  C    2.812924   4.969360   0.000000
     9  S    3.681437   5.904457   1.769136   0.000000
    10  C    4.999869   7.321264   2.500357   1.743758   0.000000
    11  C    4.985822   7.232420   2.324850   2.609434   1.407840
    12  C    3.896703   5.990286   1.388548   2.639850   2.377984
    13  H    4.177644   6.017132   2.186194   3.690785   3.417315
    14  S    6.648117   8.885227   4.050674   4.210411   2.610304
    15  C    7.171779   9.521917   4.608334   4.043834   2.318449
    16  C    6.356434   8.706041   3.934162   2.938091   1.433843
    17  H    8.243689  10.606947   5.699478   5.071768   3.375793
    18  H    6.864177   9.189381   4.651746   3.315850   2.249009
    19  O    3.916316   4.656275   3.002502   4.235870   4.999371
    20  H    4.498768   4.754073   3.945526   5.112881   5.930334
                   11         12         13         14         15
    11  C    0.000000
    12  C    1.429741   0.000000
    13  H    2.248986   1.091979   0.000000
    14  S    1.745296   2.933998   3.315675   0.000000
    15  C    2.487463   3.917127   4.636717   1.753468   0.000000
    16  C    2.378752   3.664827   4.612135   2.636169   1.385070
    17  H    3.547202   4.972412   5.625723   2.473146   1.091163
    18  H    3.416275   4.610572   5.610912   3.687833   2.191348
    19  O    4.579760   3.457435   3.418757   5.992218   6.824036
    20  H    5.523556   4.407307   4.285924   6.886161   7.728758
                   16         17         18         19         20
    16  C    0.000000
    17  H    2.222956   0.000000
    18  H    1.091678   2.657575   0.000000
    19  O    6.313183   7.853561   7.011021   0.000000
    20  H    7.219817   8.741419   7.887790   0.964581   0.000000
 Stoichiometry    C10H6OS3
 Framework group  C1[X(C10H6OS3)]
 Deg. of freedom    54
 Full point group                 C1      NOp   1
 Largest Abelian subgroup         C1      NOp   1
 Largest concise Abelian subgroup C1      NOp   1
                         Standard orientation:                         
 ---------------------------------------------------------------------
 Center     Atomic      Atomic             Coordinates (Angstroms)
 Number     Number       Type             X           Y           Z
 ---------------------------------------------------------------------
      1          6           0       -3.957164    0.754868    0.273574
      2          6           0       -2.556933    0.992656    0.486664
      3          6           0       -1.744583    0.030552   -0.103636
      4          6           0       -4.183023   -0.395602   -0.464704
      5          1           0       -4.750079    1.404952    0.654240
      6         16           0       -2.710132   -1.185741   -0.916924
      7          1           0       -5.142447   -0.814335   -0.771176
      8          6           0       -0.284051   -0.045826   -0.064126
      9         16           0        0.507128   -1.325153    0.867110
     10          6           0        2.076757   -0.696169    0.441273
     11          6           0        1.966728    0.451926   -0.366058
     12          6           0        0.618290    0.824370   -0.661289
     13          1           0        0.311891    1.676903   -1.270981
     14         16           0        3.538127    1.081587   -0.790663
     15          6           0        4.318156   -0.200609    0.116075
     16          6           0        3.430950   -1.076177    0.719951
     17          1           0        5.408211   -0.233452    0.152686
     18          1           0        3.734540   -1.932823    1.324725
     19          8           0       -2.035219    2.047794    1.186948
     20          1           0       -2.753086    2.545371    1.596216
 ---------------------------------------------------------------------
 Rotational constants (GHZ):           1.2791168           0.2639765           0.2447908
 Standard basis: Aug-CC-pVDZ (5D, 7F)
 There are   416 symmetry adapted cartesian basis functions of A   symmetry.
 There are   388 symmetry adapted basis functions of A   symmetry.
   388 basis functions,   782 primitive gaussians,   416 cartesian basis functions
    61 alpha electrons       61 beta electrons
       nuclear repulsion energy      1118.2395025473 Hartrees.
 NAtoms=   20 NActive=   20 NUniq=   20 SFac= 1.00D+00 NAtFMM=   60 NAOKFM=F Big=F
 Integral buffers will be    131072 words long.
 Raffenetti 1 integral format.
 Two-electron integral symmetry is turned on.
 One-electron integrals computed using PRISM.
 NBasis=   388 RedAO= T EigKep=  4.01D-06  NBF=   388
 NBsUse=   388 1.00D-06 EigRej= -1.00D+00 NBFU=   388
 Initial guess from the checkpoint file:  "/tmp/pbs.4766300[285].pbs/Gau-1189274.chk"
 B after Tr=    -0.000000   -0.000000    0.000000
         Rot=    0.999999    0.000292    0.000558    0.001224 Ang=   0.16 deg.
 ExpMin= 2.97D-02 ExpMax= 1.11D+05 ExpMxC= 1.07D+03 IAcc=3 IRadAn=         5 AccDes= 0.00D+00
 Harris functional with IExCor=  205 and IRadAn=       5 diagonalized for initial guess.
 HarFok:  IExCor=  205 AccDes= 0.00D+00 IRadAn=         5 IDoV= 1 UseB2=F ITyADJ=14
 ICtDFT=  3500011 ScaDFX=  1.000000  1.000000  1.000000  1.000000
 FoFCou: FMM=F IPFlag=           0 FMFlag=      100000 FMFlg1=           0
         NFxFlg=           0 DoJE=T BraDBF=F KetDBF=T FulRan=T
         wScrn=  0.000000 ICntrl=       500 IOpCl=  0 I1Cent=   200000004 NGrid=           0
         NMat0=    1 NMatS0=      1 NMatT0=    0 NMatD0=    1 NMtDS0=    0 NMtDT0=    0
 Petite list used in FoFCou.
 Requested convergence on RMS density matrix=1.00D-08 within 128 cycles.
 Requested convergence on MAX density matrix=1.00D-06.
 Requested convergence on             energy=1.00D-06.
 No special actions if energy rises.
 SCF Done:  E(RHF) =  -1649.63243048     A.U. after   14 cycles
            NFock= 14  Conv=0.95D-08     -V/T= 2.0006
 ExpMin= 2.97D-02 ExpMax= 1.11D+05 ExpMxC= 1.07D+03 IAcc=3 IRadAn=         5 AccDes= 0.00D+00
 HarFok:  IExCor=  205 AccDes= 0.00D+00 IRadAn=         5 IDoV=-2 UseB2=F ITyADJ=14
 ICtDFT= 12500011 ScaDFX=  1.000000  1.000000  1.000000  1.000000
 GSVD:  LWork=        -884 too small for GESVD, short by        3770 words or        3770 for optimal perf.
 Range of M.O.s used for correlation:    27   388
 NBasis=   388 NAE=    61 NBE=    61 NFC=    26 NFV=     0
 NROrb=    362 NOA=    35 NOB=    35 NVA=   327 NVB=   327

 **** Warning!!: The largest alpha MO coefficient is  0.83746325D+02

 Fully direct method using O(ONN) memory.
 JobTyp=1 Pass  1:  I=  27 to  61 NPSUse=  8 ParTrn=T ParDer=T DoDerP=T.
 Spin components of T(2) and E(2):
     alpha-alpha T2 =       0.1168516318D+00 E2=     -0.2765978613D+00
     alpha-beta  T2 =       0.5696296427D+00 E2=     -0.1434392111D+01
     beta-beta   T2 =       0.1168516318D+00 E2=     -0.2765978613D+00
 ANorm=    0.1342882313D+01
 E2 =    -0.1987587834D+01 EUMP2 =    -0.16516200183156D+04
          IDoAtm=11111111111111111111
          Differentiating once with respect to electric field.
                with respect to dipole field.
          Differentiating once with respect to nuclear coordinates.
 Keep R1 ints in memory in canonical form, NReq=2883857471.
          There are     1 degrees of freedom in the 1st order CPHF.  IDoFFX=0 NUNeed=     1.
 LinEq1:  Iter=  0 NonCon=     1 RMS=2.90D-03 Max=7.84D-02 NDo=     1
 AX will form     1 AO Fock derivatives at one time.
 LinEq1:  Iter=  1 NonCon=     1 RMS=7.12D-04 Max=8.54D-03 NDo=     1
 LinEq1:  Iter=  2 NonCon=     1 RMS=3.69D-04 Max=1.35D-02 NDo=     1
 LinEq1:  Iter=  3 NonCon=     1 RMS=1.02D-04 Max=1.97D-03 NDo=     1
 LinEq1:  Iter=  4 NonCon=     1 RMS=4.34D-05 Max=1.10D-03 NDo=     1
 LinEq1:  Iter=  5 NonCon=     1 RMS=1.80D-05 Max=5.35D-04 NDo=     1
 LinEq1:  Iter=  6 NonCon=     1 RMS=8.14D-06 Max=3.63D-04 NDo=     1
 LinEq1:  Iter=  7 NonCon=     1 RMS=3.70D-06 Max=1.12D-04 NDo=     1
 LinEq1:  Iter=  8 NonCon=     1 RMS=1.40D-06 Max=4.10D-05 NDo=     1
 LinEq1:  Iter=  9 NonCon=     1 RMS=5.75D-07 Max=1.58D-05 NDo=     1
 LinEq1:  Iter= 10 NonCon=     1 RMS=2.17D-07 Max=3.90D-06 NDo=     1
 LinEq1:  Iter= 11 NonCon=     1 RMS=9.09D-08 Max=4.23D-06 NDo=     1
 LinEq1:  Iter= 12 NonCon=     1 RMS=3.45D-08 Max=6.92D-07 NDo=     1
 LinEq1:  Iter= 13 NonCon=     1 RMS=1.34D-08 Max=2.83D-07 NDo=     1
 LinEq1:  Iter= 14 NonCon=     1 RMS=4.46D-09 Max=8.57D-08 NDo=     1
 LinEq1:  Iter= 15 NonCon=     1 RMS=1.77D-09 Max=6.08D-08 NDo=     1
 LinEq1:  Iter= 16 NonCon=     1 RMS=6.97D-10 Max=2.24D-08 NDo=     1
 LinEq1:  Iter= 17 NonCon=     1 RMS=3.23D-10 Max=1.29D-08 NDo=     1
 LinEq1:  Iter= 18 NonCon=     1 RMS=1.26D-10 Max=3.53D-09 NDo=     1
 LinEq1:  Iter= 19 NonCon=     0 RMS=4.43D-11 Max=7.75D-10 NDo=     1
 Linear equations converged to 1.000D-10 1.000D-09 after    19 iterations.
 End of Minotr F.D. properties file   721 does not exist.
 End of Minotr F.D. properties file   722 does not exist.
 End of Minotr F.D. properties file   788 does not exist.
 Calling FoFJK, ICntrl=  10002127 FMM=F ISym2X=0 I1Cent= 0 IOpClX= 0 NMat=1 NMatS=1 NMatT=0.
 ***** Axes restored to original set *****
 -------------------------------------------------------------------
 Center     Atomic                   Forces (Hartrees/Bohr)
 Number     Number              X              Y              Z
 -------------------------------------------------------------------
      1        6           0.007896411    0.003568135    0.002549936
      2        6          -0.015376641   -0.000412364   -0.002131057
      3        6           0.006670042   -0.005938131   -0.001969465
      4        6          -0.002231973   -0.003752055   -0.002305905
      5        1          -0.000625648   -0.000749771   -0.000458844
      6       16          -0.000061805    0.004598905    0.003133127
      7        1           0.000225892    0.000022332    0.000035998
      8        6          -0.006574180   -0.001758878    0.001813322
      9       16           0.001175784    0.002895638   -0.002849548
     10        6           0.005968942   -0.007187654    0.005032847
     11        6          -0.005714224    0.007116717   -0.004783763
     12        6           0.008578823    0.001300661   -0.000018430
     13        1          -0.001252825   -0.000634147    0.000328707
     14       16          -0.001100277   -0.003361703    0.002284968
     15        6           0.003345272    0.002058278   -0.001401850
     16        6          -0.006887535   -0.000117560   -0.000079189
     17        1           0.000026890    0.000122603   -0.000043735
     18        1           0.000847718    0.000433918   -0.000315326
     19        8           0.008237284    0.001370987    0.000763944
     20        1          -0.003147950    0.000424089    0.000414263
 -------------------------------------------------------------------
 Cartesian Forces:  Max     0.015376641 RMS     0.004063618

 GradGradGradGradGradGradGradGradGradGradGradGradGradGradGradGradGradGrad
 Berny optimization.
 Using GEDIIS/GDIIS optimizer.
 FormGI is forming the generalized inverse of G from B-inverse, IUseBI=4.
 Internal  Forces:  Max     0.005264497 RMS     0.001625173
 Search for a local minimum.
 Step number   2 out of a maximum of  116
 All quantities printed in internal units (Hartrees-Bohrs-Radians)
 Mixed Optimization -- RFO/linear search
 Update second derivatives using D2CorX and points    1    2
 DE= -1.02D-02 DEPred=-9.99D-03 R= 1.02D+00
 TightC=F SS=  1.41D+00  RLast= 1.95D-01 DXNew= 5.0454D-01 5.8558D-01
 Trust test= 1.02D+00 RLast= 1.95D-01 DXMaxT set to 5.05D-01
 ITU=  1  0
 Use linear search instead of GDIIS.
     Eigenvalues ---    0.01464   0.01577   0.01626   0.01701   0.01749
     Eigenvalues ---    0.01753   0.01983   0.02008   0.02068   0.02142
     Eigenvalues ---    0.02218   0.02287   0.02326   0.02362   0.02379
     Eigenvalues ---    0.02441   0.15777   0.16000   0.16000   0.16000
     Eigenvalues ---    0.16000   0.16034   0.22508   0.22595   0.23693
     Eigenvalues ---    0.24315   0.24770   0.24907   0.24985   0.24990
     Eigenvalues ---    0.25185   0.29058   0.29843   0.30366   0.31004
     Eigenvalues ---    0.31409   0.32645   0.35570   0.36082   0.36307
     Eigenvalues ---    0.36349   0.36422   0.36732   0.38704   0.39235
     Eigenvalues ---    0.39445   0.45274   0.50473   0.52220   0.53228
     Eigenvalues ---    0.54095   0.55288   0.594801000.000001000.00000
     Eigenvalues --- 1000.000001000.000001000.000001000.000001000.00000
     Eigenvalues --- 1000.000001000.000001000.000001000.000001000.00000
     Eigenvalues --- 1000.000001000.000001000.000001000.000001000.00000
     Eigenvalues --- 1000.000001000.000001000.000001000.000001000.00000
     Eigenvalues --- 1000.000001000.000001000.000001000.000001000.00000
     Eigenvalues --- 1000.000001000.000001000.000001000.000001000.00000
     Eigenvalues --- 1000.000001000.000001000.000001000.000001000.00000
     Eigenvalues --- 1000.000001000.000001000.000001000.000001000.00000
     Eigenvalues --- 1000.000001000.000001000.000001000.000001000.00000
     Eigenvalues --- 1000.000001000.000001000.000001000.000001000.00000
     Eigenvalues --- 1000.00000
 RFO step:  Lambda=-9.04701558D-04 EMin= 1.46384459D-02
 Quartic linear search produced a step of  0.10663.
 Iteration  1 RMS(Cart)=  0.01798413 RMS(Int)=  0.00015037
 Iteration  2 RMS(Cart)=  0.00019983 RMS(Int)=  0.00002063
 Iteration  3 RMS(Cart)=  0.00000002 RMS(Int)=  0.00002063
 Iteration  1 RMS(Cart)=  0.00001098 RMS(Int)=  0.00000445
 Iteration  2 RMS(Cart)=  0.00000600 RMS(Int)=  0.00000497
 Iteration  3 RMS(Cart)=  0.00000328 RMS(Int)=  0.00000562
 Iteration  4 RMS(Cart)=  0.00000179 RMS(Int)=  0.00000604
 Iteration  5 RMS(Cart)=  0.00000098 RMS(Int)=  0.00000629
 Variable       Old X    -DE/DX   Delta X   Delta X   Delta X     New X
                                 (Linear)    (Quad)   (Total)
    R1        2.71398  -0.00525  -0.00041  -0.01432  -0.01474   2.69923
    R2        2.61824   0.00286   0.00735   0.00188   0.00922   2.62746
    R3        2.06684  -0.00015   0.00285  -0.00187   0.00098   2.06782
    R4        2.62802   0.00431   0.00760   0.00480   0.01241   2.64042
    R5        2.58823   0.00392   0.00409   0.00571   0.00979   2.59803
    R6        3.31273  -0.00316   0.00061  -0.01174  -0.01112   3.30162
    R7        2.76478  -0.00163  -0.00150  -0.00429  -0.00579   2.75899
    R8        3.27214  -0.00104   0.00193  -0.00440  -0.00247   3.26967
    R9        2.06124  -0.00022   0.00293  -0.00211   0.00082   2.06206
   R10        3.34318  -0.00107   0.00172  -0.00515  -0.00342   3.33976
   R11        2.62397   0.00382   0.00754   0.00367   0.01122   2.63519
   R12        3.29523  -0.00125   0.00172  -0.00511  -0.00339   3.29183
   R13        2.66043   0.00526   0.00869   0.00707   0.01576   2.67619
   R14        2.70957  -0.00350  -0.00023  -0.00936  -0.00959   2.69998
   R15        2.70182  -0.00348  -0.00065  -0.00898  -0.00963   2.69218
   R16        3.29813  -0.00152   0.00142  -0.00584  -0.00441   3.29372
   R17        2.06354  -0.00032   0.00303  -0.00248   0.00055   2.06409
   R18        3.31357  -0.00129   0.00184  -0.00581  -0.00397   3.30961
   R19        2.61740   0.00249   0.00721   0.00106   0.00827   2.62567
   R20        2.06200   0.00002   0.00283  -0.00133   0.00149   2.06349
   R21        2.06297  -0.00028   0.00284  -0.00225   0.00059   2.06357
   R22        1.82279   0.00274   0.00463   0.00264   0.00727   1.83006
    A1        1.95571   0.00034  -0.00021   0.00198   0.00177   1.95748
    A2        2.16129   0.00093   0.00009   0.00660   0.00669   2.16798
    A3        2.16617  -0.00128   0.00012  -0.00859  -0.00847   2.15770
    A4        1.97359   0.00157  -0.00114   0.00763   0.00649   1.98008
    A5        2.18315   0.00275   0.00275   0.01078   0.01353   2.19668
    A6        2.12643  -0.00432  -0.00161  -0.01840  -0.02001   2.10642
    A7        1.93391  -0.00238   0.00102  -0.01089  -0.00988   1.92403
    A8        2.22406   0.00036  -0.00064   0.00165   0.00099   2.22504
    A9        2.12486   0.00203  -0.00039   0.00894   0.00851   2.13337
   A10        1.95995  -0.00179   0.00018  -0.00887  -0.00869   1.95126
   A11        2.22922   0.00097   0.00088   0.00458   0.00546   2.23467
   A12        2.09399   0.00082  -0.00106   0.00428   0.00323   2.09721
   A13        1.60155   0.00225   0.00015   0.01012   0.01028   1.61183
   A14        2.09255   0.00088  -0.00119   0.00448   0.00320   2.09575
   A15        2.21980   0.00098  -0.00012   0.00435   0.00415   2.22395
   A16        1.97028  -0.00186   0.00129  -0.00951  -0.00827   1.96201
   A17        1.58397   0.00257  -0.00022   0.01095   0.01075   1.59471
   A18        1.94319  -0.00247   0.00046  -0.01098  -0.01052   1.93267
   A19        2.35615   0.00158   0.00012   0.00624   0.00637   2.36252
   A20        1.98384   0.00089  -0.00059   0.00475   0.00416   1.98800
   A21        1.98729   0.00101  -0.00043   0.00495   0.00451   1.99180
   A22        1.94267  -0.00246   0.00031  -0.01049  -0.01017   1.93250
   A23        2.35314   0.00144   0.00012   0.00551   0.00563   2.35877
   A24        1.93996   0.00076  -0.00110   0.00449   0.00339   1.94335
   A25        2.14964  -0.00183   0.00018  -0.01206  -0.01188   2.13776
   A26        2.19359   0.00107   0.00092   0.00757   0.00849   2.20207
   A27        1.58171   0.00227   0.00017   0.00980   0.00998   1.59168
   A28        1.98532  -0.00137   0.00082  -0.00777  -0.00695   1.97837
   A29        2.07574   0.00055  -0.00113   0.00327   0.00214   2.07788
   A30        2.22212   0.00082   0.00031   0.00450   0.00481   2.22693
   A31        1.93124   0.00066  -0.00072   0.00371   0.00298   1.93423
   A32        2.18742   0.00066   0.00041   0.00496   0.00538   2.19280
   A33        2.16451  -0.00133   0.00031  -0.00868  -0.00836   2.15615
   A34        1.90800  -0.00302  -0.00292  -0.01960  -0.02252   1.88548
    D1        0.01165  -0.00007   0.00031   0.00297   0.00327   0.01492
    D2       -3.13472  -0.00006   0.00007   0.00383   0.00389  -3.13083
    D3       -3.13426  -0.00007   0.00014  -0.00067  -0.00054  -3.13480
    D4        0.00256  -0.00006  -0.00010   0.00020   0.00008   0.00264
    D5       -0.00946  -0.00008  -0.00018  -0.00313  -0.00330  -0.01275
    D6        3.14018   0.00003  -0.00012  -0.00186  -0.00196   3.13822
    D7        3.13646  -0.00008  -0.00001   0.00047   0.00045   3.13691
    D8        0.00291   0.00002   0.00005   0.00174   0.00178   0.00470
    D9       -0.00849   0.00019  -0.00032  -0.00136  -0.00166  -0.01015
   D10       -3.12155  -0.00012   0.00012   0.01078   0.01084  -3.11071
   D11        3.13770   0.00016  -0.00010  -0.00228  -0.00235   3.13535
   D12        0.02465  -0.00015   0.00035   0.00986   0.01015   0.03480
   D13        0.11160  -0.00012  -0.00027  -0.00561  -0.00588   0.10572
   D14       -3.03516  -0.00009  -0.00053  -0.00460  -0.00514  -3.04030
   D15        0.00266  -0.00022   0.00019  -0.00039  -0.00024   0.00242
   D16        3.11760   0.00005  -0.00024  -0.01184  -0.01209   3.10552
   D17        1.91940   0.00103   0.00000   0.00000  -0.00001   1.91939
   D18       -1.18383   0.00092   0.00093   0.02372   0.02468  -1.15915
   D19       -1.19083   0.00075   0.00048   0.01365   0.01415  -1.17668
   D20        1.98913   0.00065   0.00140   0.03736   0.03884   2.02797
   D21        0.00400   0.00016  -0.00001   0.00201   0.00201   0.00600
   D22        3.13824   0.00006  -0.00005   0.00086   0.00081   3.13905
   D23       -3.11650  -0.00009   0.00067   0.01129   0.01188  -3.10462
   D24       -0.00808   0.00005  -0.00015  -0.00897  -0.00910  -0.01718
   D25        3.10795   0.00004  -0.00086  -0.01417  -0.01501   3.09294
   D26       -0.03137   0.00005  -0.00074  -0.01518  -0.01589  -0.04725
   D27        0.00246  -0.00010   0.00005   0.00791   0.00791   0.01036
   D28       -3.13686  -0.00009   0.00017   0.00690   0.00703  -3.12983
   D29        0.01151  -0.00000   0.00020   0.00743   0.00762   0.01913
   D30       -3.12859   0.00001   0.00003   0.00493   0.00496  -3.12364
   D31       -0.01256  -0.00005  -0.00022  -0.00447  -0.00467  -0.01723
   D32        3.14074   0.00000  -0.00012  -0.00253  -0.00264   3.13810
   D33        3.12788  -0.00006  -0.00009  -0.00253  -0.00261   3.12526
[...]
 Center     Atomic      Atomic             Coordinates (Angstroms)
 Number     Number       Type             X           Y           Z
 ---------------------------------------------------------------------
      1          6           0       -3.937267    0.785330    0.311374
      2          6           0       -2.540027    1.011986    0.467173
      3          6           0       -1.744246    0.032361   -0.136838
      4          6           0       -4.202410   -0.383355   -0.396311
      5          1           0       -4.719526    1.440923    0.703786
      6         16           0       -2.749807   -1.184795   -0.879567
      7          1           0       -5.173606   -0.799968   -0.663941
      8          6           0       -0.289338   -0.062662   -0.108515
      9         16           0        0.498135   -1.349017    0.810104
     10          6           0        2.073992   -0.717571    0.425141
     11          6           0        1.964927    0.457699   -0.361275
     12          6           0        0.626936    0.828899   -0.666409
     13          1           0        0.311851    1.691766   -1.256196
     14         16           0        3.542059    1.088421   -0.747843
     15          6           0        4.317484   -0.209142    0.132439
     16          6           0        3.418940   -1.101015    0.704606
     17          1           0        5.406938   -0.239586    0.182065
     18          1           0        3.727209   -1.969256    1.289665
     19          8           0       -1.958812    2.068979    1.131910
     20          1           0       -2.662507    2.595363    1.537923
 ---------------------------------------------------------------------
 Rotational constants (GHZ):           1.2923685           0.2654369           0.2440185

 **********************************************************************

            Population analysis using the SCF Density.

 **********************************************************************

 Orbital symmetries:
       Occupied  (A) (A) (A) (A) (A) (A) (A) (A) (A) (A) (A) (A)
                 (A) (A) (A) (A) (A) (A) (A) (A) (A) (A) (A) (A)
                 (A) (A) (A) (A) (A) (A) (A) (A) (A) (A) (A) (A)
                 (A) (A) (A) (A) (A) (A) (A) (A) (A) (A) (A) (A)
                 (A) (A) (A) (A) (A) (A) (A) (A) (A) (A) (A) (A)
                 (A)
       Virtual   (A) (A) (A) (A) (A) (A) (A) (A) (A) (A) (A) (A)
                 (A) (A) (A) (A) (A) (A) (A) (A) (A) (A) (A) (A)
                 (A) (A) (A) (A) (A) (A) (A) (A) (A) (A) (A) (A)
                 (A) (A) (A) (A) (A) (A) (A) (A) (A) (A) (A) (A)
                 (A) (A) (A) (A) (A) (A) (A) (A) (A) (A) (A) (A)
                 (A) (A) (A) (A) (A) (A) (A) (A) (A) (A) (A) (A)
                 (A) (A) (A) (A) (A) (A) (A) (A) (A) (A) (A) (A)
                 (A) (A) (A) (A) (A) (A) (A) (A) (A) (A) (A) (A)
                 (A) (A) (A) (A) (A) (A) (A) (A) (A) (A) (A) (A)
                 (A) (A) (A) (A) (A) (A) (A) (A) (A) (A) (A) (A)
                 (A) (A) (A) (A) (A) (A) (A) (A) (A) (A) (A) (A)
                 (A) (A) (A) (A) (A) (A) (A) (A) (A) (A) (A) (A)
                 (A) (A) (A) (A) (A) (A) (A) (A) (A) (A) (A) (A)
                 (A) (A) (A) (A) (A) (A) (A) (A) (A) (A) (A) (A)
                 (A) (A) (A) (A) (A) (A) (A) (A) (A) (A) (A) (A)
                 (A) (A) (A) (A) (A) (A) (A) (A) (A) (A) (A) (A)
                 (A) (A) (A) (A) (A) (A) (A) (A) (A) (A) (A) (A)
                 (A) (A) (A) (A) (A) (A) (A) (A) (A) (A) (A) (A)
                 (A) (A) (A) (A) (A) (A) (A) (A) (A) (A) (A) (A)
                 (A) (A) (A) (A) (A) (A) (A) (A) (A) (A) (A) (A)
                 (A) (A) (A) (A) (A) (A) (A) (A) (A) (A) (A) (A)
                 (A) (A) (A) (A) (A) (A) (A) (A) (A) (A) (A) (A)
                 (A) (A) (A) (A) (A) (A) (A) (A) (A) (A) (A) (A)
                 (A) (A) (A) (A) (A) (A) (A) (A) (A) (A) (A) (A)
                 (A) (A) (A) (A) (A) (A) (A) (A) (A) (A) (A) (A)
                 (A) (A) (A) (A) (A) (A) (A) (A) (A) (A) (A) (A)
                 (A) (A) (A) (A) (A) (A) (A) (A) (A) (A) (A) (A)
                 (A) (A) (A)
 The electronic state is 1-A.
 Alpha  occ. eigenvalues --  -91.99590 -91.99084 -91.98912 -20.61321 -11.32465
 Alpha  occ. eigenvalues --  -11.29248 -11.28836 -11.28125 -11.27618 -11.27549
 Alpha  occ. eigenvalues --  -11.27481 -11.26339 -11.26164 -11.26008  -8.99717
 Alpha  occ. eigenvalues --   -8.99197  -8.99004  -6.67880  -6.67788  -6.67604
 Alpha  occ. eigenvalues --   -6.67363  -6.67283  -6.67166  -6.67086  -6.67082
 Alpha  occ. eigenvalues --   -6.66883  -1.41385  -1.20131  -1.17543  -1.11558
 Alpha  occ. eigenvalues --   -1.02321  -1.01784  -0.98739  -0.94465  -0.93791
 Alpha  occ. eigenvalues --   -0.82372  -0.80261  -0.76368  -0.73689  -0.71975
 Alpha  occ. eigenvalues --   -0.69299  -0.66273  -0.65818  -0.61016  -0.60221
 Alpha  occ. eigenvalues --   -0.58097  -0.56480  -0.55569  -0.53923  -0.52873
 Alpha  occ. eigenvalues --   -0.52766  -0.50476  -0.49373  -0.48648  -0.45874
 Alpha  occ. eigenvalues --   -0.45546  -0.38527  -0.34915  -0.32626  -0.31609
 Alpha  occ. eigenvalues --   -0.28057
 Alpha virt. eigenvalues --    0.02783   0.03730   0.03936   0.04959   0.05077
 Alpha virt. eigenvalues --    0.06224   0.07312   0.08053   0.08405   0.08955
 Alpha virt. eigenvalues --    0.09475   0.10123   0.10435   0.10920   0.11256
 Alpha virt. eigenvalues --    0.12294   0.12505   0.12644   0.12949   0.13561
 Alpha virt. eigenvalues --    0.13661   0.14049   0.14443   0.14672   0.15045
 Alpha virt. eigenvalues --    0.15411   0.15854   0.16164   0.16516   0.16791
 Alpha virt. eigenvalues --    0.17611   0.18048   0.18170   0.18566   0.19369
 Alpha virt. eigenvalues --    0.19511   0.20046   0.20364   0.20905   0.21089
 Alpha virt. eigenvalues --    0.21679   0.22254   0.22728   0.23105   0.23327
 Alpha virt. eigenvalues --    0.23671   0.24433   0.24712   0.24843   0.25651
 Alpha virt. eigenvalues --    0.26662   0.27030   0.27541   0.27771   0.27942
 Alpha virt. eigenvalues --    0.28663   0.29949   0.30670   0.31106   0.31647
 Alpha virt. eigenvalues --    0.31899   0.32432   0.32663   0.32953   0.33021
 Alpha virt. eigenvalues --    0.33614   0.34624   0.34887   0.35005   0.35570
 Alpha virt. eigenvalues --    0.36307   0.36911   0.37378   0.38518   0.38992
 Alpha virt. eigenvalues --    0.39868   0.40553   0.40801   0.40918   0.41885
 Alpha virt. eigenvalues --    0.43162   0.43479   0.44332   0.44865   0.45192
 Alpha virt. eigenvalues --    0.45825   0.45929   0.46527   0.47893   0.48136
 Alpha virt. eigenvalues --    0.49037   0.49312   0.49790   0.50883   0.51653
 Alpha virt. eigenvalues --    0.52962   0.53739   0.53978   0.54395   0.54928
 Alpha virt. eigenvalues --    0.55738   0.56749   0.58289   0.58738   0.59268
 Alpha virt. eigenvalues --    0.59828   0.60302   0.60904   0.61479   0.61936
 Alpha virt. eigenvalues --    0.62591   0.62995   0.64237   0.64744   0.65296
 Alpha virt. eigenvalues --    0.65871   0.66673   0.67272   0.67988   0.68170
 Alpha virt. eigenvalues --    0.68416   0.69148   0.69735   0.70197   0.70426
 Alpha virt. eigenvalues --    0.71519   0.71736   0.72426   0.72838   0.73610
 Alpha virt. eigenvalues --    0.73766   0.74622   0.74969   0.75842   0.76009
 Alpha virt. eigenvalues --    0.76555   0.76935   0.77891   0.78415   0.78848
 Alpha virt. eigenvalues --    0.80936   0.81456   0.82737   0.83231   0.84106
 Alpha virt. eigenvalues --    0.85010   0.85474   0.86287   0.87395   0.87638
 Alpha virt. eigenvalues --    0.87942   0.88914   0.89664   0.90417   0.91278
 Alpha virt. eigenvalues --    0.91561   0.92403   0.93279   0.93879   0.94702
 Alpha virt. eigenvalues --    0.95111   0.95695   0.96150   0.96723   0.97505
 Alpha virt. eigenvalues --    0.98962   0.99514   1.00369   1.02484   1.03249
 Alpha virt. eigenvalues --    1.03671   1.04224   1.05611   1.06555   1.07651
 Alpha virt. eigenvalues --    1.08336   1.08998   1.09689   1.10746   1.11731
 Alpha virt. eigenvalues --    1.13075   1.13754   1.16761   1.16950   1.19069
 Alpha virt. eigenvalues --    1.19515   1.20695   1.21381   1.22248   1.23301
 Alpha virt. eigenvalues --    1.24447   1.24690   1.25013   1.25352   1.26626
 Alpha virt. eigenvalues --    1.27624   1.28301   1.29588   1.30015   1.31521
 Alpha virt. eigenvalues --    1.32372   1.33637   1.34550   1.35523   1.36465
 Alpha virt. eigenvalues --    1.37642   1.38276   1.40322   1.40922   1.42023
 Alpha virt. eigenvalues --    1.42660   1.44545   1.45241   1.46223   1.48467
 Alpha virt. eigenvalues --    1.50151   1.53883   1.54294   1.55601   1.56531
 Alpha virt. eigenvalues --    1.57309   1.58687   1.59524   1.60278   1.61746
 Alpha virt. eigenvalues --    1.62230   1.63295   1.65054   1.65822   1.66692
 Alpha virt. eigenvalues --    1.67283   1.68934   1.69363   1.70475   1.71741
 Alpha virt. eigenvalues --    1.73341   1.73955   1.75410   1.75913   1.76644
 Alpha virt. eigenvalues --    1.79369   1.79702   1.80731   1.81643   1.83649
 Alpha virt. eigenvalues --    1.84059   1.85130   1.87895   1.88178   1.89706
 Alpha virt. eigenvalues --    1.90512   1.91280   1.94042   1.95116   1.96060
 Alpha virt. eigenvalues --    1.97836   1.98613   2.00505   2.02470   2.03194
 Alpha virt. eigenvalues --    2.05320   2.06649   2.06956   2.07889   2.09031
 Alpha virt. eigenvalues --    2.09960   2.11736   2.12788   2.14055   2.14480
 Alpha virt. eigenvalues --    2.15882   2.17091   2.17618   2.18583   2.19885
 Alpha virt. eigenvalues --    2.20975   2.25188   2.25669   2.26582   2.28870
 Alpha virt. eigenvalues --    2.30562   2.30917   2.31781   2.33659   2.35951
 Alpha virt. eigenvalues --    2.37678   2.39821   2.41322   2.42465   2.43690
 Alpha virt. eigenvalues --    2.45435   2.47205   2.47808   2.48773   2.50302
 Alpha virt. eigenvalues --    2.54177   2.55783   2.58069   2.58699   2.63981
 Alpha virt. eigenvalues --    2.70112   2.77377   2.79722   2.82151   2.83614
 Alpha virt. eigenvalues --    2.87111   2.87439   2.94717   2.95292   3.00640
 Alpha virt. eigenvalues --    3.10565   3.12863   3.20822   3.23503   3.31133
 Alpha virt. eigenvalues --    3.37175   3.46042   3.51434   3.59087   3.76292
 Alpha virt. eigenvalues --    3.76857   3.77625   3.85419   3.87831   4.19896
 Alpha virt. eigenvalues --    4.23309   4.43700
          Condensed to atoms (all electrons):
               1          2          3          4          5          6
     1  C    7.441480  -1.753141  -0.197106   0.221895  -0.035021  -0.475425
     2  C   -1.753141   9.163398  -1.082573   0.278011   0.131136  -0.266993
     3  C   -0.197106  -1.082573  10.831150  -1.199498  -0.054805  -0.145991
     4  C    0.221895   0.278011  -1.199498   6.320290  -0.050196   0.408378
     5  H   -0.035021   0.131136  -0.054805  -0.050196   1.543201  -0.014512
     6  S   -0.475425  -0.266993  -0.145991   0.408378  -0.014512  16.290313
     7  H   -0.055415   0.047551   0.050259   0.279064  -0.063367  -0.150045
     8  C    0.431120  -0.625396  -1.974800   0.226980   0.029712  -0.222653
     9  S   -0.029489   0.036849  -0.629154   0.032827  -0.002599   0.250491
    10  C    0.010865   0.024762  -0.249905   0.020283   0.001031   0.026304
    11  C   -0.041228  -0.085090   0.411476  -0.010284  -0.002721   0.043505
    12  C   -0.031294   0.357736  -0.300948  -0.088236  -0.004442  -0.199463
    13  H    0.004062  -0.019714   0.107286   0.005414   0.000733   0.013097
    14  S   -0.000068   0.007048  -0.070251  -0.000848  -0.000003   0.003016
    15  C   -0.001164  -0.010765   0.035148   0.000842  -0.000057   0.005063
    16  C    0.001330   0.020402  -0.349780  -0.002744  -0.000058   0.004784
    17  H   -0.000084   0.000036  -0.000056   0.000040  -0.000004   0.000222
    18  H   -0.000147   0.000078  -0.008391  -0.000108  -0.000016   0.001113
    19  O    0.070153  -0.637125   0.275864  -0.071707  -0.061298   0.001537
    20  H   -0.151663   0.016058  -0.005136  -0.015548  -0.009260   0.016172
               7          8          9         10         11         12
     1  C   -0.055415   0.431120  -0.029489   0.010865  -0.041228  -0.031294
     2  C    0.047551  -0.625396   0.036849   0.024762  -0.085090   0.357736
     3  C    0.050259  -1.974800  -0.629154  -0.249905   0.411476  -0.300948
     4  C    0.279064   0.226980   0.032827   0.020283  -0.010284  -0.088236
     5  H   -0.063367   0.029712  -0.002599   0.001031  -0.002721  -0.004442
     6  S   -0.150045  -0.222653   0.250491   0.026304   0.043505  -0.199463
     7  H    1.207957  -0.009516   0.003255   0.000705   0.000516   0.001015
     8  C   -0.009516  10.939879   0.278740  -0.074558  -0.458251  -2.613361
     9  S    0.003255   0.278740  16.340655   0.278467  -0.361686  -0.426175
    10  C    0.000705  -0.074558   0.278467   9.580945   0.142380  -1.013431
    11  C    0.000516  -0.458251  -0.361686   0.142380  10.507682  -2.774069
    12  C    0.001015  -2.613361  -0.426175  -1.013431  -2.774069  13.871560
    13  H    0.000235   0.220937   0.031666  -0.065808   0.491633  -0.866849
    14  S   -0.000072  -0.231290   0.086566  -0.064167  -0.246921  -0.021939
    15  C    0.000061   0.047505  -0.087708  -0.176696  -0.731590  -0.112578
    16  C   -0.000061  -0.415877  -0.235066  -2.211565  -0.810147   0.296981
    17  H    0.000003   0.001597   0.005501   0.031961  -0.028684   0.032675
    18  H    0.000007   0.096955   0.012642   0.497939   0.042042  -0.067130
    19  O   -0.001404   0.006399   0.004150   0.001347   0.033066  -0.044277
    20  H    0.001142  -0.007473  -0.002004   0.000713   0.000801   0.009240
              13         14         15         16         17         18
     1  C    0.004062  -0.000068  -0.001164   0.001330  -0.000084  -0.000147
     2  C   -0.019714   0.007048  -0.010765   0.020402   0.000036   0.000078
     3  C    0.107286  -0.070251   0.035148  -0.349780  -0.000056  -0.008391
     4  C    0.005414  -0.000848   0.000842  -0.002744   0.000040  -0.000108
     5  H    0.000733  -0.000003  -0.000057  -0.000058  -0.000004  -0.000016
     6  S    0.013097   0.003016   0.005063   0.004784   0.000222   0.001113
     7  H    0.000235  -0.000072   0.000061  -0.000061   0.000003   0.000007
     8  C    0.220937  -0.231290   0.047505  -0.415877   0.001597   0.096955
     9  S    0.031666   0.086566  -0.087708  -0.235066   0.005501   0.012642
    10  C   -0.065808  -0.064167  -0.176696  -2.211565   0.031961   0.497939
    11  C    0.491633  -0.246921  -0.731590  -0.810147  -0.028684   0.042042
    12  C   -0.866849  -0.021939  -0.112578   0.296981   0.032675  -0.067130
    13  H    1.520014  -0.041468   0.014256  -0.037696   0.001535  -0.001417
    14  S   -0.041468  15.918535   0.188889  -0.006713  -0.152369  -0.002918
    15  C    0.014256   0.188889   6.506398   0.310715   0.278986  -0.137429
    16  C   -0.037696  -0.006713   0.310715   9.326953  -0.000080  -0.430245
    17  H    0.001535  -0.152369   0.278986  -0.000080   1.238886  -0.060601
    18  H   -0.001417  -0.002918  -0.137429  -0.430245  -0.060601   1.349999
    19  O    0.010813  -0.003647  -0.000184  -0.001141  -0.000054   0.000130
    20  H   -0.000379   0.000364   0.000037   0.000431   0.000013   0.000022
              19         20
     1  C    0.070153  -0.151663
     2  C   -0.637125   0.016058
     3  C    0.275864  -0.005136
     4  C   -0.071707  -0.015548
     5  H   -0.061298  -0.009260
     6  S    0.001537   0.016172
     7  H   -0.001404   0.001142
     8  C    0.006399  -0.007473
     9  S    0.004150  -0.002004
    10  C    0.001347   0.000713
    11  C    0.033066   0.000801
    12  C   -0.044277   0.009240
    13  H    0.010813  -0.000379
    14  S   -0.003647   0.000364
    15  C   -0.000184   0.000037
    16  C   -0.001141   0.000431
    17  H   -0.000054   0.000013
    18  H    0.000130   0.000022
    19  O    9.016349   0.365219
    20  H    0.365219   0.593356
 Mulliken charges:
               1
     1  C    0.590339
     2  C    0.397732
     3  C    0.557211
     4  C   -0.354854
     5  H   -0.407454
     6  S    0.411087
     7  H   -0.311889
     8  C    0.353351
     9  S    0.412073
    10  C   -0.761570
    11  C   -0.122428
    12  C   -0.005015
    13  H   -0.388350
    14  S    0.638257
    15  C   -0.129729
    16  C    0.539579
    17  H   -0.349521
    18  H   -0.292524
    19  O   -0.964191
    20  H    0.187896
 Sum of Mulliken charges =  -0.00000
 Mulliken charges with hydrogens summed into heavy atoms:
               1
     1  C    0.182885
     2  C    0.397732
     3  C    0.557211
     4  C   -0.666743
     6  S    0.411087
     8  C    0.353351
     9  S    0.412073
    10  C   -0.761570
    11  C   -0.122428
    12  C   -0.393365
    14  S    0.638257
    15  C   -0.479251
    16  C    0.247055
    19  O   -0.776295
 Electronic spatial extent (au):  <R**2>=           4326.6875
 Charge=             -0.0000 electrons
 Dipole moment (field-independent basis, Debye):
    X=             -2.1527    Y=              0.9915    Z=              0.7333  Tot=              2.4809
 Quadrupole moment (field-independent basis, Debye-Ang):
   XX=            -78.0993   YY=            -99.4413   ZZ=           -105.9868
   XY=             -8.9129   XZ=             -0.7826   YZ=              0.1387
 Traceless Quadrupole moment (field-independent basis, Debye-Ang):
   XX=             16.4098   YY=             -4.9322   ZZ=            -11.4777
   XY=             -8.9129   XZ=             -0.7826   YZ=              0.1387
 Octapole moment (field-independent basis, Debye-Ang**2):
  XXX=            -45.3456  YYY=             21.7889  ZZZ=              9.1609  XYY=            -20.2971
  XXY=              6.0850  XXZ=             22.2941  XZZ=             -9.6604  YZZ=              8.0703
  YYZ=             11.5357  XYZ=            -27.5904
 Hexadecapole moment (field-independent basis, Debye-Ang**3):
 XXXX=          -4027.3138 YYYY=           -778.1924 ZZZZ=           -422.2785 XXXY=           -102.2387
 XXXZ=             14.7935 YYYX=            -83.1435 YYYZ=             26.4014 ZZZX=            -23.8447
 ZZZY=             17.5421 XXYY=           -872.5778 XXZZ=           -906.4926 YYZZ=           -176.3713
 XXYZ=             48.7412 YYXZ=            -24.7021 ZZXY=            -30.7674
 N-N= 1.119514330735D+03 E-N=-6.145625677455D+03  KE= 1.648680834952D+03
 Unable to Open any file for archive entry.
 1\1\GINC-CX3-11-5\FOpt\RMP2-FC\Aug-CC-pVDZ\C10H6O1S3\NS5018\27-Oct-202
 1\0\\# opt=modredundant mp2/aug-cc-pvdz\\pBTTT_110.pdb\\0,1\C,-3.94828
 18804,0.7421382347,0.2943484803\C,-2.5539451217,0.9803776887,0.4586478
 484\C,-1.7463027141,0.013443569,-0.1500509062\C,-4.1992686159,-0.42277
 59417,-0.4246257116\H,-4.7384111761,1.3870255616,0.6887273877\S,-2.737
 0549848,-1.206497081,-0.9079586663\H,-5.1652998747,-0.8460377903,-0.70
 03907931\C,-0.2907195199,-0.0683303922,-0.115725323\S,0.5044524259,-1.
 3552450922,0.795447286\C,2.0761204802,-0.7059059116,0.4233398345\C,1.9
 597448014,0.4750762285,-0.3534131338\C,0.6197759685,0.8364884385,-0.66
 16057561\H,0.2993942067,1.701477332,-1.2453997795\S,3.5327013147,1.123
 7172573,-0.7271252446\C,4.3161065445,-0.1741835463,0.1455590933\C,3.42
 32769051,-1.0792738784,0.7057911903\H,5.4055568981,-0.1949564025,0.200
 0295038\H,3.7369161135,-1.9496591239,1.2847796594\O,-1.9856665042,2.03
 6910771,1.1351958887\H,-2.6960952669,2.5532100789,1.5424291419\\Versio
 n=ES64L-G16RevC.01\State=1-A\HF=-1649.6297146\MP2=-1651.6207214\RMSD=4
 .301e-09\RMSF=5.036e-04\Dipole=-0.6711772,0.3164575,0.2498497\PG=C01 [
 X(C10H6O1S3)]\\@
 The archive entry for this job was punched.


 THE REASON MAN'S BEST FRIEND IS A DOG IS BECAUSE
 HE WAGS HIS TAIL INSTEAD OF HIS TONGUE.
 Job cpu time:       0 days 14 hours 34 minutes 32.0 seconds.
 Elapsed time:       0 days  1 hours 58 minutes 48.6 seconds.
 File lengths (MBytes):  RWF=    106 Int=      0 D2E=      0 Chk=     16 Scr=      1
 Normal termination of Gaussian 16 at Wed Oct 27 07:55:07 2021.
