 Entering Gaussian System, Link 0=g16
 Input=pBTTT_-145.gjf
 Output=pBTTT_-145.log
 Initial command:
 /apps/gaussian/g16-c01-avx/g16/l1.exe "/tmp/pbs.4766300[30].pbs/Gau-550821.inp" -scrdir="/tmp/pbs.4766300[30].pbs/"
 Entering Link 1 = /apps/gaussian/g16-c01-avx/g16/l1.exe PID=    550822.
  
 Copyright (c) 1988-2019, Gaussian, Inc.  All Rights Reserved.
  
 This is part of the Gaussian(R) 16 program.  It is based on
 the Gaussian(R) 09 system (copyright 2009, Gaussian, Inc.),
 the Gaussian(R) 03 system (copyright 2003, Gaussian, Inc.),
 the Gaussian(R) 98 system (copyright 1998, Gaussian, Inc.),
 the Gaussian(R) 94 system (copyright 1995, Gaussian, Inc.),
 the Gaussian 92(TM) system (copyright 1992, Gaussian, Inc.),
 the Gaussian 90(TM) system (copyright 1990, Gaussian, Inc.),
 the Gaussian 88(TM) system (copyright 1988, Gaussian, Inc.),
 the Gaussian 86(TM) system (copyright 1986, Carnegie Mellon
 University), and the Gaussian 82(TM) system (copyright 1983,
 Carnegie Mellon University). Gaussian is a federally registered
 trademark of Gaussian, Inc.
  
 This software contains proprietary and confidential information,
 including trade secrets, belonging to Gaussian, Inc.
  
 This software is provided under written license and may be
 used, copied, transmitted, or stored only in accord with that
 written license.
  
 The following legend is applicable only to US Government
 contracts under FAR:
  
                    RESTRICTED RIGHTS LEGEND
  
 Use, reproduction and disclosure by the US Government is
 subject to restrictions as set forth in subparagraphs (a)
 and (c) of the Commercial Computer Software - Restricted
 Rights clause in FAR 52.227-19.
  
 Gaussian, Inc.
 340 Quinnipiac St., Bldg. 40, Wallingford CT 06492
  
  
 ---------------------------------------------------------------
 Warning -- This program may not be used in any manner that
 competes with the business of Gaussian, Inc. or will provide
 assistance to any competitor of Gaussian, Inc.  The licensee
 of this program is prohibited from giving any competitor of
 Gaussian, Inc. access to this program.  By using this program,
 the user acknowledges that Gaussian, Inc. is engaged in the
 business of creating and licensing software in the field of
 computational chemistry and represents and warrants to the
 licensee that it is not a competitor of Gaussian, Inc. and that
 it will not use this program in any manner prohibited above.
 ---------------------------------------------------------------
  

 Cite this work as:
 Gaussian 16, Revision C.01,
 M. J. Frisch, G. W. Trucks, H. B. Schlegel, G. E. Scuseria, 
 M. A. Robb, J. R. Cheeseman, G. Scalmani, V. Barone, 
 G. A. Petersson, H. Nakatsuji, X. Li, M. Caricato, A. V. Marenich, 
 J. Bloino, B. G. Janesko, R. Gomperts, B. Mennucci, H. P. Hratchian, 
 J. V. Ortiz, A. F. Izmaylov, J. L. Sonnenberg, D. Williams-Young, 
 F. Ding, F. Lipparini, F. Egidi, J. Goings, B. Peng, A. Petrone, 
 T. Henderson, D. Ranasinghe, V. G. Zakrzewski, J. Gao, N. Rega, 
 G. Zheng, W. Liang, M. Hada, M. Ehara, K. Toyota, R. Fukuda, 
 J. Hasegawa, M. Ishida, T. Nakajima, Y. Honda, O. Kitao, H. Nakai, 
 T. Vreven, K. Throssell, J. A. Montgomery, Jr., J. E. Peralta, 
 F. Ogliaro, M. J. Bearpark, J. J. Heyd, E. N. Brothers, K. N. Kudin, 
 V. N. Staroverov, T. A. Keith, R. Kobayashi, J. Normand, 
 K. Raghavachari, A. P. Rendell, J. C. Burant, S. S. Iyengar, 
 J. Tomasi, M. Cossi, J. M. Millam, M. Klene, C. Adamo, R. Cammi, 
 J. W. Ochterski, R. L. Martin, K. Morokuma, O. Farkas, 
 J. B. Foresman, and D. J. Fox, Gaussian, Inc., Wallingford CT, 2019.
 
 ******************************************
 Gaussian 16:  ES64L-G16RevC.01  3-Jul-2019
                27-Oct-2021 
 ******************************************
 %mem=100GB
 %nprocshared=8
 Will use up to    8 processors via shared memory.
 ----------------------------------
 # opt=modredundant mp2/aug-cc-pvdz
 ----------------------------------
 1/18=120,19=15,38=1/1,3;
 2/9=110,12=2,17=6,18=5,40=1/2;
 3/5=16,7=10,11=9,25=1,30=1,71=1/1,2,3;
 4//1;
 5/5=2,38=5/2;
 8/6=4,10=1/1;
 9/15=2,16=-3/6;
 10/5=1/2;
 6/7=2,8=2,9=2,10=2/1;
 7/12=2/1,2,3,16;
 1/18=20,19=15/3(2);
 2/9=110/2;
 99//99;
 2/9=110/2;
 3/5=16,7=10,11=9,25=1,30=1,71=1/1,2,3;
 4/5=5,16=3,69=1/1;
 5/5=2,38=5/2;
 8/6=4,10=1/1;
 9/15=2,16=-3/6;
 10/5=1/2;
 7/12=2/1,2,3,16;
 1/18=20,19=15/3(-8);
 2/9=110/2;
 6/7=2,8=2,9=2,10=2/1;
 99/9=10/99;
 --------------
 pBTTT_-145.pdb
 --------------
 Symbolic Z-matrix:
 Charge =  0 Multiplicity = 1
 C                     3.933     0.838     0.143 
 C                     2.526     1.106     0.252 
 C                     1.741     0.041    -0.047 
 C                     4.183    -0.432    -0.236 
 H                     4.699     1.571     0.344 
 S                     2.735    -1.329    -0.489 
 H                     5.144    -0.892    -0.39 
 C                     0.279    -0.035    -0.026 
 S                    -0.529    -1.524     0.459 
 C                    -2.085    -0.789     0.222 
 C                    -1.957     0.508    -0.179 
 C                    -0.602     0.948    -0.328 
 H                    -0.304     1.932    -0.644 
 S                    -3.512     1.246    -0.411 
 C                    -4.306    -0.239     0.046 
 C                    -3.443    -1.23      0.354 
 H                    -5.382    -0.286     0.059 
 H                    -3.747    -2.218     0.659 
 O                     2.022     2.309     0.608 
 H                     2.698     2.861     0.963 
 
 The following ModRedundant input section has been read:
 D       2       3       8       9 F                                           
 

 GradGradGradGradGradGradGradGradGradGradGradGradGradGradGradGradGradGrad
 Berny optimization.
 Initialization pass.
                           ----------------------------
                           !    Initial Parameters    !
                           ! (Angstroms and Degrees)  !
 --------------------------                            --------------------------
 ! Name  Definition              Value          Derivative Info.                !
 --------------------------------------------------------------------------------
 ! R1    R(1,2)                  1.4364         estimate D2E/DX2                !
 ! R2    R(1,4)                  1.3487         estimate D2E/DX2                !
 ! R3    R(1,5)                  1.0791         estimate D2E/DX2                !
 ! R4    R(2,3)                  1.3564         estimate D2E/DX2                !
 ! R5    R(2,19)                 1.352          estimate D2E/DX2                !
 ! R6    R(3,6)                  1.7494         estimate D2E/DX2                !
 ! R7    R(3,8)                  1.4641         estimate D2E/DX2                !
 ! R8    R(4,6)                  1.722          estimate D2E/DX2                !
 ! R9    R(4,7)                  1.0765         estimate D2E/DX2                !
 ! R10   R(8,9)                  1.7622         estimate D2E/DX2                !
 ! R11   R(8,12)                 1.3541         estimate D2E/DX2                !
 ! R12   R(9,10)                 1.7371         estimate D2E/DX2                !
 ! R13   R(10,11)                1.3636         estimate D2E/DX2                !
 ! R14   R(10,16)                1.4339         estimate D2E/DX2                !
 ! R15   R(11,12)                1.4324         estimate D2E/DX2                !
 ! R16   R(11,14)                1.7368         estimate D2E/DX2                !
 ! R17   R(12,13)                1.0756         estimate D2E/DX2                !
 ! R18   R(14,15)                1.7449         estimate D2E/DX2                !
 ! R19   R(15,16)                1.3497         estimate D2E/DX2                !
 ! R20   R(15,17)                1.0771         estimate D2E/DX2                !
 ! R21   R(16,18)                1.0778         estimate D2E/DX2                !
 ! R22   R(19,20)                0.9422         estimate D2E/DX2                !
 ! A1    A(2,1,4)              112.2451         estimate D2E/DX2                !
 ! A2    A(2,1,5)              123.672          estimate D2E/DX2                !
 ! A3    A(4,1,5)              124.0828         estimate D2E/DX2                !
 ! A4    A(1,2,3)              113.8069         estimate D2E/DX2                !
 ! A5    A(1,2,19)             123.4442         estimate D2E/DX2                !
 ! A6    A(3,2,19)             122.7466         estimate D2E/DX2                !
 ! A7    A(2,3,6)              109.9833         estimate D2E/DX2                !
 ! A8    A(2,3,8)              127.9874         estimate D2E/DX2                !
 ! A9    A(6,3,8)              122.0293         estimate D2E/DX2                !
 ! A10   A(1,4,6)              112.0812         estimate D2E/DX2                !
 ! A11   A(1,4,7)              127.4485         estimate D2E/DX2                !
 ! A12   A(6,4,7)              120.4679         estimate D2E/DX2                !
 ! A13   A(3,6,4)               91.8756         estimate D2E/DX2                !
 ! A14   A(3,8,9)              120.376          estimate D2E/DX2                !
 ! A15   A(3,8,12)             127.5013         estimate D2E/DX2                !
 ! A16   A(9,8,12)             112.1147         estimate D2E/DX2                !
 ! A17   A(8,9,10)              90.8964         estimate D2E/DX2                !
 ! A18   A(9,10,11)            111.0076         estimate D2E/DX2                !
 ! A19   A(9,10,16)            134.8812         estimate D2E/DX2                !
 ! A20   A(11,10,16)           114.1109         estimate D2E/DX2                !
 ! A21   A(10,11,12)           114.3026         estimate D2E/DX2                !
 ! A22   A(10,11,14)           111.0636         estimate D2E/DX2                !
 ! A23   A(12,11,14)           134.629          estimate D2E/DX2                !
 ! A24   A(8,12,11)            111.6698         estimate D2E/DX2                !
 ! A25   A(8,12,13)            123.3243         estimate D2E/DX2                !
 ! A26   A(11,12,13)           125.0054         estimate D2E/DX2                !
 ! A27   A(11,14,15)            90.6186         estimate D2E/DX2                !
 ! A28   A(14,15,16)           113.1846         estimate D2E/DX2                !
 ! A29   A(14,15,17)           119.6621         estimate D2E/DX2                !
 ! A30   A(16,15,17)           127.1532         estimate D2E/DX2                !
 ! A31   A(10,16,15)           111.0222         estimate D2E/DX2                !
 ! A32   A(10,16,18)           125.1082         estimate D2E/DX2                !
 ! A33   A(15,16,18)           123.8696         estimate D2E/DX2                !
 ! A34   A(2,19,20)            110.674          estimate D2E/DX2                !
 ! D1    D(4,1,2,3)             -0.1104         estimate D2E/DX2                !
 ! D2    D(4,1,2,19)          -179.5747         estimate D2E/DX2                !
 ! D3    D(5,1,2,3)            179.9974         estimate D2E/DX2                !
 ! D4    D(5,1,2,19)             0.5332         estimate D2E/DX2                !
 ! D5    D(2,1,4,6)              0.6932         estimate D2E/DX2                !
 ! D6    D(2,1,4,7)           -179.8759         estimate D2E/DX2                !
 ! D7    D(5,1,4,6)           -179.4152         estimate D2E/DX2                !
 ! D8    D(5,1,4,7)              0.0157         estimate D2E/DX2                !
 ! D9    D(1,2,3,6)             -0.5082         estimate D2E/DX2                !
 ! D10   D(1,2,3,8)            179.3928         estimate D2E/DX2                !
 ! D11   D(19,2,3,6)           178.9603         estimate D2E/DX2                !
 ! D12   D(19,2,3,8)            -1.1386         estimate D2E/DX2                !
 ! D13   D(1,2,19,20)          -13.394          estimate D2E/DX2                !
 ! D14   D(3,2,19,20)          167.1888         estimate D2E/DX2                !
 ! D15   D(2,3,6,4)              0.7549         estimate D2E/DX2                !
 ! D16   D(8,3,6,4)           -179.1531         estimate D2E/DX2                !
 ! D17   D(2,3,8,9)           -144.9887         Frozen                          !
 ! D18   D(2,3,8,12)            33.9            estimate D2E/DX2                !
 ! D19   D(6,3,8,9)             34.9016         estimate D2E/DX2                !
 ! D20   D(6,3,8,12)          -146.2097         estimate D2E/DX2                !
 ! D21   D(1,4,6,3)             -0.836          estimate D2E/DX2                !
 ! D22   D(7,4,6,3)            179.6882         estimate D2E/DX2                !
 ! D23   D(3,8,9,10)           179.7626         estimate D2E/DX2                !
 ! D24   D(12,8,9,10)            0.7143         estimate D2E/DX2                !
 ! D25   D(3,8,12,11)         -179.3206         estimate D2E/DX2                !
 ! D26   D(3,8,12,13)            0.9452         estimate D2E/DX2                !
 ! D27   D(9,8,12,11)           -0.3555         estimate D2E/DX2                !
 ! D28   D(9,8,12,13)          179.9103         estimate D2E/DX2                !
 ! D29   D(8,9,10,11)           -0.8884         estimate D2E/DX2                !
 ! D30   D(8,9,10,16)          179.3017         estimate D2E/DX2                !
 ! D31   D(9,10,11,12)           0.8729         estimate D2E/DX2                !
 ! D32   D(9,10,11,14)        -179.8            estimate D2E/DX2                !
 ! D33   D(16,10,11,12)       -179.2747         estimate D2E/DX2                !
 ! D34   D(16,10,11,14)          0.0525         estimate D2E/DX2                !
 ! D35   D(9,10,16,15)         179.7374         estimate D2E/DX2                !
 ! D36   D(9,10,16,18)          -0.1809         estimate D2E/DX2                !
 ! D37   D(11,10,16,15)         -0.0682         estimate D2E/DX2                !
 ! D38   D(11,10,16,18)       -179.9865         estimate D2E/DX2                !
 ! D39   D(10,11,12,8)          -0.3371         estimate D2E/DX2                !
 ! D40   D(10,11,12,13)        179.3918         estimate D2E/DX2                !
 ! D41   D(14,11,12,8)        -179.4548         estimate D2E/DX2                !
 ! D42   D(14,11,12,13)          0.2741         estimate D2E/DX2                !
 ! D43   D(10,11,14,15)         -0.0189         estimate D2E/DX2                !
 ! D44   D(12,11,14,15)        179.1194         estimate D2E/DX2                !
 ! D45   D(11,14,15,16)         -0.0205         estimate D2E/DX2                !
 ! D46   D(11,14,15,17)        179.9316         estimate D2E/DX2                !
 ! D47   D(14,15,16,10)          0.0522         estimate D2E/DX2                !
 ! D48   D(14,15,16,18)        179.9718         estimate D2E/DX2                !
 ! D49   D(17,15,16,10)       -179.8955         estimate D2E/DX2                !
 ! D50   D(17,15,16,18)          0.024          estimate D2E/DX2                !
 --------------------------------------------------------------------------------
 Trust Radius=3.00D-01 FncErr=1.00D-07 GrdErr=1.00D-07 EigMax=2.50D+02 EigMin=1.00D-04
 Number of steps in this run=    116 maximum allowed number of steps=    120.
 GradGradGradGradGradGradGradGradGradGradGradGradGradGradGradGradGradGrad

                          Input orientation:                          
 ---------------------------------------------------------------------
 Center     Atomic      Atomic             Coordinates (Angstroms)
 Number     Number       Type             X           Y           Z
 ---------------------------------------------------------------------
      1          6           0        3.933000    0.838000    0.143000
      2          6           0        2.526000    1.106000    0.252000
      3          6           0        1.741000    0.041000   -0.047000
      4          6           0        4.183000   -0.432000   -0.236000
      5          1           0        4.699000    1.571000    0.344000
      6         16           0        2.735000   -1.329000   -0.489000
      7          1           0        5.144000   -0.892000   -0.390000
      8          6           0        0.279000   -0.035000   -0.026000
      9         16           0       -0.529000   -1.524000    0.459000
     10          6           0       -2.085000   -0.789000    0.222000
     11          6           0       -1.957000    0.508000   -0.179000
     12          6           0       -0.602000    0.948000   -0.328000
     13          1           0       -0.304000    1.932000   -0.644000
     14         16           0       -3.512000    1.246000   -0.411000
     15          6           0       -4.306000   -0.239000    0.046000
     16          6           0       -3.443000   -1.230000    0.354000
     17          1           0       -5.382000   -0.286000    0.059000
     18          1           0       -3.747000   -2.218000    0.659000
     19          8           0        2.022000    2.309000    0.608000
     20          1           0        2.698000    2.861000    0.963000
 ---------------------------------------------------------------------
                    Distance matrix (angstroms):
                    1          2          3          4          5
     1  C    0.000000
     2  C    1.436438   0.000000
     3  C    2.340122   1.356411   0.000000
     4  C    1.348718   2.312842   2.494557   0.000000
     5  H    1.079095   2.224099   3.353140   2.148177   0.000000
     6  S    2.555488   2.553818   1.749371   1.722011   3.600165
     7  H    2.177960   3.355308   3.545215   1.076493   2.608285
     8  C    3.760639   2.535384   1.464125   3.929749   4.717259
     9  S    5.058492   4.036431   2.803241   4.886556   6.076531
    10  C    6.234556   4.985303   3.924224   6.294842   7.183811
    11  C    5.908019   4.543199   3.729707   6.211799   6.760609
    12  C    4.560720   3.185239   2.528094   4.980872   5.379620
    13  H    4.446164   3.081232   2.848564   5.088038   5.112384
    14  S    7.476724   6.075904   5.401715   7.877775   8.252040
    15  C    8.309661   6.966182   6.054193   8.495875   9.189936
    16  C    7.663323   6.410637   5.352579   7.690304   8.610335
    17  H    9.382945   8.031897   7.131290   9.570662  10.254571
    18  H    8.281775   7.110918   5.976593   8.177758   9.262325
    19  O    2.456010   1.352021   2.377354   3.591008   2.789385
    20  H    2.508018   1.901350   3.144575   3.806136   2.459931
                    6          7          8          9         10
     6  S    0.000000
     7  H    2.450317   0.000000
     8  C    2.814381   4.953299   0.000000
     9  S    3.404471   5.770888   1.762161   0.000000
    10  C    4.901992   7.255591   2.493695   1.737104   0.000000
    11  C    5.048320   7.240768   2.306069   2.564225   1.363596
    12  C    4.043046   6.033735   1.354125   2.595281   2.349246
    13  H    4.460232   6.141677   2.142639   3.634717   3.365376
    14  S    6.757345   8.916155   4.020058   4.162702   2.564809
    15  C    7.144929   9.482563   4.590101   4.010925   2.294846
    16  C    6.236035   8.625796   3.927558   2.930675   1.433900
    17  H    8.202063  10.552986   5.667199   5.024366   3.339130
    18  H    6.642631   9.050335   4.630701   3.298054   2.235006
    19  O    3.866112   4.581407   2.989037   4.606701   5.158881
    20  H    4.434611   4.679587   3.900833   5.467702   6.062068
                   11         12         13         14         15
    11  C    0.000000
    12  C    1.432420   0.000000
    13  H    2.230787   1.075600   0.000000
    14  S    1.736805   2.926396   3.288791   0.000000
    15  C    2.475164   3.907488   4.604926   1.744852   0.000000
    16  C    2.347963   3.644186   4.565914   2.592405   1.349709
    17  H    3.523876   4.951861   5.585680   2.462686   1.077104
    18  H    3.367109   4.570421   5.547482   3.633101   2.145854
    19  O    4.437951   3.100612   2.668316   5.726560   6.844833
    20  H    5.339457   4.026941   3.529518   6.562027   7.714072
                   16         17         18         19         20
    16  C    0.000000
    17  H    2.176668   0.000000
    18  H    1.077769   2.601125   0.000000
    19  O    6.515770   7.864772   7.333327   0.000000
    20  H    7.403988   8.718212   8.211375   0.942181   0.000000
 Stoichiometry    C10H6OS3
 Framework group  C1[X(C10H6OS3)]
 Deg. of freedom    54
 Full point group                 C1      NOp   1
 Largest Abelian subgroup         C1      NOp   1
 Largest concise Abelian subgroup C1      NOp   1
                         Standard orientation:                         
 ---------------------------------------------------------------------
 Center     Atomic      Atomic             Coordinates (Angstroms)
 Number     Number       Type             X           Y           Z
 ---------------------------------------------------------------------
      1          6           0        3.932965    0.837891    0.142959
      2          6           0        2.525959    1.105860    0.251959
      3          6           0        1.740983    0.040842   -0.047041
      4          6           0        4.182993   -0.432103   -0.236041
      5          1           0        4.698949    1.570908    0.343959
      6         16           0        2.735013   -1.329136   -0.489041
      7          1           0        5.144004   -0.892082   -0.390041
      8          6           0        0.278984   -0.035190   -0.026041
      9         16           0       -0.528982   -1.524209    0.458959
     10          6           0       -2.084999   -0.789243    0.221959
     11          6           0       -1.957028    0.507760   -0.179041
     12          6           0       -0.602038    0.947790   -0.328041
     13          1           0       -0.304060    1.931796   -0.644041
     14         16           0       -3.512044    1.245725   -0.411041
     15          6           0       -4.306011   -0.239293    0.045959
     16          6           0       -3.442989   -1.230274    0.353959
     17          1           0       -5.382010   -0.286317    0.058959
     18          1           0       -3.746967   -2.218280    0.658959
     19          8           0        2.021932    2.308848    0.607959
     20          1           0        2.697920    2.860864    0.962959
 ---------------------------------------------------------------------
 Rotational constants (GHZ):           1.3143193           0.2780290           0.2366321
 Standard basis: Aug-CC-pVDZ (5D, 7F)
 There are   416 symmetry adapted cartesian basis functions of A   symmetry.
 There are   388 symmetry adapted basis functions of A   symmetry.
   388 basis functions,   782 primitive gaussians,   416 cartesian basis functions
    61 alpha electrons       61 beta electrons
       nuclear repulsion energy      1129.2268767072 Hartrees.
 NAtoms=   20 NActive=   20 NUniq=   20 SFac= 1.00D+00 NAtFMM=   60 NAOKFM=F Big=F
 Integral buffers will be    131072 words long.
 Raffenetti 1 integral format.
 Two-electron integral symmetry is turned on.
 One-electron integrals computed using PRISM.
 NBasis=   388 RedAO= T EigKep=  3.33D-06  NBF=   388
 NBsUse=   388 1.00D-06 EigRej= -1.00D+00 NBFU=   388
 ExpMin= 2.97D-02 ExpMax= 1.11D+05 ExpMxC= 1.07D+03 IAcc=3 IRadAn=         5 AccDes= 0.00D+00
 Harris functional with IExCor=  205 and IRadAn=       5 diagonalized for initial guess.
 HarFok:  IExCor=  205 AccDes= 0.00D+00 IRadAn=         5 IDoV= 1 UseB2=F ITyADJ=14
 ICtDFT=  3500011 ScaDFX=  1.000000  1.000000  1.000000  1.000000
 FoFCou: FMM=F IPFlag=           0 FMFlag=      100000 FMFlg1=           0
         NFxFlg=           0 DoJE=T BraDBF=F KetDBF=T FulRan=T
         wScrn=  0.000000 ICntrl=       500 IOpCl=  0 I1Cent=   200000004 NGrid=           0
         NMat0=    1 NMatS0=      1 NMatT0=    0 NMatD0=    1 NMtDS0=    0 NMtDT0=    0
 Petite list used in FoFCou.
 Requested convergence on RMS density matrix=1.00D-08 within 128 cycles.
 Requested convergence on MAX density matrix=1.00D-06.
 Requested convergence on             energy=1.00D-06.
 No special actions if energy rises.
 SCF Done:  E(RHF) =  -1649.64262453     A.U. after   17 cycles
            NFock= 17  Conv=0.62D-08     -V/T= 2.0000
 ExpMin= 2.97D-02 ExpMax= 1.11D+05 ExpMxC= 1.07D+03 IAcc=3 IRadAn=         5 AccDes= 0.00D+00
 HarFok:  IExCor=  205 AccDes= 0.00D+00 IRadAn=         5 IDoV=-2 UseB2=F ITyADJ=14
 ICtDFT= 12500011 ScaDFX=  1.000000  1.000000  1.000000  1.000000
 GSVD:  LWork=        -884 too small for GESVD, short by        3770 words or        3770 for optimal perf.
 Range of M.O.s used for correlation:    27   388
 NBasis=   388 NAE=    61 NBE=    61 NFC=    26 NFV=     0
 NROrb=    362 NOA=    35 NOB=    35 NVA=   327 NVB=   327

 **** Warning!!: The largest alpha MO coefficient is  0.67225605D+02

 Fully direct method using O(ONN) memory.
 JobTyp=1 Pass  1:  I=  27 to  61 NPSUse=  8 ParTrn=T ParDer=T DoDerP=T.
 Spin components of T(2) and E(2):
     alpha-alpha T2 =       0.1138987921D+00 E2=     -0.2742630644D+00
     alpha-beta  T2 =       0.5544902892D+00 E2=     -0.1421166435D+01
     beta-beta   T2 =       0.1138987921D+00 E2=     -0.2742630644D+00
 ANorm=    0.1335023548D+01
 E2 =    -0.1969692564D+01 EUMP2 =    -0.16516123170900D+04
          IDoAtm=11111111111111111111
          Differentiating once with respect to electric field.
                with respect to dipole field.
          Differentiating once with respect to nuclear coordinates.
 Keep R1 ints in memory in canonical form, NReq=2883857471.
          There are     1 degrees of freedom in the 1st order CPHF.  IDoFFX=0 NUNeed=     1.
 LinEq1:  Iter=  0 NonCon=     1 RMS=2.87D-03 Max=6.14D-02 NDo=     1
 AX will form     1 AO Fock derivatives at one time.
 LinEq1:  Iter=  1 NonCon=     1 RMS=6.76D-04 Max=1.03D-02 NDo=     1
 LinEq1:  Iter=  2 NonCon=     1 RMS=3.47D-04 Max=1.12D-02 NDo=     1
 LinEq1:  Iter=  3 NonCon=     1 RMS=9.17D-05 Max=2.00D-03 NDo=     1
 LinEq1:  Iter=  4 NonCon=     1 RMS=3.55D-05 Max=9.05D-04 NDo=     1
 LinEq1:  Iter=  5 NonCon=     1 RMS=1.50D-05 Max=6.22D-04 NDo=     1
 LinEq1:  Iter=  6 NonCon=     1 RMS=5.92D-06 Max=2.10D-04 NDo=     1
 LinEq1:  Iter=  7 NonCon=     1 RMS=2.98D-06 Max=1.36D-04 NDo=     1
 LinEq1:  Iter=  8 NonCon=     1 RMS=1.08D-06 Max=3.55D-05 NDo=     1
 LinEq1:  Iter=  9 NonCon=     1 RMS=4.95D-07 Max=1.98D-05 NDo=     1
 LinEq1:  Iter= 10 NonCon=     1 RMS=1.86D-07 Max=3.25D-06 NDo=     1
 LinEq1:  Iter= 11 NonCon=     1 RMS=8.13D-08 Max=3.54D-06 NDo=     1
 LinEq1:  Iter= 12 NonCon=     1 RMS=2.97D-08 Max=5.22D-07 NDo=     1
 LinEq1:  Iter= 13 NonCon=     1 RMS=1.17D-08 Max=1.96D-07 NDo=     1
 LinEq1:  Iter= 14 NonCon=     1 RMS=3.64D-09 Max=4.99D-08 NDo=     1
 LinEq1:  Iter= 15 NonCon=     1 RMS=1.52D-09 Max=4.43D-08 NDo=     1
 LinEq1:  Iter= 16 NonCon=     1 RMS=5.83D-10 Max=1.61D-08 NDo=     1
 LinEq1:  Iter= 17 NonCon=     1 RMS=2.40D-10 Max=6.56D-09 NDo=     1
 LinEq1:  Iter= 18 NonCon=     1 RMS=8.79D-11 Max=1.70D-09 NDo=     1
 LinEq1:  Iter= 19 NonCon=     0 RMS=2.87D-11 Max=4.30D-10 NDo=     1
 Linear equations converged to 1.000D-10 1.000D-09 after    19 iterations.
 End of Minotr F.D. properties file   721 does not exist.
 End of Minotr F.D. properties file   722 does not exist.
 End of Minotr F.D. properties file   788 does not exist.

 **********************************************************************

            Population analysis using the SCF Density.

 **********************************************************************

 Orbital symmetries:
       Occupied  (A) (A) (A) (A) (A) (A) (A) (A) (A) (A) (A) (A)
                 (A) (A) (A) (A) (A) (A) (A) (A) (A) (A) (A) (A)
                 (A) (A) (A) (A) (A) (A) (A) (A) (A) (A) (A) (A)
                 (A) (A) (A) (A) (A) (A) (A) (A) (A) (A) (A) (A)
                 (A) (A) (A) (A) (A) (A) (A) (A) (A) (A) (A) (A)
                 (A)
       Virtual   (A) (A) (A) (A) (A) (A) (A) (A) (A) (A) (A) (A)
                 (A) (A) (A) (A) (A) (A) (A) (A) (A) (A) (A) (A)
                 (A) (A) (A) (A) (A) (A) (A) (A) (A) (A) (A) (A)
                 (A) (A) (A) (A) (A) (A) (A) (A) (A) (A) (A) (A)
                 (A) (A) (A) (A) (A) (A) (A) (A) (A) (A) (A) (A)
                 (A) (A) (A) (A) (A) (A) (A) (A) (A) (A) (A) (A)
                 (A) (A) (A) (A) (A) (A) (A) (A) (A) (A) (A) (A)
                 (A) (A) (A) (A) (A) (A) (A) (A) (A) (A) (A) (A)
                 (A) (A) (A) (A) (A) (A) (A) (A) (A) (A) (A) (A)
                 (A) (A) (A) (A) (A) (A) (A) (A) (A) (A) (A) (A)
                 (A) (A) (A) (A) (A) (A) (A) (A) (A) (A) (A) (A)
                 (A) (A) (A) (A) (A) (A) (A) (A) (A) (A) (A) (A)
                 (A) (A) (A) (A) (A) (A) (A) (A) (A) (A) (A) (A)
                 (A) (A) (A) (A) (A) (A) (A) (A) (A) (A) (A) (A)
                 (A) (A) (A) (A) (A) (A) (A) (A) (A) (A) (A) (A)
                 (A) (A) (A) (A) (A) (A) (A) (A) (A) (A) (A) (A)
                 (A) (A) (A) (A) (A) (A) (A) (A) (A) (A) (A) (A)
                 (A) (A) (A) (A) (A) (A) (A) (A) (A) (A) (A) (A)
                 (A) (A) (A) (A) (A) (A) (A) (A) (A) (A) (A) (A)
                 (A) (A) (A) (A) (A) (A) (A) (A) (A) (A) (A) (A)
                 (A) (A) (A) (A) (A) (A) (A) (A) (A) (A) (A) (A)
                 (A) (A) (A) (A) (A) (A) (A) (A) (A) (A) (A) (A)
                 (A) (A) (A) (A) (A) (A) (A) (A) (A) (A) (A) (A)
                 (A) (A) (A) (A) (A) (A) (A) (A) (A) (A) (A) (A)
                 (A) (A) (A) (A) (A) (A) (A) (A) (A) (A) (A) (A)
                 (A) (A) (A) (A) (A) (A) (A) (A) (A) (A) (A) (A)
                 (A) (A) (A) (A) (A) (A) (A) (A) (A) (A) (A) (A)
                 (A) (A) (A)
 The electronic state is 1-A.
 Alpha  occ. eigenvalues --  -91.99121 -91.98596 -91.98534 -20.61261 -11.31811
 Alpha  occ. eigenvalues --  -11.28618 -11.28430 -11.27346 -11.27317 -11.26822
 Alpha  occ. eigenvalues --  -11.26667 -11.25639 -11.25414 -11.24944  -8.99333
 Alpha  occ. eigenvalues --   -8.98780  -8.98716  -6.67502  -6.67410  -6.67210
 Alpha  occ. eigenvalues --   -6.66947  -6.66883  -6.66869  -6.66803  -6.66663
 Alpha  occ. eigenvalues --   -6.66591  -1.43201  -1.21290  -1.18576  -1.12591
 Alpha  occ. eigenvalues --   -1.03052  -1.02020  -0.98841  -0.95527  -0.94256
 Alpha  occ. eigenvalues --   -0.82777  -0.81337  -0.76983  -0.75122  -0.72307
 Alpha  occ. eigenvalues --   -0.69816  -0.66925  -0.66346  -0.62253  -0.61343
 Alpha  occ. eigenvalues --   -0.58378  -0.56332  -0.55983  -0.54162  -0.53084
 Alpha  occ. eigenvalues --   -0.52238  -0.51084  -0.49498  -0.48421  -0.46535
 Alpha  occ. eigenvalues --   -0.45705  -0.38738  -0.35682  -0.33953  -0.31838
 Alpha  occ. eigenvalues --   -0.27825
 Alpha virt. eigenvalues --    0.02710   0.03742   0.03882   0.05106   0.05129
 Alpha virt. eigenvalues --    0.06384   0.07380   0.08258   0.08662   0.09438
 Alpha virt. eigenvalues --    0.10213   0.10507   0.10720   0.11016   0.11452
 Alpha virt. eigenvalues --    0.12463   0.12664   0.12939   0.13040   0.13288
 Alpha virt. eigenvalues --    0.13811   0.14076   0.14442   0.14774   0.15299
 Alpha virt. eigenvalues --    0.15503   0.15638   0.16435   0.16782   0.17117
 Alpha virt. eigenvalues --    0.17986   0.18224   0.18548   0.19145   0.19654
 Alpha virt. eigenvalues --    0.19946   0.20342   0.20867   0.21499   0.22037
 Alpha virt. eigenvalues --    0.22162   0.22349   0.22741   0.23442   0.23784
 Alpha virt. eigenvalues --    0.24107   0.24473   0.25539   0.25600   0.25941
 Alpha virt. eigenvalues --    0.26639   0.26874   0.27089   0.27811   0.28360
 Alpha virt. eigenvalues --    0.29102   0.29483   0.30245   0.31068   0.31345
 Alpha virt. eigenvalues --    0.31805   0.32209   0.32519   0.32737   0.33539
 Alpha virt. eigenvalues --    0.34100   0.34126   0.34973   0.35119   0.35710
 Alpha virt. eigenvalues --    0.36363   0.37187   0.37994   0.38328   0.38961
 Alpha virt. eigenvalues --    0.40126   0.40693   0.41107   0.41483   0.42315
 Alpha virt. eigenvalues --    0.43124   0.43901   0.44824   0.45206   0.45475
 Alpha virt. eigenvalues --    0.46175   0.46738   0.47485   0.48496   0.49113
 Alpha virt. eigenvalues --    0.49462   0.49939   0.50267   0.50919   0.52264
 Alpha virt. eigenvalues --    0.52949   0.53646   0.54342   0.54799   0.55144
 Alpha virt. eigenvalues --    0.56220   0.57714   0.58514   0.59226   0.59970
 Alpha virt. eigenvalues --    0.60854   0.61197   0.61526   0.62167   0.63159
 Alpha virt. eigenvalues --    0.63346   0.63977   0.65038   0.65302   0.66278
 Alpha virt. eigenvalues --    0.66589   0.66960   0.67432   0.67777   0.68026
 Alpha virt. eigenvalues --    0.69054   0.69451   0.69905   0.70747   0.71528
 Alpha virt. eigenvalues --    0.71634   0.72035   0.73017   0.73128   0.74403
 Alpha virt. eigenvalues --    0.74677   0.75073   0.75849   0.76615   0.76716
 Alpha virt. eigenvalues --    0.77409   0.77667   0.78101   0.79045   0.79726
 Alpha virt. eigenvalues --    0.81157   0.82959   0.83531   0.84087   0.84743
 Alpha virt. eigenvalues --    0.85835   0.86307   0.86818   0.87851   0.88129
 Alpha virt. eigenvalues --    0.88591   0.89313   0.90400   0.91542   0.91813
 Alpha virt. eigenvalues --    0.92190   0.93085   0.93863   0.94765   0.95769
 Alpha virt. eigenvalues --    0.96317   0.96733   0.98059   0.98100   0.98803
 Alpha virt. eigenvalues --    0.99603   1.00008   1.01107   1.02364   1.03050
 Alpha virt. eigenvalues --    1.03762   1.05416   1.06352   1.06699   1.08838
 Alpha virt. eigenvalues --    1.10175   1.10669   1.11239   1.12381   1.12998
 Alpha virt. eigenvalues --    1.14352   1.15421   1.16726   1.17265   1.18412
 Alpha virt. eigenvalues --    1.20734   1.21436   1.21738   1.22658   1.23515
 Alpha virt. eigenvalues --    1.24331   1.24874   1.25767   1.27680   1.28336
 Alpha virt. eigenvalues --    1.28888   1.29878   1.30595   1.32017   1.32841
 Alpha virt. eigenvalues --    1.33959   1.34611   1.35183   1.36806   1.37869
 Alpha virt. eigenvalues --    1.39258   1.40320   1.41258   1.41832   1.43065
 Alpha virt. eigenvalues --    1.43484   1.45244   1.47314   1.47987   1.50504
 Alpha virt. eigenvalues --    1.52401   1.53756   1.55520   1.56597   1.56841
 Alpha virt. eigenvalues --    1.58144   1.58803   1.59539   1.61438   1.62657
 Alpha virt. eigenvalues --    1.63512   1.64384   1.66411   1.66818   1.67278
 Alpha virt. eigenvalues --    1.68554   1.69932   1.70592   1.71589   1.72364
 Alpha virt. eigenvalues --    1.73643   1.74277   1.76191   1.77875   1.78028
 Alpha virt. eigenvalues --    1.79860   1.80969   1.81713   1.83048   1.84094
 Alpha virt. eigenvalues --    1.85216   1.86494   1.87262   1.89631   1.89779
 Alpha virt. eigenvalues --    1.91265   1.92138   1.93407   1.94624   1.96818
 Alpha virt. eigenvalues --    1.98198   1.99201   2.00907   2.02513   2.05218
 Alpha virt. eigenvalues --    2.05974   2.07980   2.08328   2.09415   2.10784
 Alpha virt. eigenvalues --    2.11783   2.12945   2.13830   2.14598   2.15463
 Alpha virt. eigenvalues --    2.16670   2.19659   2.21296   2.21539   2.23396
 Alpha virt. eigenvalues --    2.25628   2.26268   2.27881   2.29014   2.32267
 Alpha virt. eigenvalues --    2.33014   2.34342   2.36080   2.36697   2.37656
 Alpha virt. eigenvalues --    2.39884   2.41217   2.42405   2.45189   2.46721
 Alpha virt. eigenvalues --    2.48351   2.49028   2.51630   2.52264   2.53216
 Alpha virt. eigenvalues --    2.56482   2.59546   2.60719   2.63536   2.67937
 Alpha virt. eigenvalues --    2.75069   2.80825   2.84043   2.85926   2.87620
 Alpha virt. eigenvalues --    2.91373   2.95782   2.98257   3.01184   3.06260
 Alpha virt. eigenvalues --    3.14783   3.17934   3.25804   3.26601   3.37981
 Alpha virt. eigenvalues --    3.41214   3.54038   3.60645   3.64430   3.76752
 Alpha virt. eigenvalues --    3.78419   3.80275   3.85531   3.91259   4.18931
 Alpha virt. eigenvalues --    4.26737   4.46865
          Condensed to atoms (all electrons):
               1          2          3          4          5          6
     1  C    8.192451  -2.685013   0.328318  -0.079521  -0.258364  -0.400654
     2  C   -2.685013  12.257540  -2.844376   0.709735   0.219606  -0.347252
     3  C    0.328318  -2.844376  11.613131  -1.349100   0.052438  -0.142799
     4  C   -0.079521   0.709735  -1.349100   6.593217  -0.031601   0.298692
     5  H   -0.258364   0.219606   0.052438  -0.031601   1.661006  -0.026889
     6  S   -0.400654  -0.347252  -0.142799   0.298692  -0.026889  16.245541
     7  H    0.003028   0.074656   0.003106   0.182273  -0.067576  -0.132153
     8  C    0.392997  -0.637133  -1.968624   0.159591  -0.036405   0.072498
     9  S   -0.003471   0.014508  -0.471110  -0.006674  -0.002846   0.141281
    10  C    0.017217   0.023097  -0.235366  -0.003350  -0.002302   0.042554
    11  C   -0.067450   0.099939   0.413270   0.006991   0.002422  -0.011521
    12  C   -0.097641  -0.334714  -0.140790  -0.071659   0.014991  -0.266655
    13  H    0.010763   0.091517  -0.020216   0.007077   0.003182   0.002147
    14  S   -0.000320   0.011429  -0.063715  -0.000308  -0.000119  -0.000096
    15  C    0.000490  -0.006408   0.018223   0.000032   0.000038  -0.001252
    16  C    0.001006  -0.005507  -0.301021  -0.003965  -0.000132   0.020782
    17  H    0.000031   0.000312  -0.000383  -0.000015   0.000002  -0.000130
    18  H   -0.000265   0.001135  -0.009261  -0.000057  -0.000033   0.001077
    19  O    0.146689  -0.869546   0.367985  -0.083841  -0.056245   0.013290
    20  H   -0.105455   0.015567  -0.055590  -0.004562  -0.007367   0.008563
               7          8          9         10         11         12
     1  C    0.003028   0.392997  -0.003471   0.017217  -0.067450  -0.097641
     2  C    0.074656  -0.637133   0.014508   0.023097   0.099939  -0.334714
     3  C    0.003106  -1.968624  -0.471110  -0.235366   0.413270  -0.140790
     4  C    0.182273   0.159591  -0.006674  -0.003350   0.006991  -0.071659
     5  H   -0.067576  -0.036405  -0.002846  -0.002302   0.002422   0.014991
     6  S   -0.132153   0.072498   0.141281   0.042554  -0.011521  -0.266655
     7  H    1.270097   0.013854   0.004786   0.002738   0.000074  -0.007517
     8  C    0.013854  11.734533   0.209332  -0.404994  -0.359425  -3.502581
     9  S    0.004786   0.209332  16.572543   0.310587  -0.618196  -0.504413
    10  C    0.002738  -0.404994   0.310587  11.255473  -1.280768  -0.784395
    11  C    0.000074  -0.359425  -0.618196  -1.280768  12.705316  -3.314777
    12  C   -0.007517  -3.502581  -0.504413  -0.784395  -3.314777  16.307874
    13  H    0.000216   0.560060   0.026469  -0.097296   0.516495  -1.294186
    14  S   -0.000034  -0.331852   0.126354   0.075761  -0.494909   0.143741
    15  C    0.000014   0.063007  -0.100106  -0.049337  -1.102638  -0.025760
    16  C   -0.000245  -0.219965  -0.194083  -2.786085  -0.437236  -0.295580
    17  H    0.000001  -0.000353   0.012411   0.093900  -0.084764   0.034783
    18  H    0.000024   0.078446   0.030065   0.533359   0.049993  -0.052141
    19  O   -0.002524   0.064854   0.001416   0.002262  -0.025498  -0.015044
    20  H    0.001649   0.000340  -0.000948   0.000728  -0.000634   0.015314
              13         14         15         16         17         18
     1  C    0.010763  -0.000320   0.000490   0.001006   0.000031  -0.000265
     2  C    0.091517   0.011429  -0.006408  -0.005507   0.000312   0.001135
     3  C   -0.020216  -0.063715   0.018223  -0.301021  -0.000383  -0.009261
     4  C    0.007077  -0.000308   0.000032  -0.003965  -0.000015  -0.000057
     5  H    0.003182  -0.000119   0.000038  -0.000132   0.000002  -0.000033
     6  S    0.002147  -0.000096  -0.001252   0.020782  -0.000130   0.001077
     7  H    0.000216  -0.000034   0.000014  -0.000245   0.000001   0.000024
     8  C    0.560060  -0.331852   0.063007  -0.219965  -0.000353   0.078446
     9  S    0.026469   0.126354  -0.100106  -0.194083   0.012411   0.030065
    10  C   -0.097296   0.075761  -0.049337  -2.786085   0.093900   0.533359
    11  C    0.516495  -0.494909  -1.102638  -0.437236  -0.084764   0.049993
    12  C   -1.294186   0.143741  -0.025760  -0.295580   0.034783  -0.052141
    13  H    1.746245  -0.052709   0.012540  -0.030883   0.002013   0.000754
    14  S   -0.052709  16.051800   0.209516  -0.094918  -0.152431  -0.001727
    15  C    0.012540   0.209516   6.921656   0.096417   0.204527  -0.117234
    16  C   -0.030883  -0.094918   0.096417  10.322300   0.040727  -0.544191
    17  H    0.002013  -0.152431   0.204527   0.040727   1.296528  -0.069906
    18  H    0.000754  -0.001727  -0.117234  -0.544191  -0.069906   1.419958
    19  O   -0.018551  -0.001116   0.000570   0.001194   0.000003   0.000078
    20  H   -0.002884  -0.000017  -0.000282   0.000767  -0.000010   0.000040
              19         20
     1  C    0.146689  -0.105455
     2  C   -0.869546   0.015567
     3  C    0.367985  -0.055590
     4  C   -0.083841  -0.004562
     5  H   -0.056245  -0.007367
     6  S    0.013290   0.008563
     7  H   -0.002524   0.001649
     8  C    0.064854   0.000340
     9  S    0.001416  -0.000948
    10  C    0.002262   0.000728
    11  C   -0.025498  -0.000634
    12  C   -0.015044   0.015314
    13  H   -0.018551  -0.002884
    14  S   -0.001116  -0.000017
    15  C    0.000570  -0.000282
    16  C    0.001194   0.000767
    17  H    0.000003  -0.000010
    18  H    0.000078   0.000040
    19  O    9.017352   0.368455
    20  H    0.368455   0.592996
 Mulliken charges:
               1
     1  C    0.605165
     2  C    0.210910
     3  C    0.805878
     4  C   -0.322955
     5  H   -0.463807
     6  S    0.482975
     7  H   -0.346467
     8  C    0.111819
     9  S    0.452094
    10  C   -0.713784
    11  C    0.003316
    12  C    0.191149
    13  H   -0.462754
    14  S    0.575670
    15  C   -0.124014
    16  C    0.430616
    17  H   -0.377245
    18  H   -0.320113
    19  O   -0.911784
    20  H    0.173330
 Sum of Mulliken charges =  -0.00000
 Mulliken charges with hydrogens summed into heavy atoms:
               1
     1  C    0.141358
     2  C    0.210910
     3  C    0.805878
     4  C   -0.669422
     6  S    0.482975
     8  C    0.111819
     9  S    0.452094
    10  C   -0.713784
    11  C    0.003316
    12  C   -0.271605
    14  S    0.575670
    15  C   -0.501259
    16  C    0.110503
    19  O   -0.738453
 Electronic spatial extent (au):  <R**2>=           4299.3213
 Charge=             -0.0000 electrons
 Dipole moment (field-independent basis, Debye):
    X=              2.2277    Y=              1.1678    Z=              0.6045  Tot=              2.5868
 Quadrupole moment (field-independent basis, Debye-Ang):
   XX=            -77.6545   YY=            -96.6104   ZZ=           -108.6934
   XY=             10.5804   XZ=              1.0294   YZ=              0.9477
 Traceless Quadrupole moment (field-independent basis, Debye-Ang):
   XX=             16.6650   YY=             -2.2910   ZZ=            -14.3740
   XY=             10.5804   XZ=              1.0294   YZ=              0.9477
 Octapole moment (field-independent basis, Debye-Ang**2):
  XXX=             47.1302  YYY=             26.1437  ZZZ=              4.6498  XYY=             22.9267
  XXY=              5.0220  XXZ=             12.5948  XZZ=              7.5464  YZZ=              7.1838
  YYZ=              9.4533  XYZ=             18.0942
 Hexadecapole moment (field-independent basis, Debye-Ang**3):
 XXXX=          -3992.7105 YYYY=           -912.8285 ZZZZ=           -224.9183 XXXY=            126.8420
 XXXZ=             -3.3542 YYYX=            115.5969 YYYZ=             23.4439 ZZZX=             12.9920
 ZZZY=             12.3844 XXYY=           -854.3614 XXZZ=           -905.5341 YYZZ=           -195.7161
 XXYZ=             36.2333 YYXZ=             21.1904 ZZXY=             17.8290
 N-N= 1.129226876707D+03 E-N=-6.165833016236D+03  KE= 1.649578931745D+03
 Calling FoFJK, ICntrl=  10002127 FMM=F ISym2X=0 I1Cent= 0 IOpClX= 0 NMat=1 NMatS=1 NMatT=0.
 ***** Axes restored to original set *****
 -------------------------------------------------------------------
 Center     Atomic                   Forces (Hartrees/Bohr)
 Number     Number              X              Y              Z
 -------------------------------------------------------------------
      1        6          -0.016914270    0.027416696    0.008298386
      2        6           0.037248146    0.016939703    0.004455430
      3        6          -0.027017450   -0.029479611   -0.007389707
      4        6           0.004298707   -0.027419136   -0.007706860
      5        1           0.007416879    0.007155483    0.001881912
      6       16          -0.005351426   -0.006929611   -0.002055285
      7        1           0.008338597   -0.005757050   -0.001792416
      8        6           0.028990972   -0.023811253    0.006981623
      9       16           0.003849412   -0.008412818    0.002432700
     10        6          -0.007383411   -0.039891991    0.011964611
     11        6           0.009779080    0.039995930   -0.012108636
     12        6          -0.029790254    0.020342862   -0.005595982
     13        1           0.003904534    0.010332815   -0.003400214
     14       16          -0.003272890    0.007671664   -0.002312670
     15        6          -0.014605996    0.023306654   -0.007274176
     16        6           0.027397428   -0.020218341    0.006350910
     17        1          -0.010183022    0.000789629   -0.000266581
     18        1          -0.002975385   -0.009199745    0.002827870
     19        8          -0.034402526    0.003403400   -0.004578467
     20        1           0.020672876    0.013764720    0.009287549
 -------------------------------------------------------------------
 Cartesian Forces:  Max     0.039995930 RMS     0.016550255

 GradGradGradGradGradGradGradGradGradGradGradGradGradGradGradGradGradGrad
 Berny optimization.
 FormGI is forming the generalized inverse of G from B-inverse, IUseBI=4.
 Internal  Forces:  Max     0.043167105 RMS     0.009773703
 Search for a local minimum.
 Step number   1 out of a maximum of  116
 All quantities printed in internal units (Hartrees-Bohrs-Radians)
 Mixed Optimization -- RFO/linear search
 Second derivative matrix not updated -- first step.
 ITU=  0
     Eigenvalues ---    0.01507   0.01576   0.01630   0.01713   0.01751
     Eigenvalues ---    0.01761   0.01981   0.02020   0.02063   0.02132
     Eigenvalues ---    0.02209   0.02271   0.02314   0.02326   0.02373
     Eigenvalues ---    0.02441   0.15999   0.16000   0.16000   0.16000
     Eigenvalues ---    0.16000   0.16000   0.22526   0.22567   0.23649
     Eigenvalues ---    0.24760   0.24783   0.24996   0.24998   0.24999
     Eigenvalues ---    0.25000   0.28884   0.29935   0.30306   0.31048
     Eigenvalues ---    0.31144   0.32563   0.36104   0.36265   0.36346
     Eigenvalues ---    0.36421   0.36453   0.36531   0.39047   0.39314
     Eigenvalues ---    0.39501   0.45904   0.50308   0.52195   0.53542
     Eigenvalues ---    0.54056   0.54594   0.594901000.000001000.00000
     Eigenvalues --- 1000.000001000.000001000.000001000.000001000.00000
     Eigenvalues --- 1000.000001000.000001000.000001000.000001000.00000
     Eigenvalues --- 1000.000001000.000001000.000001000.000001000.00000
     Eigenvalues --- 1000.000001000.000001000.000001000.000001000.00000
     Eigenvalues --- 1000.000001000.000001000.000001000.000001000.00000
     Eigenvalues --- 1000.000001000.000001000.000001000.000001000.00000
     Eigenvalues --- 1000.000001000.000001000.000001000.000001000.00000
     Eigenvalues --- 1000.000001000.000001000.000001000.000001000.00000
     Eigenvalues --- 1000.000001000.000001000.000001000.000001000.00000
     Eigenvalues --- 1000.000001000.000001000.000001000.000001000.00000
     Eigenvalues --- 1000.00000
 RFO step:  Lambda=-1.91996291D-02 EMin= 1.50749343D-02
 Linear search not attempted -- first point.
 Iteration  1 RMS(Cart)=  0.02558795 RMS(Int)=  0.00015265
 Iteration  2 RMS(Cart)=  0.00028493 RMS(Int)=  0.00004505
 Iteration  3 RMS(Cart)=  0.00000004 RMS(Int)=  0.00004505
 Iteration  1 RMS(Cart)=  0.00000582 RMS(Int)=  0.00000233
 Iteration  2 RMS(Cart)=  0.00000319 RMS(Int)=  0.00000260
 Iteration  3 RMS(Cart)=  0.00000175 RMS(Int)=  0.00000294
 Iteration  4 RMS(Cart)=  0.00000096 RMS(Int)=  0.00000316
 Variable       Old X    -DE/DX   Delta X   Delta X   Delta X     New X
                                 (Linear)    (Quad)   (Total)
    R1        2.71447  -0.00259   0.00000  -0.00388  -0.00382   2.71065
    R2        2.54871   0.03917   0.00000   0.06936   0.06939   2.61810
    R3        2.03919   0.01048   0.00000   0.02755   0.02755   2.06675
    R4        2.56325   0.03842   0.00000   0.06953   0.06955   2.63280
    R5        2.55495   0.02163   0.00000   0.03828   0.03828   2.59323
    R6        3.30583   0.00307   0.00000   0.00697   0.00692   3.31275
    R7        2.76679  -0.00575   0.00000  -0.01500  -0.01500   2.75180
    R8        3.25413   0.00757   0.00000   0.01983   0.01979   3.27392
    R9        2.03428   0.01016   0.00000   0.02650   0.02650   2.06078
   R10        3.33000   0.00631   0.00000   0.01717   0.01711   3.34712
   R11        2.55893   0.03880   0.00000   0.06939   0.06941   2.62833
   R12        3.28265   0.00562   0.00000   0.01515   0.01511   3.29776
   R13        2.57682   0.04317   0.00000   0.08232   0.08240   2.65922
   R14        2.70968  -0.00196   0.00000  -0.00220  -0.00214   2.70754
   R15        2.70688  -0.00376   0.00000  -0.00643  -0.00636   2.70053
   R16        3.28209   0.00573   0.00000   0.01553   0.01549   3.29758
   R17        2.03259   0.01153   0.00000   0.03000   0.03000   2.06259
   R18        3.29729   0.00654   0.00000   0.01692   0.01687   3.31416
   R19        2.55058   0.03861   0.00000   0.06784   0.06785   2.61843
   R20        2.03543   0.01013   0.00000   0.02649   0.02649   2.06192
   R21        2.03669   0.01007   0.00000   0.02638   0.02638   2.06307
   R22        1.78046   0.02640   0.00000   0.04298   0.04298   1.82345
    A1        1.95905  -0.00215   0.00000  -0.00270  -0.00261   1.95644
    A2        2.15848   0.00105   0.00000   0.00120   0.00115   2.15964
    A3        2.16565   0.00110   0.00000   0.00149   0.00145   2.16710
    A4        1.98631  -0.00422   0.00000  -0.01119  -0.01110   1.97520
    A5        2.15451   0.00772   0.00000   0.02641   0.02637   2.18087
    A6        2.14233  -0.00349   0.00000  -0.01524  -0.01528   2.12705
    A7        1.91957   0.00353   0.00000   0.01160   0.01157   1.93114
    A8        2.23380  -0.00167   0.00000  -0.00546  -0.00545   2.22835
    A9        2.12981  -0.00186   0.00000  -0.00615  -0.00614   2.12367
   A10        1.95619   0.00058   0.00000   0.00282   0.00282   1.95900
   A11        2.22440   0.00136   0.00000   0.00781   0.00781   2.23221
   A12        2.10256  -0.00195   0.00000  -0.01066  -0.01066   2.09190
   A13        1.60353   0.00226   0.00000  -0.00060  -0.00076   1.60277
   A14        2.10096  -0.00307   0.00000  -0.01084  -0.01084   2.09012
   A15        2.22532  -0.00107   0.00000  -0.00343  -0.00343   2.22189
   A16        1.95677   0.00414   0.00000   0.01416   0.01413   1.97091
   A17        1.58644   0.00117   0.00000  -0.00364  -0.00381   1.58263
   A18        1.93745   0.00190   0.00000   0.00563   0.00559   1.94304
   A19        2.35412   0.00142   0.00000   0.00047   0.00040   2.35453
   A20        1.99161  -0.00332   0.00000  -0.00611  -0.00601   1.98560
   A21        1.99496  -0.00291   0.00000  -0.00447  -0.00435   1.99061
   A22        1.93843   0.00132   0.00000   0.00340   0.00335   1.94178
   A23        2.34972   0.00159   0.00000   0.00106   0.00098   2.35070
   A24        1.94900  -0.00431   0.00000  -0.01176  -0.01165   1.93735
   A25        2.15241   0.00140   0.00000   0.00169   0.00164   2.15405
   A26        2.18176   0.00290   0.00000   0.01007   0.01002   2.19177
   A27        1.58159   0.00245   0.00000   0.00069   0.00056   1.58215
   A28        1.97544   0.00261   0.00000   0.00902   0.00900   1.98445
   A29        2.08850  -0.00262   0.00000  -0.01185  -0.01184   2.07665
   A30        2.21924   0.00001   0.00000   0.00283   0.00284   2.22208
   A31        1.93770  -0.00306   0.00000  -0.00699  -0.00690   1.93080
   A32        2.18355   0.00167   0.00000   0.00429   0.00425   2.18780
   A33        2.16193   0.00139   0.00000   0.00270   0.00266   2.16459
   A34        1.93163  -0.00444   0.00000  -0.02477  -0.02477   1.90686
    D1       -0.00193  -0.00009   0.00000  -0.00389  -0.00387  -0.00580
    D2       -3.13417   0.00003   0.00000  -0.00193  -0.00189  -3.13606
    D3        3.14155  -0.00005   0.00000  -0.00135  -0.00134   3.14021
    D4        0.00931   0.00007   0.00000   0.00061   0.00064   0.00995
    D5        0.01210   0.00021   0.00000   0.00530   0.00532   0.01742
    D6       -3.13943   0.00004   0.00000   0.00206   0.00206  -3.13737
    D7       -3.13139   0.00017   0.00000   0.00274   0.00278  -3.12861
    D8        0.00027  -0.00001   0.00000  -0.00049  -0.00049  -0.00021
    D9       -0.00887  -0.00008   0.00000   0.00063   0.00066  -0.00821
   D10        3.13100  -0.00001   0.00000  -0.00497  -0.00499   3.12601
   D11        3.12345  -0.00013   0.00000  -0.00106  -0.00100   3.12245
   D12       -0.01987  -0.00006   0.00000  -0.00666  -0.00665  -0.02652
   D13       -0.23377   0.00022   0.00000   0.00562   0.00561  -0.22816
   D14        2.91799   0.00035   0.00000   0.00770   0.00771   2.92570
   D15        0.01317   0.00021   0.00000   0.00203   0.00204   0.01521
   D16       -3.12681   0.00015   0.00000   0.00724   0.00729  -3.11952
   D17       -2.53053  -0.00065   0.00000   0.00000  -0.00000  -2.53053
   D18        0.59167  -0.00060   0.00000  -0.00765  -0.00762   0.58405
   D19        0.60915  -0.00058   0.00000  -0.00620  -0.00620   0.60295
   D20       -2.55184  -0.00052   0.00000  -0.01385  -0.01381  -2.56566
   D21       -0.01459  -0.00024   0.00000  -0.00424  -0.00422  -0.01881
   D22        3.13615  -0.00010   0.00000  -0.00137  -0.00137   3.13479
   D23        3.13745   0.00008   0.00000  -0.00270  -0.00269   3.13476
   D24        0.01247   0.00007   0.00000   0.00400   0.00403   0.01649
   D25       -3.12973   0.00005   0.00000   0.00451   0.00455  -3.12518
   D26        0.01650   0.00005   0.00000   0.00499   0.00502   0.02152
   D27       -0.00620   0.00004   0.00000  -0.00283  -0.00285  -0.00905
   D28        3.14003   0.00004   0.00000  -0.00236  -0.00238   3.13765
   D29       -0.01550  -0.00007   0.00000  -0.00387  -0.00387  -0.01938
   D30        3.12941   0.00002   0.00000  -0.00119  -0.00118   3.12823
   D31        0.01523   0.00010   0.00000   0.00314   0.00314   0.01838
   D32       -3.13810   0.00007   0.00000   0.00229   0.00229  -3.13581
   D33       -3.12893   0.00004   0.00000   0.00107   0.00107  -3.12787
   D34        0.00092   0.00001   0.00000   0.00022   0.00022   0.00113
   D35        3.13701  -0.00007   0.00000  -0.00228  -0.00228   3.13473
   D36       -0.00316  -0.00006   0.00000  -0.00227  -0.00226  -0.00542
   D37       -0.00119   0.00001   0.00000   0.00045   0.00044  -0.00075
   D38       -3.14136   0.00002   0.00000   0.00047   0.00046  -3.14090
   D39       -0.00588  -0.00005   0.00000  -0.00010  -0.00009  -0.00598
   D40        3.13098  -0.00005   0.00000  -0.00062  -0.00061   3.13037
   D41       -3.13208   0.00001   0.00000   0.00101   0.00101  -3.13106
   D42        0.00478   0.00001   0.00000   0.00049   0.00050   0.00528
   D43       -0.00033  -0.00002   0.00000  -0.00059  -0.00059  -0.00092
   D44        3.12622  -0.00010   0.00000  -0.00172  -0.00172   3.12450
   D45       -0.00036   0.00003   0.00000   0.00087   0.00087   0.00052
   D46        3.14040   0.00001   0.00000   0.00015   0.00015   3.14055
   D47        0.00091  -0.00002   0.00000  -0.00088  -0.00088   0.00003
   D48        3.14110  -0.00002   0.00000  -0.00090  -0.00090   3.14020
   D49       -3.13977   0.00000   0.00000  -0.00009  -0.00009  -3.13986
   D50        0.00042  -0.00000   0.00000  -0.00010  -0.00010   0.00031
         Item               Value     Threshold  Converged?
 Maximum Force            0.043166     0.000450     NO 
 RMS     Force            0.009820     0.000300     NO 
 Maximum Displacement     0.103671     0.001800     NO 
 RMS     Displacement     0.025526     0.001200     NO 
 Predicted change in Energy=-9.966048D-03
 GradGradGradGradGradGradGradGradGradGradGradGradGradGradGradGradGradGrad

                          Input orientation:                          
 ---------------------------------------------------------------------
 Center     Atomic      Atomic             Coordinates (Angstroms)
 Number     Number       Type             X           Y           Z
 ---------------------------------------------------------------------
      1          6           0        3.944315    0.847557    0.149865
      2          6           0        2.541355    1.127391    0.254482
      3          6           0        1.739128    0.031416   -0.055876
      4          6           0        4.187492   -0.461793   -0.232120
      5          1           0        4.727320    1.583569    0.353119
      6         16           0        2.723929   -1.351405   -0.493019
      7          1           0        5.152192   -0.946861   -0.384726
      8          6           0        0.284894   -0.041226   -0.035611
      9         16           0       -0.513405   -1.545192    0.452262
     10          6           0       -2.080388   -0.812290    0.222505
     11          6           0       -1.963061    0.529867   -0.183765
     12          6           0       -0.614197    0.976096   -0.337547
     13          1           0       -0.307839    1.974933   -0.653430
     14         16           0       -3.530943    1.263560   -0.403934
     15          6           0       -4.318647   -0.236417    0.049195
     16          6           0       -3.435226   -1.258386    0.357534
     17          1           0       -5.408891   -0.277725    0.063515
     18          1           0       -3.742872   -2.260767    0.661602
     19          8           0        2.005797    2.340610    0.607220
     20          1           0        2.702046    2.903064    0.967731
 ---------------------------------------------------------------------
                    Distance matrix (angstroms):
                    1          2          3          4          5
     1  C    0.000000
     2  C    1.434416   0.000000
     3  C    2.360353   1.393216   0.000000
     4  C    1.385440   2.339242   2.503758   0.000000
     5  H    1.093674   2.235234   3.392013   2.194863   0.000000
     6  S    2.595780   2.595481   1.753033   1.732482   3.652889
     7  H    2.228158   3.395228   3.565694   1.090516   2.669832
     8  C    3.770372   2.557624   1.456188   3.930110   4.746180
     9  S    5.068328   4.063665   2.796033   4.872429   6.104438
    10  C    6.249593   5.012374   3.921484   6.294113   7.218178
    11  C    5.925312   4.564960   3.737781   6.230170   6.794095
    12  C    4.586297   3.214171   2.551449   5.013467   5.420134
    13  H    4.471808   3.108140   2.885203   5.130607   5.149673
    14  S    7.507279   6.109407   5.423372   7.910790   8.299063
    15  C    8.334368   6.997267   6.064603   8.513774   9.232240
    16  C    7.676962   6.435998   5.348685   7.686877   8.643141
    17  H    9.421050   8.075719   7.155697   9.602700  10.309756
    18  H    8.307611   7.151005   5.985081   8.180814   9.306892
    19  O    2.489224   1.372278   2.417268   3.649349   2.836260
    20  H    2.537173   1.920302   3.197083   3.868909   2.494103
                    6          7          8          9         10
     6  S    0.000000
     7  H    2.464111   0.000000
     8  C    2.806187   4.963129   0.000000
     9  S    3.378082   5.758258   1.771217   0.000000
    10  C    4.887135   7.259274   2.501144   1.745099   0.000000
    11  C    5.059911   7.269658   2.324090   2.609962   1.407198
    12  C    4.072409   6.078752   1.390853   2.644021   2.379433
    13  H    4.503540   6.198469   2.190418   3.695415   3.417281
    14  S    6.780074   8.960087   4.049535   4.210427   2.608771
    15  C    7.150880   9.507356   4.608458   4.044160   2.317643
    16  C    6.218302   8.625065   3.933870   2.937392   1.432766
    17  H    8.222243  10.591749   5.699556   5.071822   3.374903
    18  H    6.631712   9.052255   4.651383   3.314413   2.248275
    19  O    3.918828   4.657384   3.007970   4.633556   5.175490
    20  H    4.498308   4.759651   3.939310   5.512876   6.101712
                   11         12         13         14         15
    11  C    0.000000
    12  C    1.429056   0.000000
    13  H    2.246901   1.091473   0.000000
    14  S    1.745003   2.931629   3.310091   0.000000
    15  C    2.488022   3.916977   4.633610   1.753777   0.000000
    16  C    2.378681   3.665277   4.610527   2.636135   1.385614
    17  H    3.547830   4.972123   5.622207   2.474016   1.091120
    18  H    3.416139   4.611311   5.609805   3.687975   2.191928
    19  O    4.433540   3.101428   2.660050   5.730441   6.852084
    20  H    5.359218   4.051472   3.542456   6.589354   7.745333
                   16         17         18         19         20
    16  C    0.000000
    17  H    2.223398   0.000000
    18  H    1.091728   2.658154   0.000000
    19  O    6.528388   7.882188   7.363614   0.000000
    20  H    7.440169   8.759128   8.264128   0.964927   0.000000
 Stoichiometry    C10H6OS3
 Framework group  C1[X(C10H6OS3)]
 Deg. of freedom    54
 Full point group                 C1      NOp   1
 Largest Abelian subgroup         C1      NOp   1
 Largest concise Abelian subgroup C1      NOp   1
                         Standard orientation:                         
 ---------------------------------------------------------------------
 Center     Atomic      Atomic             Coordinates (Angstroms)
 Number     Number       Type             X           Y           Z
 ---------------------------------------------------------------------
      1          6           0        3.944092    0.859853    0.149320
      2          6           0        2.540407    1.136229    0.253400
      3          6           0        1.741040    0.037601   -0.054949
      4          6           0        4.190682   -0.449561   -0.230247
      5          1           0        4.725176    1.598274    0.351229
      6         16           0        2.729444   -1.343458   -0.489527
      7          1           0        5.156644   -0.932398   -0.381944
      8          6           0        0.286999   -0.038788   -0.034570
      9         16           0       -0.507393   -1.543923    0.456062
     10          6           0       -2.076274   -0.815525    0.224932
     11          6           0       -1.962430    0.526181   -0.183810
     12          6           0       -0.614729    0.975633   -0.338395
     13          1           0       -0.310964    1.974681   -0.656114
     14         16           0       -3.532212    1.255385   -0.405354
     15          6           0       -4.316020   -0.245798    0.050528
     16          6           0       -3.429949   -1.264895    0.360763
     17          1           0       -5.406153   -0.289916    0.064908
     18          1           0       -3.734992   -2.267510    0.666674
     19          8           0        2.001687    2.348699    0.603893
     20          1           0        2.696463    2.913626    0.963377
 ---------------------------------------------------------------------
 Rotational constants (GHZ):           1.2758924           0.2773032           0.2348197
 Standard basis: Aug-CC-pVDZ (5D, 7F)
 There are   416 symmetry adapted cartesian basis functions of A   symmetry.
 There are   388 symmetry adapted basis functions of A   symmetry.
   388 basis functions,   782 primitive gaussians,   416 cartesian basis functions
    61 alpha electrons       61 beta electrons
       nuclear repulsion energy      1120.8690248198 Hartrees.
 NAtoms=   20 NActive=   20 NUniq=   20 SFac= 1.00D+00 NAtFMM=   60 NAOKFM=F Big=F
 Integral buffers will be    131072 words long.
 Raffenetti 1 integral format.
 Two-electron integral symmetry is turned on.
 One-electron integrals computed using PRISM.
 NBasis=   388 RedAO= T EigKep=  3.72D-06  NBF=   388
 NBsUse=   388 1.00D-06 EigRej= -1.00D+00 NBFU=   388
 Initial guess from the checkpoint file:  "/tmp/pbs.4766300[30].pbs/Gau-550822.chk"
 B after Tr=    -0.000000   -0.000000    0.000000
         Rot=    0.999999    0.000132   -0.000354   -0.001133 Ang=   0.14 deg.
 ExpMin= 2.97D-02 ExpMax= 1.11D+05 ExpMxC= 1.07D+03 IAcc=3 IRadAn=         5 AccDes= 0.00D+00
 Harris functional with IExCor=  205 and IRadAn=       5 diagonalized for initial guess.
 HarFok:  IExCor=  205 AccDes= 0.00D+00 IRadAn=         5 IDoV= 1 UseB2=F ITyADJ=14
 ICtDFT=  3500011 ScaDFX=  1.000000  1.000000  1.000000  1.000000
 FoFCou: FMM=F IPFlag=           0 FMFlag=      100000 FMFlg1=           0
         NFxFlg=           0 DoJE=T BraDBF=F KetDBF=T FulRan=T
         wScrn=  0.000000 ICntrl=       500 IOpCl=  0 I1Cent=   200000004 NGrid=           0
         NMat0=    1 NMatS0=      1 NMatT0=    0 NMatD0=    1 NMtDS0=    0 NMtDT0=    0
 Petite list used in FoFCou.
 Requested convergence on RMS density matrix=1.00D-08 within 128 cycles.
 Requested convergence on MAX density matrix=1.00D-06.
 Requested convergence on             energy=1.00D-06.
 No special actions if energy rises.
 SCF Done:  E(RHF) =  -1649.63335841     A.U. after   15 cycles
            NFock= 15  Conv=0.47D-08     -V/T= 2.0006
 ExpMin= 2.97D-02 ExpMax= 1.11D+05 ExpMxC= 1.07D+03 IAcc=3 IRadAn=         5 AccDes= 0.00D+00
 HarFok:  IExCor=  205 AccDes= 0.00D+00 IRadAn=         5 IDoV=-2 UseB2=F ITyADJ=14
 ICtDFT= 12500011 ScaDFX=  1.000000  1.000000  1.000000  1.000000
 GSVD:  LWork=        -884 too small for GESVD, short by        3770 words or        3770 for optimal perf.
 Range of M.O.s used for correlation:    27   388
 NBasis=   388 NAE=    61 NBE=    61 NFC=    26 NFV=     0
 NROrb=    362 NOA=    35 NOB=    35 NVA=   327 NVB=   327

 **** Warning!!: The largest alpha MO coefficient is  0.60870564D+02

 Fully direct method using O(ONN) memory.
 JobTyp=1 Pass  1:  I=  27 to  61 NPSUse=  8 ParTrn=T ParDer=T DoDerP=T.
 Spin components of T(2) and E(2):
     alpha-alpha T2 =       0.1172655231D+00 E2=     -0.2770911019D+00
     alpha-beta  T2 =       0.5701455067D+00 E2=     -0.1434907189D+01
     beta-beta   T2 =       0.1172655231D+00 E2=     -0.2770911019D+00
 ANorm=    0.1343382504D+01
 E2 =    -0.1989089393D+01 EUMP2 =    -0.16516224478003D+04
          IDoAtm=11111111111111111111
          Differentiating once with respect to electric field.
                with respect to dipole field.
          Differentiating once with respect to nuclear coordinates.
 Keep R1 ints in memory in canonical form, NReq=2883857471.
          There are     1 degrees of freedom in the 1st order CPHF.  IDoFFX=0 NUNeed=     1.
 LinEq1:  Iter=  0 NonCon=     1 RMS=2.90D-03 Max=4.86D-02 NDo=     1
 AX will form     1 AO Fock derivatives at one time.
 LinEq1:  Iter=  1 NonCon=     1 RMS=7.11D-04 Max=9.98D-03 NDo=     1
 LinEq1:  Iter=  2 NonCon=     1 RMS=3.68D-04 Max=1.01D-02 NDo=     1
 LinEq1:  Iter=  3 NonCon=     1 RMS=1.02D-04 Max=2.37D-03 NDo=     1
 LinEq1:  Iter=  4 NonCon=     1 RMS=4.07D-05 Max=8.01D-04 NDo=     1
 LinEq1:  Iter=  5 NonCon=     1 RMS=1.78D-05 Max=7.02D-04 NDo=     1
 LinEq1:  Iter=  6 NonCon=     1 RMS=7.00D-06 Max=2.20D-04 NDo=     1
 LinEq1:  Iter=  7 NonCon=     1 RMS=3.67D-06 Max=1.37D-04 NDo=     1
 LinEq1:  Iter=  8 NonCon=     1 RMS=1.33D-06 Max=4.12D-05 NDo=     1
 LinEq1:  Iter=  9 NonCon=     1 RMS=6.63D-07 Max=2.69D-05 NDo=     1
 LinEq1:  Iter= 10 NonCon=     1 RMS=2.48D-07 Max=3.66D-06 NDo=     1
 LinEq1:  Iter= 11 NonCon=     1 RMS=1.15D-07 Max=4.16D-06 NDo=     1
 LinEq1:  Iter= 12 NonCon=     1 RMS=4.32D-08 Max=9.78D-07 NDo=     1
 LinEq1:  Iter= 13 NonCon=     1 RMS=1.65D-08 Max=2.84D-07 NDo=     1
 LinEq1:  Iter= 14 NonCon=     1 RMS=5.39D-09 Max=7.37D-08 NDo=     1
 LinEq1:  Iter= 15 NonCon=     1 RMS=2.35D-09 Max=6.48D-08 NDo=     1
 LinEq1:  Iter= 16 NonCon=     1 RMS=9.16D-10 Max=2.51D-08 NDo=     1
 LinEq1:  Iter= 17 NonCon=     1 RMS=3.87D-10 Max=9.45D-09 NDo=     1
 LinEq1:  Iter= 18 NonCon=     1 RMS=1.38D-10 Max=2.30D-09 NDo=     1
 LinEq1:  Iter= 19 NonCon=     0 RMS=4.50D-11 Max=6.16D-10 NDo=     1
 Linear equations converged to 1.000D-10 1.000D-09 after    19 iterations.
 End of Minotr F.D. properties file   721 does not exist.
 End of Minotr F.D. properties file   722 does not exist.
 End of Minotr F.D. properties file   788 does not exist.
 Calling FoFJK, ICntrl=  10002127 FMM=F ISym2X=0 I1Cent= 0 IOpClX= 0 NMat=1 NMatS=1 NMatT=0.
 ***** Axes restored to original set *****
 -------------------------------------------------------------------
 Center     Atomic                   Forces (Hartrees/Bohr)
 Number     Number              X              Y              Z
 -------------------------------------------------------------------
      1        6          -0.007874791    0.003873132    0.001372752
      2        6           0.015191855   -0.000900857   -0.001269053
      3        6          -0.007457205   -0.005564692   -0.000964620
      4        6           0.002757198   -0.003839855   -0.000984994
      5        1           0.000645717   -0.000859324   -0.000258732
      6       16          -0.000212371    0.004772668    0.001603457
      7        1          -0.000217766   -0.000000197    0.000002771
      8        6           0.007394246   -0.002558682    0.001023537
      9       16          -0.001366955    0.003440252   -0.001538669
     10        6          -0.006099495   -0.008182333    0.002284098
     11        6           0.005913991    0.008066899   -0.002327548
     12        6          -0.008549637    0.001465447    0.000267750
     13        1           0.001320789   -0.000741214    0.000155484
     14       16           0.000846919   -0.003932947    0.001178083
     15        6          -0.003331037    0.002468554   -0.000722526
     16        6           0.006991576   -0.000186365    0.000040059
     17        1          -0.000054849    0.000147921   -0.000028100
     18        1          -0.000878602    0.000517464   -0.000187842
     19        8          -0.008087986    0.001581024   -0.000253270
     20        1           0.003068402    0.000433104    0.000607361
 -------------------------------------------------------------------
 Cartesian Forces:  Max     0.015191855 RMS     0.004049008

 GradGradGradGradGradGradGradGradGradGradGradGradGradGradGradGradGradGrad
 Berny optimization.
 Using GEDIIS/GDIIS optimizer.
 FormGI is forming the generalized inverse of G from B-inverse, IUseBI=4.
 Internal  Forces:  Max     0.005186434 RMS     0.001610277
 Search for a local minimum.
 Step number   2 out of a maximum of  116
 All quantities printed in internal units (Hartrees-Bohrs-Radians)
 Mixed Optimization -- RFO/linear search
 Update second derivatives using D2CorX and points    1    2
 DE= -1.01D-02 DEPred=-9.97D-03 R= 1.02D+00
 TightC=F SS=  1.41D+00  RLast= 1.96D-01 DXNew= 5.0454D-01 5.8841D-01
 Trust test= 1.02D+00 RLast= 1.96D-01 DXMaxT set to 5.05D-01
 ITU=  1  0
 Use linear search instead of GDIIS.
     Eigenvalues ---    0.01510   0.01575   0.01628   0.01717   0.01750
     Eigenvalues ---    0.01761   0.01981   0.02018   0.02068   0.02140
     Eigenvalues ---    0.02215   0.02270   0.02313   0.02326   0.02375
     Eigenvalues ---    0.02444   0.15780   0.15999   0.16000   0.16000
     Eigenvalues ---    0.16000   0.16032   0.22517   0.22601   0.23702
     Eigenvalues ---    0.24345   0.24771   0.24913   0.24992   0.24999
     Eigenvalues ---    0.25243   0.28934   0.29914   0.30321   0.31065
     Eigenvalues ---    0.31303   0.32641   0.36130   0.36223   0.36296
     Eigenvalues ---    0.36381   0.36475   0.36859   0.38942   0.39373
     Eigenvalues ---    0.39517   0.45419   0.49944   0.51682   0.53070
     Eigenvalues ---    0.53900   0.54810   0.593411000.000001000.00000
     Eigenvalues --- 1000.000001000.000001000.000001000.000001000.00000
     Eigenvalues --- 1000.000001000.000001000.000001000.000001000.00000
     Eigenvalues --- 1000.000001000.000001000.000001000.000001000.00000
     Eigenvalues --- 1000.000001000.000001000.000001000.000001000.00000
     Eigenvalues --- 1000.000001000.000001000.000001000.000001000.00000
     Eigenvalues --- 1000.000001000.000001000.000001000.000001000.00000
     Eigenvalues --- 1000.000001000.000001000.000001000.000001000.00000
     Eigenvalues --- 1000.000001000.000001000.000001000.000001000.00000
     Eigenvalues --- 1000.000001000.000001000.000001000.000001000.00000
     Eigenvalues --- 1000.000001000.000001000.000001000.000001000.00000
     Eigenvalues --- 1000.00000
 RFO step:  Lambda=-8.96917514D-04 EMin= 1.50970523D-02
 Quartic linear search produced a step of  0.10381.
 Iteration  1 RMS(Cart)=  0.01683196 RMS(Int)=  0.00014157
 Iteration  2 RMS(Cart)=  0.00017631 RMS(Int)=  0.00001819
 Iteration  3 RMS(Cart)=  0.00000002 RMS(Int)=  0.00001819
 Iteration  1 RMS(Cart)=  0.00001120 RMS(Int)=  0.00000447
 Iteration  2 RMS(Cart)=  0.00000613 RMS(Int)=  0.00000499
 Iteration  3 RMS(Cart)=  0.00000335 RMS(Int)=  0.00000564
 Iteration  4 RMS(Cart)=  0.00000183 RMS(Int)=  0.00000607
 Iteration  5 RMS(Cart)=  0.00000100 RMS(Int)=  0.00000632
 Iteration  6 RMS(Cart)=  0.00000055 RMS(Int)=  0.00000646
 Variable       Old X    -DE/DX   Delta X   Delta X   Delta X     New X
                                 (Linear)    (Quad)   (Total)
    R1        2.71065  -0.00506  -0.00040  -0.01371  -0.01411   2.69654
    R2        2.61810   0.00274   0.00720   0.00173   0.00893   2.62703
    R3        2.06675  -0.00016   0.00286  -0.00190   0.00096   2.06771
    R4        2.63280   0.00433   0.00722   0.00517   0.01239   2.64519
    R5        2.59323   0.00383   0.00397   0.00568   0.00966   2.60289
    R6        3.31275  -0.00281   0.00072  -0.01045  -0.00972   3.30303
    R7        2.75180  -0.00221  -0.00156  -0.00591  -0.00746   2.74434
    R8        3.27392  -0.00059   0.00205  -0.00293  -0.00088   3.27304
    R9        2.06078  -0.00019   0.00275  -0.00193   0.00082   2.06160
   R10        3.34712  -0.00080   0.00178  -0.00419  -0.00241   3.34471
   R11        2.62833   0.00392   0.00720   0.00418   0.01139   2.63972
   R12        3.29776  -0.00117   0.00157  -0.00479  -0.00322   3.29453
   R13        2.65922   0.00519   0.00855   0.00695   0.01550   2.67472
   R14        2.70754  -0.00349  -0.00022  -0.00928  -0.00951   2.69803
   R15        2.70053  -0.00338  -0.00066  -0.00868  -0.00934   2.69118
   R16        3.29758  -0.00131   0.00161  -0.00516  -0.00354   3.29404
   R17        2.06259  -0.00035   0.00311  -0.00259   0.00053   2.06311
   R18        3.31416  -0.00137   0.00175  -0.00604  -0.00428   3.30987
   R19        2.61843   0.00254   0.00704   0.00130   0.00834   2.62677
   R20        2.06192   0.00005   0.00275  -0.00120   0.00155   2.06347
   R21        2.06307  -0.00028   0.00274  -0.00219   0.00055   2.06362
   R22        1.82345   0.00269   0.00446   0.00267   0.00713   1.83058
    A1        1.95644   0.00045  -0.00027   0.00245   0.00217   1.95861
    A2        2.15964   0.00091   0.00012   0.00653   0.00665   2.16629
    A3        2.16710  -0.00135   0.00015  -0.00899  -0.00883   2.15826
    A4        1.97520   0.00160  -0.00115   0.00767   0.00652   1.98172
    A5        2.18087   0.00269   0.00274   0.01056   0.01330   2.19417
    A6        2.12705  -0.00429  -0.00159  -0.01821  -0.01980   2.10725
    A7        1.93114  -0.00242   0.00120  -0.01109  -0.00991   1.92124
    A8        2.22835   0.00043  -0.00057   0.00202   0.00142   2.22976
    A9        2.12367   0.00200  -0.00064   0.00897   0.00829   2.13196
   A10        1.95900  -0.00185   0.00029  -0.00920  -0.00891   1.95009
   A11        2.23221   0.00103   0.00081   0.00493   0.00574   2.23795
   A12        2.09190   0.00082  -0.00111   0.00424   0.00314   2.09504
   A13        1.60277   0.00222  -0.00008   0.01010   0.01004   1.61282
   A14        2.09012   0.00129  -0.00112   0.00629   0.00512   2.09524
   A15        2.22189   0.00063  -0.00036   0.00303   0.00262   2.22451
   A16        1.97091  -0.00191   0.00147  -0.00970  -0.00827   1.96263
   A17        1.58263   0.00253  -0.00040   0.01078   0.01038   1.59301
   A18        1.94304  -0.00242   0.00058  -0.01081  -0.01024   1.93280
   A19        2.35453   0.00145   0.00004   0.00570   0.00574   2.36027
   A20        1.98560   0.00097  -0.00062   0.00510   0.00447   1.99007
   A21        1.99061   0.00105  -0.00045   0.00506   0.00460   1.99520
   A22        1.94178  -0.00255   0.00035  -0.01091  -0.01055   1.93123
   A23        2.35070   0.00151   0.00010   0.00582   0.00593   2.35663
   A24        1.93735   0.00075  -0.00121   0.00443   0.00321   1.94056
   A25        2.15405  -0.00190   0.00017  -0.01253  -0.01236   2.14170
   A26        2.19177   0.00115   0.00104   0.00808   0.00912   2.20089
   A27        1.58215   0.00231   0.00006   0.01000   0.01007   1.59221
   A28        1.98445  -0.00138   0.00093  -0.00783  -0.00690   1.97755
   A29        2.07665   0.00053  -0.00123   0.00313   0.00191   2.07856
   A30        2.22208   0.00085   0.00030   0.00469   0.00499   2.22707
   A31        1.93080   0.00065  -0.00072   0.00364   0.00291   1.93371
   A32        2.18780   0.00070   0.00044   0.00521   0.00566   2.19345
   A33        2.16459  -0.00136   0.00028  -0.00885  -0.00857   2.15602
   A34        1.90686  -0.00299  -0.00257  -0.01950  -0.02207   1.88479
    D1       -0.00580   0.00007  -0.00040  -0.00195  -0.00234  -0.00814
    D2       -3.13606   0.00006  -0.00020  -0.00404  -0.00424  -3.14030
    D3        3.14021   0.00004  -0.00014   0.00038   0.00026   3.14047
    D4        0.00995   0.00003   0.00007  -0.00171  -0.00164   0.00831
    D5        0.01742   0.00006   0.00055   0.00302   0.00356   0.02098
    D6       -3.13737  -0.00005   0.00021   0.00093   0.00113  -3.13624
    D7       -3.12861   0.00009   0.00029   0.00072   0.00102  -3.12759
    D8       -0.00021  -0.00001  -0.00005  -0.00137  -0.00142  -0.00163
    D9       -0.00821  -0.00017   0.00007  -0.00006  -0.00001  -0.00822
   D10        3.12601  -0.00002  -0.00052  -0.01488  -0.01533   3.11068
   D11        3.12245  -0.00011  -0.00010   0.00216   0.00202   3.12447
   D12       -0.02652   0.00004  -0.00069  -0.01266  -0.01330  -0.03982
   D13       -0.22816   0.00018   0.00058   0.00882   0.00939  -0.21876
   D14        2.92570   0.00013   0.00080   0.00638   0.00718   2.93289
   D15        0.01521   0.00018   0.00021   0.00154   0.00178   0.01700
   D16       -3.11952   0.00005   0.00076   0.01535   0.01611  -3.10341
   D17       -2.53053  -0.00083  -0.00000   0.00000   0.00000  -2.53053
   D18        0.58405  -0.00074  -0.00079  -0.01865  -0.01947   0.56458
   D19        0.60295  -0.00069  -0.00064  -0.01638  -0.01706   0.58589
   D20       -2.56566  -0.00059  -0.00143  -0.03503  -0.03653  -2.60219
   D21       -0.01881  -0.00015  -0.00044  -0.00268  -0.00312  -0.02194
   D22        3.13479  -0.00006  -0.00014  -0.00079  -0.00095   3.13384
   D23        3.13476   0.00013  -0.00028  -0.00514  -0.00538   3.12937
   D24        0.01649   0.00002   0.00042   0.01081   0.01121   0.02770
   D25       -3.12518  -0.00009   0.00047   0.00791   0.00836  -3.11683
   D26        0.02152  -0.00007   0.00052   0.01094   0.01141   0.03293
   D27       -0.00905   0.00004  -0.00030  -0.00947  -0.00972  -0.01877
   D28        3.13765   0.00006  -0.00025  -0.00644  -0.00667   3.13098
   D29       -0.01938  -0.00004  -0.00040  -0.00900  -0.00939  -0.02876
   D30        3.12823  -0.00001  -0.00012  -0.00425  -0.00437   3.12385
   D31        0.01838   0.00006   0.00033   0.00545   0.00575   0.02412
   D32       -3.13581   0.00002   0.00024   0.00391   0.00412  -3.13169
[...]
 Center     Atomic      Atomic             Coordinates (Angstroms)
 Number     Number       Type             X           Y           Z
 ---------------------------------------------------------------------
      1          6           0        3.936785    0.872072    0.172376
      2          6           0        2.541260    1.141832    0.234668
      3          6           0        1.740236    0.035878   -0.081354
      4          6           0        4.201664   -0.446902   -0.182195
      5          1           0        4.718772    1.607065    0.381996
      6         16           0        2.746258   -1.339214   -0.462497
      7          1           0        5.170866   -0.929556   -0.307228
      8          6           0        0.291872   -0.045142   -0.062543
      9         16           0       -0.506263   -1.548409    0.417921
     10          6           0       -2.078491   -0.826750    0.211521
     11          6           0       -1.959696    0.530301   -0.179852
     12          6           0       -0.620144    0.977353   -0.338591
     13          1           0       -0.303185    1.976101   -0.642165
     14         16           0       -3.533235    1.253132   -0.372490
     15          6           0       -4.318147   -0.247793    0.064785
     16          6           0       -3.424596   -1.273348    0.350860
     17          1           0       -5.408080   -0.290000    0.088396
     18          1           0       -3.738590   -2.277229    0.642164
     19          8           0        1.965508    2.352298    0.561318
     20          1           0        2.663528    2.942103    0.881304
 ---------------------------------------------------------------------
 Rotational constants (GHZ):           1.2846076           0.2777534           0.2345494

 **********************************************************************

            Population analysis using the SCF Density.

 **********************************************************************

 Orbital symmetries:
       Occupied  (A) (A) (A) (A) (A) (A) (A) (A) (A) (A) (A) (A)
                 (A) (A) (A) (A) (A) (A) (A) (A) (A) (A) (A) (A)
                 (A) (A) (A) (A) (A) (A) (A) (A) (A) (A) (A) (A)
                 (A) (A) (A) (A) (A) (A) (A) (A) (A) (A) (A) (A)
                 (A) (A) (A) (A) (A) (A) (A) (A) (A) (A) (A) (A)
                 (A)
       Virtual   (A) (A) (A) (A) (A) (A) (A) (A) (A) (A) (A) (A)
                 (A) (A) (A) (A) (A) (A) (A) (A) (A) (A) (A) (A)
                 (A) (A) (A) (A) (A) (A) (A) (A) (A) (A) (A) (A)
                 (A) (A) (A) (A) (A) (A) (A) (A) (A) (A) (A) (A)
                 (A) (A) (A) (A) (A) (A) (A) (A) (A) (A) (A) (A)
                 (A) (A) (A) (A) (A) (A) (A) (A) (A) (A) (A) (A)
                 (A) (A) (A) (A) (A) (A) (A) (A) (A) (A) (A) (A)
                 (A) (A) (A) (A) (A) (A) (A) (A) (A) (A) (A) (A)
                 (A) (A) (A) (A) (A) (A) (A) (A) (A) (A) (A) (A)
                 (A) (A) (A) (A) (A) (A) (A) (A) (A) (A) (A) (A)
                 (A) (A) (A) (A) (A) (A) (A) (A) (A) (A) (A) (A)
                 (A) (A) (A) (A) (A) (A) (A) (A) (A) (A) (A) (A)
                 (A) (A) (A) (A) (A) (A) (A) (A) (A) (A) (A) (A)
                 (A) (A) (A) (A) (A) (A) (A) (A) (A) (A) (A) (A)
                 (A) (A) (A) (A) (A) (A) (A) (A) (A) (A) (A) (A)
                 (A) (A) (A) (A) (A) (A) (A) (A) (A) (A) (A) (A)
                 (A) (A) (A) (A) (A) (A) (A) (A) (A) (A) (A) (A)
                 (A) (A) (A) (A) (A) (A) (A) (A) (A) (A) (A) (A)
                 (A) (A) (A) (A) (A) (A) (A) (A) (A) (A) (A) (A)
                 (A) (A) (A) (A) (A) (A) (A) (A) (A) (A) (A) (A)
                 (A) (A) (A) (A) (A) (A) (A) (A) (A) (A) (A) (A)
                 (A) (A) (A) (A) (A) (A) (A) (A) (A) (A) (A) (A)
                 (A) (A) (A) (A) (A) (A) (A) (A) (A) (A) (A) (A)
                 (A) (A) (A) (A) (A) (A) (A) (A) (A) (A) (A) (A)
                 (A) (A) (A) (A) (A) (A) (A) (A) (A) (A) (A) (A)
                 (A) (A) (A) (A) (A) (A) (A) (A) (A) (A) (A) (A)
                 (A) (A) (A) (A) (A) (A) (A) (A) (A) (A) (A) (A)
                 (A) (A) (A)
 The electronic state is 1-A.
 Alpha  occ. eigenvalues --  -91.99746 -91.99024 -91.99003 -20.61686 -11.32498
 Alpha  occ. eigenvalues --  -11.29274 -11.29143 -11.28037 -11.27977 -11.27585
 Alpha  occ. eigenvalues --  -11.27449 -11.26549 -11.26140 -11.25661  -8.99890
 Alpha  occ. eigenvalues --   -8.99137  -8.99116  -6.68055  -6.67964  -6.67776
 Alpha  occ. eigenvalues --   -6.67302  -6.67282  -6.67222  -6.67199  -6.67026
 Alpha  occ. eigenvalues --   -6.66996  -1.41677  -1.20174  -1.17702  -1.11589
 Alpha  occ. eigenvalues --   -1.02386  -1.01971  -0.98933  -0.94435  -0.93784
 Alpha  occ. eigenvalues --   -0.82588  -0.80548  -0.76334  -0.73846  -0.71975
 Alpha  occ. eigenvalues --   -0.69523  -0.66367  -0.65684  -0.61184  -0.60558
 Alpha  occ. eigenvalues --   -0.58298  -0.56354  -0.55551  -0.54271  -0.52963
 Alpha  occ. eigenvalues --   -0.52159  -0.50805  -0.49807  -0.48369  -0.46104
 Alpha  occ. eigenvalues --   -0.45732  -0.38876  -0.35384  -0.33830  -0.31816
 Alpha  occ. eigenvalues --   -0.26364
 Alpha virt. eigenvalues --    0.02716   0.03751   0.03856   0.05088   0.05107
 Alpha virt. eigenvalues --    0.05923   0.06577   0.08182   0.08608   0.09431
 Alpha virt. eigenvalues --    0.10257   0.10461   0.10574   0.10843   0.11349
 Alpha virt. eigenvalues --    0.12352   0.12597   0.12916   0.13055   0.13216
 Alpha virt. eigenvalues --    0.13815   0.14028   0.14467   0.14779   0.15165
 Alpha virt. eigenvalues --    0.15517   0.15645   0.16372   0.16762   0.17057
 Alpha virt. eigenvalues --    0.17894   0.18151   0.18452   0.19081   0.19541
 Alpha virt. eigenvalues --    0.19729   0.20325   0.20738   0.21356   0.21927
 Alpha virt. eigenvalues --    0.22021   0.22138   0.22562   0.23373   0.23612
 Alpha virt. eigenvalues --    0.24133   0.24331   0.25491   0.25506   0.25789
 Alpha virt. eigenvalues --    0.26455   0.26724   0.27093   0.27844   0.28237
 Alpha virt. eigenvalues --    0.29004   0.29363   0.30166   0.30705   0.31219
 Alpha virt. eigenvalues --    0.31664   0.32225   0.32440   0.32658   0.33443
 Alpha virt. eigenvalues --    0.33766   0.34147   0.34716   0.34826   0.35556
 Alpha virt. eigenvalues --    0.36059   0.36877   0.37767   0.38101   0.38812
 Alpha virt. eigenvalues --    0.39929   0.40560   0.40910   0.41148   0.42001
 Alpha virt. eigenvalues --    0.43057   0.43384   0.44580   0.44750   0.45123
 Alpha virt. eigenvalues --    0.45851   0.46611   0.46918   0.48025   0.49012
 Alpha virt. eigenvalues --    0.49230   0.49406   0.49982   0.50759   0.51990
 Alpha virt. eigenvalues --    0.52798   0.53213   0.53888   0.54633   0.54810
 Alpha virt. eigenvalues --    0.55555   0.57222   0.57815   0.58849   0.59492
 Alpha virt. eigenvalues --    0.60385   0.60799   0.60959   0.61528   0.62800
 Alpha virt. eigenvalues --    0.63423   0.63499   0.64841   0.64918   0.65751
 Alpha virt. eigenvalues --    0.66066   0.66366   0.66630   0.67479   0.67910
 Alpha virt. eigenvalues --    0.68483   0.68802   0.69498   0.70325   0.71251
 Alpha virt. eigenvalues --    0.71303   0.71704   0.72319   0.73004   0.73672
 Alpha virt. eigenvalues --    0.74242   0.74770   0.75106   0.75885   0.76354
 Alpha virt. eigenvalues --    0.76953   0.77364   0.77540   0.77847   0.79050
 Alpha virt. eigenvalues --    0.80650   0.82832   0.83367   0.83830   0.84764
 Alpha virt. eigenvalues --    0.85586   0.85936   0.86308   0.87647   0.87877
 Alpha virt. eigenvalues --    0.88126   0.89160   0.90166   0.90988   0.91466
 Alpha virt. eigenvalues --    0.91923   0.92863   0.93122   0.93954   0.95078
 Alpha virt. eigenvalues --    0.95870   0.96205   0.96812   0.97851   0.98237
 Alpha virt. eigenvalues --    0.99146   0.99388   1.00675   1.01799   1.02531
 Alpha virt. eigenvalues --    1.03707   1.04550   1.05666   1.06349   1.08171
 Alpha virt. eigenvalues --    1.09437   1.10275   1.10754   1.12002   1.12502
 Alpha virt. eigenvalues --    1.13930   1.15177   1.16026   1.16866   1.17881
 Alpha virt. eigenvalues --    1.19666   1.20480   1.21075   1.22243   1.22922
 Alpha virt. eigenvalues --    1.24141   1.24696   1.25320   1.27505   1.28094
 Alpha virt. eigenvalues --    1.28378   1.29436   1.30045   1.31280   1.32354
 Alpha virt. eigenvalues --    1.33357   1.33914   1.35325   1.36484   1.36868
 Alpha virt. eigenvalues --    1.38351   1.39687   1.40690   1.41371   1.42726
 Alpha virt. eigenvalues --    1.43290   1.45087   1.47170   1.47791   1.50044
 Alpha virt. eigenvalues --    1.52345   1.53195   1.54960   1.56133   1.57310
 Alpha virt. eigenvalues --    1.57816   1.58735   1.59760   1.61722   1.62381
 Alpha virt. eigenvalues --    1.63586   1.64015   1.66241   1.66810   1.66905
 Alpha virt. eigenvalues --    1.68062   1.69013   1.70388   1.71113   1.72073
 Alpha virt. eigenvalues --    1.73199   1.73813   1.75419   1.77404   1.77619
 Alpha virt. eigenvalues --    1.79648   1.80275   1.81079   1.82434   1.83565
 Alpha virt. eigenvalues --    1.84739   1.85921   1.86282   1.88447   1.89339
 Alpha virt. eigenvalues --    1.90512   1.91263   1.92724   1.93906   1.95991
 Alpha virt. eigenvalues --    1.97234   1.98869   1.99704   2.01467   2.03917
 Alpha virt. eigenvalues --    2.04543   2.06856   2.07326   2.08421   2.09353
 Alpha virt. eigenvalues --    2.10439   2.11655   2.12442   2.12945   2.14323
 Alpha virt. eigenvalues --    2.15412   2.17824   2.18855   2.19933   2.22178
 Alpha virt. eigenvalues --    2.23926   2.24881   2.26128   2.27730   2.30171
 Alpha virt. eigenvalues --    2.30926   2.32036   2.33732   2.34453   2.35820
 Alpha virt. eigenvalues --    2.37191   2.39589   2.40993   2.42670   2.44378
 Alpha virt. eigenvalues --    2.45726   2.46325   2.48201   2.49565   2.51255
 Alpha virt. eigenvalues --    2.53913   2.56977   2.57578   2.59503   2.64737
 Alpha virt. eigenvalues --    2.71420   2.76175   2.79889   2.81051   2.83812
 Alpha virt. eigenvalues --    2.86515   2.90789   2.93729   2.96810   3.03477
 Alpha virt. eigenvalues --    3.13921   3.14648   3.22238   3.23887   3.33078
 Alpha virt. eigenvalues --    3.36004   3.47898   3.54554   3.59552   3.76253
 Alpha virt. eigenvalues --    3.77337   3.77737   3.84639   3.91628   4.16448
 Alpha virt. eigenvalues --    4.25295   4.42822
          Condensed to atoms (all electrons):
               1          2          3          4          5          6
     1  C    7.882126  -2.457849   0.116467   0.153179  -0.119287  -0.314392
     2  C   -2.457849  11.281479  -1.915943   0.500256   0.187429  -0.391071
     3  C    0.116467  -1.915943  10.978120  -1.179376   0.041533  -0.136143
     4  C    0.153179   0.500256  -1.179376   6.383678  -0.073768   0.268776
     5  H   -0.119287   0.187429   0.041533  -0.073768   1.552299  -0.025862
     6  S   -0.314392  -0.391071  -0.136143   0.268776  -0.025862  16.227358
     7  H   -0.056759   0.061534   0.007421   0.263989  -0.061682  -0.121370
     8  C    0.388929  -0.739635  -2.074633   0.187977  -0.032184   0.068314
     9  S    0.010963  -0.001227  -0.438665  -0.015833  -0.002219   0.137700
    10  C    0.014330   0.000993  -0.106473  -0.002970  -0.002163   0.044254
    11  C   -0.068767   0.114139   0.288656   0.000930   0.001932  -0.023512
    12  C   -0.105953  -0.261089  -0.236091  -0.064334   0.012023  -0.256833
    13  H    0.005865   0.087175   0.008782   0.006110   0.002761   0.002836
    14  S   -0.000824   0.009964  -0.057555  -0.000234  -0.000107  -0.000020
    15  C    0.000671  -0.004818   0.015277  -0.000143   0.000040  -0.001378
    16  C    0.000873  -0.005542  -0.300216  -0.003450  -0.000141   0.023958
    17  H    0.000038   0.000284  -0.000549  -0.000023   0.000002  -0.000110
    18  H   -0.000307   0.000842  -0.007351  -0.000036  -0.000033   0.001060
    19  O    0.118403  -0.815929   0.319076  -0.064553  -0.051223   0.016782
    20  H   -0.110881   0.012909  -0.026545  -0.006763  -0.007733   0.008525
               7          8          9         10         11         12
     1  C   -0.056759   0.388929   0.010963   0.014330  -0.068767  -0.105953
     2  C    0.061534  -0.739635  -0.001227   0.000993   0.114139  -0.261089
     3  C    0.007421  -2.074633  -0.438665  -0.106473   0.288656  -0.236091
     4  C    0.263989   0.187977  -0.015833  -0.002970   0.000930  -0.064334
     5  H   -0.061682  -0.032184  -0.002219  -0.002163   0.001932   0.012023
     6  S   -0.121370   0.068314   0.137700   0.044254  -0.023512  -0.256833
     7  H    1.218915   0.011389   0.004654   0.002848  -0.000371  -0.006486
     8  C    0.011389  11.045763   0.175377  -0.393614  -0.398668  -2.616264
     9  S    0.004654   0.175377  16.471553   0.234431  -0.462742  -0.459572
    10  C    0.002848  -0.393614   0.234431  10.287237  -0.465427  -0.538792
    11  C   -0.000371  -0.398668  -0.462742  -0.465427  11.298035  -3.097758
    12  C   -0.006486  -2.616264  -0.459572  -0.538792  -3.097758  14.854549
    13  H    0.000167   0.444926   0.020852  -0.084051   0.414488  -1.026858
    14  S   -0.000032  -0.295465   0.115464   0.090228  -0.400573   0.061105
    15  C    0.000002   0.050931  -0.089911  -0.115706  -0.883882   0.007347
    16  C   -0.000200  -0.140670  -0.216678  -2.854373  -0.271699  -0.274540
    17  H   -0.000000  -0.000283   0.009235   0.061612  -0.066750   0.033636
    18  H    0.000024   0.068977   0.034846   0.479374   0.022806  -0.049681
    19  O   -0.002394   0.063038   0.000678   0.006517  -0.036218  -0.002163
    20  H    0.001409  -0.004872  -0.000881   0.000647   0.000732   0.015488
              13         14         15         16         17         18
     1  C    0.005865  -0.000824   0.000671   0.000873   0.000038  -0.000307
     2  C    0.087175   0.009964  -0.004818  -0.005542   0.000284   0.000842
     3  C    0.008782  -0.057555   0.015277  -0.300216  -0.000549  -0.007351
     4  C    0.006110  -0.000234  -0.000143  -0.003450  -0.000023  -0.000036
     5  H    0.002761  -0.000107   0.000040  -0.000141   0.000002  -0.000033
     6  S    0.002836  -0.000020  -0.001378   0.023958  -0.000110   0.001060
     7  H    0.000167  -0.000032   0.000002  -0.000200  -0.000000   0.000024
     8  C    0.444926  -0.295465   0.050931  -0.140670  -0.000283   0.068977
     9  S    0.020852   0.115464  -0.089911  -0.216678   0.009235   0.034846
    10  C   -0.084051   0.090228  -0.115706  -2.854373   0.061612   0.479374
    11  C    0.414488  -0.400573  -0.883882  -0.271699  -0.066750   0.022806
    12  C   -1.026858   0.061105   0.007347  -0.274540   0.033636  -0.049681
    13  H    1.626932  -0.050386   0.012141  -0.035252   0.001768   0.000346
    14  S   -0.050386  15.970531   0.202615  -0.075090  -0.144582  -0.000413
    15  C    0.012141   0.202615   6.531981   0.276628   0.294930  -0.131213
    16  C   -0.035252  -0.075090   0.276628   9.906094  -0.022828  -0.405275
    17  H    0.001768  -0.144582   0.294930  -0.022828   1.247010  -0.061470
    18  H    0.000346  -0.000413  -0.131213  -0.405275  -0.061470   1.337702
    19  O   -0.020762  -0.001333   0.000546   0.001492   0.000005   0.000072
    20  H   -0.002561  -0.000051  -0.000244   0.000741  -0.000010   0.000039
              19         20
     1  C    0.118403  -0.110881
     2  C   -0.815929   0.012909
     3  C    0.319076  -0.026545
     4  C   -0.064553  -0.006763
     5  H   -0.051223  -0.007733
     6  S    0.016782   0.008525
     7  H   -0.002394   0.001409
     8  C    0.063038  -0.004872
     9  S    0.000678  -0.000881
    10  C    0.006517   0.000647
    11  C   -0.036218   0.000732
    12  C   -0.002163   0.015488
    13  H   -0.020762  -0.002561
    14  S   -0.001333  -0.000051
    15  C    0.000546  -0.000244
    16  C    0.001492   0.000741
    17  H    0.000005  -0.000010
    18  H    0.000072   0.000039
    19  O    9.078836   0.353486
    20  H    0.353486   0.559001
 Mulliken charges:
               1
     1  C    0.543177
     2  C    0.336099
     3  C    0.704210
     4  C   -0.353413
     5  H   -0.421616
     6  S    0.471127
     7  H   -0.323057
     8  C    0.190665
     9  S    0.471976
    10  C   -0.658903
    11  C    0.034650
    12  C    0.012266
    13  H   -0.415279
    14  S    0.576759
    15  C   -0.165813
    16  C    0.396170
    17  H   -0.351914
    18  H   -0.290311
    19  O   -0.964357
    20  H    0.207564
 Sum of Mulliken charges =  -0.00000
 Mulliken charges with hydrogens summed into heavy atoms:
               1
     1  C    0.121561
     2  C    0.336099
     3  C    0.704210
     4  C   -0.676470
     6  S    0.471127
     8  C    0.190665
     9  S    0.471976
    10  C   -0.658903
    11  C    0.034650
    12  C   -0.403014
    14  S    0.576759
    15  C   -0.517727
    16  C    0.105859
    19  O   -0.756793
 Electronic spatial extent (au):  <R**2>=           4328.7805
 Charge=             -0.0000 electrons
 Dipole moment (field-independent basis, Debye):
    X=              2.2924    Y=              1.0924    Z=              0.5633  Tot=              2.6011
 Quadrupole moment (field-independent basis, Debye-Ang):
   XX=            -78.1924   YY=            -95.7404   ZZ=           -109.6975
   XY=             10.1507   XZ=              1.0216   YZ=              0.6918
 Traceless Quadrupole moment (field-independent basis, Debye-Ang):
   XX=             16.3511   YY=             -1.1969   ZZ=            -15.1541
   XY=             10.1507   XZ=              1.0216   YZ=              0.6918
 Octapole moment (field-independent basis, Debye-Ang**2):
  XXX=             47.6122  YYY=             27.3622  ZZZ=              3.7519  XYY=             24.1357
  XXY=              5.5808  XXZ=             13.3251  XZZ=              6.5473  YZZ=              6.4748
  YYZ=              9.3148  XYZ=             17.8437
 Hexadecapole moment (field-independent basis, Debye-Ang**3):
 XXXX=          -4028.0370 YYYY=           -932.5291 ZZZZ=           -216.8235 XXXY=            116.6510
 XXXZ=              1.2073 YYYX=            119.3921 YYYZ=             21.9590 ZZZX=             11.3624
 ZZZY=             10.7369 XXYY=           -855.0030 XXZZ=           -920.0072 YYZZ=           -202.2246
 XXYZ=             33.0302 YYXZ=             20.0436 ZZXY=             14.4322
 N-N= 1.121695843955D+03 E-N=-6.149897965158D+03  KE= 1.648698311973D+03
 Unable to Open any file for archive entry.
 1\1\GINC-CX3-11-3\FOpt\RMP2-FC\Aug-CC-pVDZ\C10H6O1S3\NS5018\27-Oct-202
 1\0\\# opt=modredundant mp2/aug-cc-pvdz\\pBTTT_-145.pdb\\0,1\C,3.94049
 16761,0.8492862748,0.1663361534\C,2.5464742783,1.1251019437,0.23547927
 21\C,1.7391938488,0.0261096435,-0.0887987377\C,4.1979564098,-0.4674399
 845,-0.2017916282\H,4.7266313383,1.5784628521,0.3806843668\S,2.7374403
 848,-1.3500197101,-0.4862943919\H,5.1644456078,-0.9534893107,-0.334437
 5961\C,0.2905195049,-0.0481595026,-0.0663704551\S,-0.5133991226,-1.552
 1801904,0.4019411611\C,-2.0827464864,-0.8210408369,0.2073189424\C,-1.9
 585936022,0.5391572608,-0.1712565383\C,-0.6173872186,0.9813146304,-0.3
 297315525\H,-0.296535015,1.9814319878,-0.6245835292\S,-3.5292049809,1.
 2713419507,-0.3521030997\C,-4.3200199911,-0.2299803345,0.0730045752\C,
 -3.4305628488,-1.2625245167,0.3464183204\H,-5.410067865,-0.2672007382,
 0.0995191414\H,-3.7485111656,-2.2676692081,0.62894268\O,1.9775349602,2
 .3350845981,0.57558267\H,2.6793402872,2.9184131909,0.899140246\\Versio
 n=ES64L-G16RevC.01\State=1-A\HF=-1649.6307611\MP2=-1651.6231225\RMSD=9
 .508e-09\RMSF=3.230e-04\Dipole=0.7046502,0.3661175,0.1969944\PG=C01 [X
 (C10H6O1S3)]\\@
 The archive entry for this job was punched.


 I take a simple view of life: keep your eyes open and get on with it.
 -- Laurence Olivier
 Job cpu time:       0 days 10 hours 33 minutes 13.3 seconds.
 Elapsed time:       0 days  1 hours 26 minutes 13.6 seconds.
 File lengths (MBytes):  RWF=    106 Int=      0 D2E=      0 Chk=     16 Scr=      1
 Normal termination of Gaussian 16 at Wed Oct 27 05:27:01 2021.
