 Entering Gaussian System, Link 0=g16
 Input=pBTTT_-115.gjf
 Output=pBTTT_-115.log
 Initial command:
 /apps/gaussian/g16-c01-avx/g16/l1.exe "/tmp/pbs.4766300[60].pbs/Gau-4101798.inp" -scrdir="/tmp/pbs.4766300[60].pbs/"
 Entering Link 1 = /apps/gaussian/g16-c01-avx/g16/l1.exe PID=   4101800.
  
 Copyright (c) 1988-2019, Gaussian, Inc.  All Rights Reserved.
  
 This is part of the Gaussian(R) 16 program.  It is based on
 the Gaussian(R) 09 system (copyright 2009, Gaussian, Inc.),
 the Gaussian(R) 03 system (copyright 2003, Gaussian, Inc.),
 the Gaussian(R) 98 system (copyright 1998, Gaussian, Inc.),
 the Gaussian(R) 94 system (copyright 1995, Gaussian, Inc.),
 the Gaussian 92(TM) system (copyright 1992, Gaussian, Inc.),
 the Gaussian 90(TM) system (copyright 1990, Gaussian, Inc.),
 the Gaussian 88(TM) system (copyright 1988, Gaussian, Inc.),
 the Gaussian 86(TM) system (copyright 1986, Carnegie Mellon
 University), and the Gaussian 82(TM) system (copyright 1983,
 Carnegie Mellon University). Gaussian is a federally registered
 trademark of Gaussian, Inc.
  
 This software contains proprietary and confidential information,
 including trade secrets, belonging to Gaussian, Inc.
  
 This software is provided under written license and may be
 used, copied, transmitted, or stored only in accord with that
 written license.
  
 The following legend is applicable only to US Government
 contracts under FAR:
  
                    RESTRICTED RIGHTS LEGEND
  
 Use, reproduction and disclosure by the US Government is
 subject to restrictions as set forth in subparagraphs (a)
 and (c) of the Commercial Computer Software - Restricted
 Rights clause in FAR 52.227-19.
  
 Gaussian, Inc.
 340 Quinnipiac St., Bldg. 40, Wallingford CT 06492
  
  
 ---------------------------------------------------------------
 Warning -- This program may not be used in any manner that
 competes with the business of Gaussian, Inc. or will provide
 assistance to any competitor of Gaussian, Inc.  The licensee
 of this program is prohibited from giving any competitor of
 Gaussian, Inc. access to this program.  By using this program,
 the user acknowledges that Gaussian, Inc. is engaged in the
 business of creating and licensing software in the field of
 computational chemistry and represents and warrants to the
 licensee that it is not a competitor of Gaussian, Inc. and that
 it will not use this program in any manner prohibited above.
 ---------------------------------------------------------------
  

 Cite this work as:
 Gaussian 16, Revision C.01,
 M. J. Frisch, G. W. Trucks, H. B. Schlegel, G. E. Scuseria, 
 M. A. Robb, J. R. Cheeseman, G. Scalmani, V. Barone, 
 G. A. Petersson, H. Nakatsuji, X. Li, M. Caricato, A. V. Marenich, 
 J. Bloino, B. G. Janesko, R. Gomperts, B. Mennucci, H. P. Hratchian, 
 J. V. Ortiz, A. F. Izmaylov, J. L. Sonnenberg, D. Williams-Young, 
 F. Ding, F. Lipparini, F. Egidi, J. Goings, B. Peng, A. Petrone, 
 T. Henderson, D. Ranasinghe, V. G. Zakrzewski, J. Gao, N. Rega, 
 G. Zheng, W. Liang, M. Hada, M. Ehara, K. Toyota, R. Fukuda, 
 J. Hasegawa, M. Ishida, T. Nakajima, Y. Honda, O. Kitao, H. Nakai, 
 T. Vreven, K. Throssell, J. A. Montgomery, Jr., J. E. Peralta, 
 F. Ogliaro, M. J. Bearpark, J. J. Heyd, E. N. Brothers, K. N. Kudin, 
 V. N. Staroverov, T. A. Keith, R. Kobayashi, J. Normand, 
 K. Raghavachari, A. P. Rendell, J. C. Burant, S. S. Iyengar, 
 J. Tomasi, M. Cossi, J. M. Millam, M. Klene, C. Adamo, R. Cammi, 
 J. W. Ochterski, R. L. Martin, K. Morokuma, O. Farkas, 
 J. B. Foresman, and D. J. Fox, Gaussian, Inc., Wallingford CT, 2019.
 
 ******************************************
 Gaussian 16:  ES64L-G16RevC.01  3-Jul-2019
                27-Oct-2021 
 ******************************************
 %mem=100GB
 %nprocshared=8
 Will use up to    8 processors via shared memory.
 ----------------------------------
 # opt=modredundant mp2/aug-cc-pvdz
 ----------------------------------
 1/18=120,19=15,38=1/1,3;
 2/9=110,12=2,17=6,18=5,40=1/2;
 3/5=16,7=10,11=9,25=1,30=1,71=1/1,2,3;
 4//1;
 5/5=2,38=5/2;
 8/6=4,10=1/1;
 9/15=2,16=-3/6;
 10/5=1/2;
 6/7=2,8=2,9=2,10=2/1;
 7/12=2/1,2,3,16;
 1/18=20,19=15/3(2);
 2/9=110/2;
 99//99;
 2/9=110/2;
 3/5=16,7=10,11=9,25=1,30=1,71=1/1,2,3;
 4/5=5,16=3,69=1/1;
 5/5=2,38=5/2;
 8/6=4,10=1/1;
 9/15=2,16=-3/6;
 10/5=1/2;
 7/12=2/1,2,3,16;
 1/18=20,19=15/3(-8);
 2/9=110/2;
 6/7=2,8=2,9=2,10=2/1;
 99/9=10/99;
 --------------
 pBTTT_-115.pdb
 --------------
 Symbolic Z-matrix:
 Charge =  0 Multiplicity = 1
 C                     3.942     0.754     0.252 
 C                     2.537     0.992     0.447 
 C                     1.744     0.037    -0.091 
 C                     4.175    -0.39     -0.424 
 H                     4.718     1.414     0.61 
 S                     2.718    -1.2      -0.855 
 H                     5.131    -0.8      -0.701 
 C                     0.277    -0.041    -0.053 
 S                    -0.528    -1.351     0.806 
 C                    -2.084    -0.696     0.4 
 C                    -1.959     0.451    -0.328 
 C                    -0.603     0.83     -0.595 
 H                    -0.301     1.698    -1.156 
 S                    -3.515     1.107    -0.735 
 C                    -4.306    -0.204     0.1 
 C                    -3.443    -1.083     0.65 
 H                    -5.382    -0.242     0.133 
 H                    -3.746    -1.956     1.205 
 O                     2.046     2.066     1.101 
 H                     2.74      2.559     1.505 
 
 The following ModRedundant input section has been read:
 D       2       3       8       9 F                                           
 

 GradGradGradGradGradGradGradGradGradGradGradGradGradGradGradGradGradGrad
 Berny optimization.
 Initialization pass.
                           ----------------------------
                           !    Initial Parameters    !
                           ! (Angstroms and Degrees)  !
 --------------------------                            --------------------------
 ! Name  Definition              Value          Derivative Info.                !
 --------------------------------------------------------------------------------
 ! R1    R(1,2)                  1.4383         estimate D2E/DX2                !
 ! R2    R(1,4)                  1.3491         estimate D2E/DX2                !
 ! R3    R(1,5)                  1.0798         estimate D2E/DX2                !
 ! R4    R(2,3)                  1.3529         estimate D2E/DX2                !
 ! R5    R(2,19)                 1.3499         estimate D2E/DX2                !
 ! R6    R(3,6)                  1.75           estimate D2E/DX2                !
 ! R7    R(3,8)                  1.4696         estimate D2E/DX2                !
 ! R8    R(4,6)                  1.7218         estimate D2E/DX2                !
 ! R9    R(4,7)                  1.0765         estimate D2E/DX2                !
 ! R10   R(8,9)                  1.7613         estimate D2E/DX2                !
 ! R11   R(8,12)                 1.3516         estimate D2E/DX2                !
 ! R12   R(9,10)                 1.7364         estimate D2E/DX2                !
 ! R13   R(10,11)                1.3643         estimate D2E/DX2                !
 ! R14   R(10,16)                1.435          estimate D2E/DX2                !
 ! R15   R(11,12)                1.4331         estimate D2E/DX2                !
 ! R16   R(11,14)                1.737          estimate D2E/DX2                !
 ! R17   R(12,13)                1.0767         estimate D2E/DX2                !
 ! R18   R(14,15)                1.744          estimate D2E/DX2                !
 ! R19   R(15,16)                1.349          estimate D2E/DX2                !
 ! R20   R(15,17)                1.0772         estimate D2E/DX2                !
 ! R21   R(16,18)                1.0779         estimate D2E/DX2                !
 ! R22   R(19,20)                0.9423         estimate D2E/DX2                !
 ! A1    A(2,1,4)              112.146          estimate D2E/DX2                !
 ! A2    A(2,1,5)              123.7749         estimate D2E/DX2                !
 ! A3    A(4,1,5)              124.0786         estimate D2E/DX2                !
 ! A4    A(1,2,3)              113.6946         estimate D2E/DX2                !
 ! A5    A(1,2,19)             123.5484         estimate D2E/DX2                !
 ! A6    A(3,2,19)             122.7568         estimate D2E/DX2                !
 ! A7    A(2,3,6)              110.2636         estimate D2E/DX2                !
 ! A8    A(2,3,8)              127.7569         estimate D2E/DX2                !
 ! A9    A(6,3,8)              121.9628         estimate D2E/DX2                !
 ! A10   A(1,4,6)              112.2223         estimate D2E/DX2                !
 ! A11   A(1,4,7)              127.2509         estimate D2E/DX2                !
 ! A12   A(6,4,7)              120.5248         estimate D2E/DX2                !
 ! A13   A(3,6,4)               91.6709         estimate D2E/DX2                !
 ! A14   A(3,8,9)              120.5542         estimate D2E/DX2                !
 ! A15   A(3,8,12)             127.2558         estimate D2E/DX2                !
 ! A16   A(9,8,12)             112.1672         estimate D2E/DX2                !
 ! A17   A(8,9,10)              90.8577         estimate D2E/DX2                !
 ! A18   A(9,10,11)            111.0887         estimate D2E/DX2                !
 ! A19   A(9,10,16)            134.927          estimate D2E/DX2                !
 ! A20   A(11,10,16)           113.9841         estimate D2E/DX2                !
 ! A21   A(10,11,12)           114.1087         estimate D2E/DX2                !
 ! A22   A(10,11,14)           111.1296         estimate D2E/DX2                !
 ! A23   A(12,11,14)           134.7566         estimate D2E/DX2                !
 ! A24   A(8,12,11)            111.7729         estimate D2E/DX2                !
 ! A25   A(8,12,13)            123.0806         estimate D2E/DX2                !
 ! A26   A(11,12,13)           125.1466         estimate D2E/DX2                !
 ! A27   A(11,14,15)            90.5851         estimate D2E/DX2                !
 ! A28   A(14,15,16)           113.2566         estimate D2E/DX2                !
 ! A29   A(14,15,17)           119.6196         estimate D2E/DX2                !
 ! A30   A(16,15,17)           127.1238         estimate D2E/DX2                !
 ! A31   A(10,16,15)           111.0444         estimate D2E/DX2                !
 ! A32   A(10,16,18)           125.0524         estimate D2E/DX2                !
 ! A33   A(15,16,18)           123.9029         estimate D2E/DX2                !
 ! A34   A(2,19,20)            110.86           estimate D2E/DX2                !
 ! D1    D(4,1,2,3)             -0.5294         estimate D2E/DX2                !
 ! D2    D(4,1,2,19)           179.6283         estimate D2E/DX2                !
 ! D3    D(5,1,2,3)            179.7178         estimate D2E/DX2                !
 ! D4    D(5,1,2,19)            -0.1245         estimate D2E/DX2                !
 ! D5    D(2,1,4,6)              0.539          estimate D2E/DX2                !
 ! D6    D(2,1,4,7)           -179.9862         estimate D2E/DX2                !
 ! D7    D(5,1,4,6)           -179.7091         estimate D2E/DX2                !
 ! D8    D(5,1,4,7)             -0.2344         estimate D2E/DX2                !
 ! D9    D(1,2,3,6)              0.2679         estimate D2E/DX2                !
 ! D10   D(1,2,3,8)            178.7869         estimate D2E/DX2                !
 ! D11   D(19,2,3,6)          -179.8884         estimate D2E/DX2                !
 ! D12   D(19,2,3,8)            -1.3694         estimate D2E/DX2                !
 ! D13   D(1,2,19,20)           -7.8229         estimate D2E/DX2                !
 ! D14   D(3,2,19,20)          172.3488         estimate D2E/DX2                !
 ! D15   D(2,3,6,4)              0.0287         estimate D2E/DX2                !
 ! D16   D(8,3,6,4)           -178.5912         estimate D2E/DX2                !
 ! D17   D(2,3,8,9)           -114.9989         Frozen                          !
 ! D18   D(2,3,8,12)            63.1241         estimate D2E/DX2                !
 ! D19   D(6,3,8,9)             63.3634         estimate D2E/DX2                !
 ! D20   D(6,3,8,12)          -118.5136         estimate D2E/DX2                !
 ! D21   D(1,4,6,3)             -0.3346         estimate D2E/DX2                !
 ! D22   D(7,4,6,3)           -179.8493         estimate D2E/DX2                !
 ! D23   D(3,8,9,10)           178.8537         estimate D2E/DX2                !
 ! D24   D(12,8,9,10)            0.4668         estimate D2E/DX2                !
 ! D25   D(3,8,12,11)         -178.4227         estimate D2E/DX2                !
 ! D26   D(3,8,12,13)            1.5634         estimate D2E/DX2                !
 ! D27   D(9,8,12,11)           -0.1681         estimate D2E/DX2                !
 ! D28   D(9,8,12,13)          179.8181         estimate D2E/DX2                !
 ! D29   D(8,9,10,11)           -0.6481         estimate D2E/DX2                !
 ! D30   D(8,9,10,16)          179.1852         estimate D2E/DX2                !
 ! D31   D(9,10,11,12)           0.6877         estimate D2E/DX2                !
 ! D32   D(9,10,11,14)         179.9891         estimate D2E/DX2                !
 ! D33   D(16,10,11,12)       -179.1831         estimate D2E/DX2                !
 ! D34   D(16,10,11,14)          0.1183         estimate D2E/DX2                !
 ! D35   D(9,10,16,15)         179.9889         estimate D2E/DX2                !
 ! D36   D(9,10,16,18)           0.1822         estimate D2E/DX2                !
 ! D37   D(11,10,16,15)         -0.1813         estimate D2E/DX2                !
 ! D38   D(11,10,16,18)       -179.9881         estimate D2E/DX2                !
 ! D39   D(10,11,12,8)          -0.3391         estimate D2E/DX2                !
 ! D40   D(10,11,12,13)        179.6751         estimate D2E/DX2                !
 ! D41   D(14,11,12,8)        -179.4213         estimate D2E/DX2                !
 ! D42   D(14,11,12,13)          0.5928         estimate D2E/DX2                !
 ! D43   D(10,11,14,15)         -0.0227         estimate D2E/DX2                !
 ! D44   D(12,11,14,15)        179.0792         estimate D2E/DX2                !
 ! D45   D(11,14,15,16)         -0.0831         estimate D2E/DX2                !
 ! D46   D(11,14,15,17)        179.847          estimate D2E/DX2                !
 ! D47   D(14,15,16,10)          0.1607         estimate D2E/DX2                !
 ! D48   D(14,15,16,18)        179.9701         estimate D2E/DX2                !
 ! D49   D(17,15,16,10)       -179.7631         estimate D2E/DX2                !
 ! D50   D(17,15,16,18)          0.0463         estimate D2E/DX2                !
 --------------------------------------------------------------------------------
 Trust Radius=3.00D-01 FncErr=1.00D-07 GrdErr=1.00D-07 EigMax=2.50D+02 EigMin=1.00D-04
 Number of steps in this run=    116 maximum allowed number of steps=    120.
 GradGradGradGradGradGradGradGradGradGradGradGradGradGradGradGradGradGrad

                          Input orientation:                          
 ---------------------------------------------------------------------
 Center     Atomic      Atomic             Coordinates (Angstroms)
 Number     Number       Type             X           Y           Z
 ---------------------------------------------------------------------
      1          6           0        3.942000    0.754000    0.252000
      2          6           0        2.537000    0.992000    0.447000
      3          6           0        1.744000    0.037000   -0.091000
      4          6           0        4.175000   -0.390000   -0.424000
      5          1           0        4.718000    1.414000    0.610000
      6         16           0        2.718000   -1.200000   -0.855000
      7          1           0        5.131000   -0.800000   -0.701000
      8          6           0        0.277000   -0.041000   -0.053000
      9         16           0       -0.528000   -1.351000    0.806000
     10          6           0       -2.084000   -0.696000    0.400000
     11          6           0       -1.959000    0.451000   -0.328000
     12          6           0       -0.603000    0.830000   -0.595000
     13          1           0       -0.301000    1.698000   -1.156000
     14         16           0       -3.515000    1.107000   -0.735000
     15          6           0       -4.306000   -0.204000    0.100000
     16          6           0       -3.443000   -1.083000    0.650000
     17          1           0       -5.382000   -0.242000    0.133000
     18          1           0       -3.746000   -1.956000    1.205000
     19          8           0        2.046000    2.066000    1.101000
     20          1           0        2.740000    2.559000    1.505000
 ---------------------------------------------------------------------
                    Distance matrix (angstroms):
                    1          2          3          4          5
     1  C    0.000000
     2  C    1.438296   0.000000
     3  C    2.337294   1.352892   0.000000
     4  C    1.349074   2.313354   2.490578   0.000000
     5  H    1.079787   2.227423   3.351448   2.149051   0.000000
     6  S    2.557683   2.555940   1.750012   1.721833   3.602669
     7  H    2.176430   3.355295   3.541813   1.076459   2.605971
     8  C    3.762615   2.534697   1.469564   3.931138   4.720072
     9  S    4.971805   3.874630   2.809473   4.955263   5.933309
    10  C    6.199765   4.919877   3.928353   6.320419   7.124844
    11  C    5.937172   4.594271   3.733601   6.192128   6.810987
    12  C    4.623874   3.312342   2.528097   4.934260   5.486905
    13  H    4.569097   3.335010   2.841685   4.993010   5.328205
    14  S    7.530314   6.167419   5.405249   7.840525   8.347788
    15  C    8.304840   6.955392   6.057810   8.499208   9.182080
    16  C    7.620446   6.333027   5.358027   7.724484   8.534549
    17  H    9.377801   8.020718   7.134977   9.574362  10.245968
    18  H    8.207171   6.981501   5.982622   8.237004   9.129634
    19  O    2.457023   1.349916   2.372532   3.590293   2.793881
    20  H    2.504563   1.901595   3.146381   3.804848   2.454493
                    6          7          8          9         10
     6  S    0.000000
     7  H    2.450772   0.000000
     8  C    2.818682   4.955532   0.000000
     9  S    3.649416   5.882086   1.761251   0.000000
    10  C    4.988812   7.299263   2.491697   1.736375   0.000000
    11  C    4.987771   7.209177   2.305946   2.565331   1.364265
    12  C    3.900967   5.962121   1.351594   2.593297   2.347778
    13  H    4.195637   5.996137   2.138881   3.632819   3.366224
    14  S    6.647326   8.853876   4.020235   4.163966   2.566475
    15  C    7.158255   9.489667   4.588449   4.010901   2.295506
    16  C    6.343235   8.684398   3.926624   2.931448   1.434974
    17  H    8.216076  10.560781   5.665622   5.024353   3.339792
    18  H    6.826304   9.152612   4.629721   3.298598   2.235591
    19  O    3.865783   4.580217   2.983375   4.288169   5.017663
    20  H    4.438487   4.676131   3.905603   5.143591   5.923430
                   11         12         13         14         15
    11  C    0.000000
    12  C    1.433062   0.000000
    13  H    2.233732   1.076731   0.000000
    14  S    1.736986   2.928493   3.294893   0.000000
    15  C    2.473988   3.906967   4.608163   1.744026   0.000000
    16  C    2.347743   3.643514   4.568124   2.592202   1.349040
    17  H    3.522740   4.951566   5.589426   2.461486   1.077176
    18  H    3.367062   4.569491   5.549240   3.633033   2.145723
    19  O    4.548658   3.379543   3.276871   5.934248   6.819297
    20  H    5.466640   4.309883   4.131576   6.800804   7.697682
                   16         17         18         19         20
    16  C    0.000000
    17  H    2.175843   0.000000
    18  H    1.077944   2.600668   0.000000
    19  O    6.344188   7.838308   7.052274   0.000000
    20  H    7.226664   8.700280   7.908440   0.942285   0.000000
 Stoichiometry    C10H6OS3
 Framework group  C1[X(C10H6OS3)]
 Deg. of freedom    54
 Full point group                 C1      NOp   1
 Largest Abelian subgroup         C1      NOp   1
 Largest concise Abelian subgroup C1      NOp   1
                         Standard orientation:                         
 ---------------------------------------------------------------------
 Center     Atomic      Atomic             Coordinates (Angstroms)
 Number     Number       Type             X           Y           Z
 ---------------------------------------------------------------------
      1          6           0        3.941942    0.753984    0.251934
      2          6           0        2.536945    0.991998    0.446934
      3          6           0        1.743935    0.037007   -0.091066
      4          6           0        4.174930   -0.390018   -0.424066
      5          1           0        4.717949    1.413976    0.609934
      6         16           0        2.717922   -1.200003   -0.855066
      7          1           0        5.130926   -0.800028   -0.701066
      8          6           0        0.276934   -0.040978   -0.053066
      9         16           0       -0.528080   -1.350970    0.805934
     10          6           0       -2.084073   -0.695954    0.399934
     11          6           0       -1.959061    0.451045   -0.328066
     12          6           0       -0.603057    0.830031   -0.595066
     13          1           0       -0.301048    1.698028   -1.156066
     14         16           0       -3.515054    1.107061   -0.735066
     15          6           0       -4.306068   -0.203931    0.099934
     16          6           0       -3.443077   -1.082940    0.649934
     17          1           0       -5.382068   -0.241920    0.132934
     18          1           0       -3.746086   -1.955937    1.204934
     19          8           0        2.045956    2.066003    1.100934
     20          1           0        2.739961    2.558996    1.504934
 ---------------------------------------------------------------------
 Rotational constants (GHZ):           1.3155513           0.2674451           0.2448452
 Standard basis: Aug-CC-pVDZ (5D, 7F)
 There are   416 symmetry adapted cartesian basis functions of A   symmetry.
 There are   388 symmetry adapted basis functions of A   symmetry.
   388 basis functions,   782 primitive gaussians,   416 cartesian basis functions
    61 alpha electrons       61 beta electrons
       nuclear repulsion energy      1127.1336460863 Hartrees.
 NAtoms=   20 NActive=   20 NUniq=   20 SFac= 1.00D+00 NAtFMM=   60 NAOKFM=F Big=F
 Integral buffers will be    131072 words long.
 Raffenetti 1 integral format.
 Two-electron integral symmetry is turned on.
 One-electron integrals computed using PRISM.
 NBasis=   388 RedAO= T EigKep=  3.53D-06  NBF=   388
 NBsUse=   388 1.00D-06 EigRej= -1.00D+00 NBFU=   388
 ExpMin= 2.97D-02 ExpMax= 1.11D+05 ExpMxC= 1.07D+03 IAcc=3 IRadAn=         5 AccDes= 0.00D+00
 Harris functional with IExCor=  205 and IRadAn=       5 diagonalized for initial guess.
 HarFok:  IExCor=  205 AccDes= 0.00D+00 IRadAn=         5 IDoV= 1 UseB2=F ITyADJ=14
 ICtDFT=  3500011 ScaDFX=  1.000000  1.000000  1.000000  1.000000
 FoFCou: FMM=F IPFlag=           0 FMFlag=      100000 FMFlg1=           0
         NFxFlg=           0 DoJE=T BraDBF=F KetDBF=T FulRan=T
         wScrn=  0.000000 ICntrl=       500 IOpCl=  0 I1Cent=   200000004 NGrid=           0
         NMat0=    1 NMatS0=      1 NMatT0=    0 NMatD0=    1 NMtDS0=    0 NMtDT0=    0
 Petite list used in FoFCou.
 Requested convergence on RMS density matrix=1.00D-08 within 128 cycles.
 Requested convergence on MAX density matrix=1.00D-06.
 Requested convergence on             energy=1.00D-06.
 No special actions if energy rises.
 SCF Done:  E(RHF) =  -1649.64184244     A.U. after   17 cycles
            NFock= 17  Conv=0.59D-08     -V/T= 2.0000
 ExpMin= 2.97D-02 ExpMax= 1.11D+05 ExpMxC= 1.07D+03 IAcc=3 IRadAn=         5 AccDes= 0.00D+00
 HarFok:  IExCor=  205 AccDes= 0.00D+00 IRadAn=         5 IDoV=-2 UseB2=F ITyADJ=14
 ICtDFT= 12500011 ScaDFX=  1.000000  1.000000  1.000000  1.000000
 GSVD:  LWork=        -884 too small for GESVD, short by        3770 words or        3770 for optimal perf.
 Range of M.O.s used for correlation:    27   388
 NBasis=   388 NAE=    61 NBE=    61 NFC=    26 NFV=     0
 NROrb=    362 NOA=    35 NOB=    35 NVA=   327 NVB=   327

 **** Warning!!: The largest alpha MO coefficient is  0.85146978D+02

 Fully direct method using O(ONN) memory.
 JobTyp=1 Pass  1:  I=  27 to  61 NPSUse=  8 ParTrn=T ParDer=T DoDerP=T.
 Spin components of T(2) and E(2):
     alpha-alpha T2 =       0.1135529057D+00 E2=     -0.2738268104D+00
     alpha-beta  T2 =       0.5540201699D+00 E2=     -0.1420651794D+01
     beta-beta   T2 =       0.1135529057D+00 E2=     -0.2738268104D+00
 ANorm=    0.1334588319D+01
 E2 =    -0.1968305414D+01 EUMP2 =    -0.16516101478542D+04
          IDoAtm=11111111111111111111
          Differentiating once with respect to electric field.
                with respect to dipole field.
          Differentiating once with respect to nuclear coordinates.
 Keep R1 ints in memory in canonical form, NReq=2883857471.
          There are     1 degrees of freedom in the 1st order CPHF.  IDoFFX=0 NUNeed=     1.
 LinEq1:  Iter=  0 NonCon=     1 RMS=2.87D-03 Max=5.11D-02 NDo=     1
 AX will form     1 AO Fock derivatives at one time.
 LinEq1:  Iter=  1 NonCon=     1 RMS=6.77D-04 Max=8.67D-03 NDo=     1
 LinEq1:  Iter=  2 NonCon=     1 RMS=3.47D-04 Max=9.03D-03 NDo=     1
 LinEq1:  Iter=  3 NonCon=     1 RMS=9.14D-05 Max=1.51D-03 NDo=     1
 LinEq1:  Iter=  4 NonCon=     1 RMS=3.68D-05 Max=7.67D-04 NDo=     1
 LinEq1:  Iter=  5 NonCon=     1 RMS=1.50D-05 Max=3.21D-04 NDo=     1
 LinEq1:  Iter=  6 NonCon=     1 RMS=6.35D-06 Max=2.12D-04 NDo=     1
 LinEq1:  Iter=  7 NonCon=     1 RMS=2.86D-06 Max=6.26D-05 NDo=     1
 LinEq1:  Iter=  8 NonCon=     1 RMS=1.08D-06 Max=2.84D-05 NDo=     1
 LinEq1:  Iter=  9 NonCon=     1 RMS=4.32D-07 Max=9.16D-06 NDo=     1
 LinEq1:  Iter= 10 NonCon=     1 RMS=1.64D-07 Max=2.72D-06 NDo=     1
 LinEq1:  Iter= 11 NonCon=     1 RMS=6.72D-08 Max=2.21D-06 NDo=     1
 LinEq1:  Iter= 12 NonCon=     1 RMS=2.47D-08 Max=4.11D-07 NDo=     1
 LinEq1:  Iter= 13 NonCon=     1 RMS=9.85D-09 Max=1.45D-07 NDo=     1
 LinEq1:  Iter= 14 NonCon=     1 RMS=3.20D-09 Max=4.49D-08 NDo=     1
 LinEq1:  Iter= 15 NonCon=     1 RMS=1.29D-09 Max=2.81D-08 NDo=     1
 LinEq1:  Iter= 16 NonCon=     1 RMS=4.89D-10 Max=8.25D-09 NDo=     1
 LinEq1:  Iter= 17 NonCon=     1 RMS=2.17D-10 Max=4.57D-09 NDo=     1
 LinEq1:  Iter= 18 NonCon=     1 RMS=8.12D-11 Max=1.18D-09 NDo=     1
 LinEq1:  Iter= 19 NonCon=     0 RMS=2.81D-11 Max=4.28D-10 NDo=     1
 Linear equations converged to 1.000D-10 1.000D-09 after    19 iterations.
 End of Minotr F.D. properties file   721 does not exist.
 End of Minotr F.D. properties file   722 does not exist.
 End of Minotr F.D. properties file   788 does not exist.

 **********************************************************************

            Population analysis using the SCF Density.

 **********************************************************************

 Orbital symmetries:
       Occupied  (A) (A) (A) (A) (A) (A) (A) (A) (A) (A) (A) (A)
                 (A) (A) (A) (A) (A) (A) (A) (A) (A) (A) (A) (A)
                 (A) (A) (A) (A) (A) (A) (A) (A) (A) (A) (A) (A)
                 (A) (A) (A) (A) (A) (A) (A) (A) (A) (A) (A) (A)
                 (A) (A) (A) (A) (A) (A) (A) (A) (A) (A) (A) (A)
                 (A)
       Virtual   (A) (A) (A) (A) (A) (A) (A) (A) (A) (A) (A) (A)
                 (A) (A) (A) (A) (A) (A) (A) (A) (A) (A) (A) (A)
                 (A) (A) (A) (A) (A) (A) (A) (A) (A) (A) (A) (A)
                 (A) (A) (A) (A) (A) (A) (A) (A) (A) (A) (A) (A)
                 (A) (A) (A) (A) (A) (A) (A) (A) (A) (A) (A) (A)
                 (A) (A) (A) (A) (A) (A) (A) (A) (A) (A) (A) (A)
                 (A) (A) (A) (A) (A) (A) (A) (A) (A) (A) (A) (A)
                 (A) (A) (A) (A) (A) (A) (A) (A) (A) (A) (A) (A)
                 (A) (A) (A) (A) (A) (A) (A) (A) (A) (A) (A) (A)
                 (A) (A) (A) (A) (A) (A) (A) (A) (A) (A) (A) (A)
                 (A) (A) (A) (A) (A) (A) (A) (A) (A) (A) (A) (A)
                 (A) (A) (A) (A) (A) (A) (A) (A) (A) (A) (A) (A)
                 (A) (A) (A) (A) (A) (A) (A) (A) (A) (A) (A) (A)
                 (A) (A) (A) (A) (A) (A) (A) (A) (A) (A) (A) (A)
                 (A) (A) (A) (A) (A) (A) (A) (A) (A) (A) (A) (A)
                 (A) (A) (A) (A) (A) (A) (A) (A) (A) (A) (A) (A)
                 (A) (A) (A) (A) (A) (A) (A) (A) (A) (A) (A) (A)
                 (A) (A) (A) (A) (A) (A) (A) (A) (A) (A) (A) (A)
                 (A) (A) (A) (A) (A) (A) (A) (A) (A) (A) (A) (A)
                 (A) (A) (A) (A) (A) (A) (A) (A) (A) (A) (A) (A)
                 (A) (A) (A) (A) (A) (A) (A) (A) (A) (A) (A) (A)
                 (A) (A) (A) (A) (A) (A) (A) (A) (A) (A) (A) (A)
                 (A) (A) (A) (A) (A) (A) (A) (A) (A) (A) (A) (A)
                 (A) (A) (A) (A) (A) (A) (A) (A) (A) (A) (A) (A)
                 (A) (A) (A) (A) (A) (A) (A) (A) (A) (A) (A) (A)
                 (A) (A) (A) (A) (A) (A) (A) (A) (A) (A) (A) (A)
                 (A) (A) (A) (A) (A) (A) (A) (A) (A) (A) (A) (A)
                 (A) (A) (A)
 The electronic state is 1-A.
 Alpha  occ. eigenvalues --  -91.98982 -91.98644 -91.98474 -20.60981 -11.31796
 Alpha  occ. eigenvalues --  -11.28405 -11.28398 -11.27403 -11.26968 -11.26853
 Alpha  occ. eigenvalues --  -11.26703 -11.25506 -11.25427 -11.25240  -8.99176
 Alpha  occ. eigenvalues --   -8.98829  -8.98637  -6.67343  -6.67250  -6.67052
 Alpha  occ. eigenvalues --   -6.66996  -6.66918  -6.66802  -6.66721  -6.66712
 Alpha  occ. eigenvalues --   -6.66512  -1.42987  -1.21272  -1.18425  -1.12577
 Alpha  occ. eigenvalues --   -1.02893  -1.01997  -0.98653  -0.95602  -0.94241
 Alpha  occ. eigenvalues --   -0.82598  -0.81146  -0.77015  -0.74995  -0.72271
 Alpha  occ. eigenvalues --   -0.69673  -0.66781  -0.66490  -0.62151  -0.61078
 Alpha  occ. eigenvalues --   -0.58300  -0.56322  -0.56014  -0.53884  -0.53088
 Alpha  occ. eigenvalues --   -0.52693  -0.50679  -0.49312  -0.48609  -0.46076
 Alpha  occ. eigenvalues --   -0.45810  -0.38438  -0.35065  -0.33203  -0.31735
 Alpha  occ. eigenvalues --   -0.29232
 Alpha virt. eigenvalues --    0.02756   0.03721   0.03952   0.04991   0.05095
 Alpha virt. eigenvalues --    0.06238   0.08104   0.08242   0.08588   0.09088
 Alpha virt. eigenvalues --    0.10029   0.10276   0.10474   0.10953   0.11325
 Alpha virt. eigenvalues --    0.12381   0.12539   0.12701   0.12941   0.13586
 Alpha virt. eigenvalues --    0.13695   0.14103   0.14439   0.14736   0.14983
 Alpha virt. eigenvalues --    0.15431   0.15953   0.16294   0.16591   0.16742
 Alpha virt. eigenvalues --    0.17727   0.18192   0.18286   0.18570   0.19432
 Alpha virt. eigenvalues --    0.19773   0.20297   0.20521   0.21045   0.21149
 Alpha virt. eigenvalues --    0.21853   0.22270   0.23083   0.23249   0.23627
 Alpha virt. eigenvalues --    0.23768   0.24418   0.24864   0.24917   0.25738
 Alpha virt. eigenvalues --    0.26759   0.27145   0.27737   0.27901   0.28100
 Alpha virt. eigenvalues --    0.28652   0.29931   0.30833   0.31229   0.31689
 Alpha virt. eigenvalues --    0.32037   0.32380   0.32560   0.32995   0.33157
 Alpha virt. eigenvalues --    0.33980   0.34781   0.35034   0.35359   0.35886
 Alpha virt. eigenvalues --    0.36476   0.37281   0.37673   0.38716   0.38999
 Alpha virt. eigenvalues --    0.40080   0.40766   0.40902   0.41219   0.42383
 Alpha virt. eigenvalues --    0.43538   0.43707   0.44358   0.45114   0.45499
 Alpha virt. eigenvalues --    0.45955   0.46332   0.46962   0.48330   0.48769
 Alpha virt. eigenvalues --    0.49275   0.49658   0.49932   0.51496   0.51857
 Alpha virt. eigenvalues --    0.53147   0.54115   0.54475   0.54810   0.55106
 Alpha virt. eigenvalues --    0.56274   0.57565   0.58724   0.59080   0.59784
 Alpha virt. eigenvalues --    0.60427   0.60679   0.61563   0.61967   0.62507
 Alpha virt. eigenvalues --    0.62784   0.63429   0.64590   0.64784   0.66038
 Alpha virt. eigenvalues --    0.66253   0.67163   0.67592   0.68468   0.68614
 Alpha virt. eigenvalues --    0.69011   0.69483   0.70231   0.70449   0.71033
 Alpha virt. eigenvalues --    0.71865   0.72258   0.72887   0.73423   0.74118
 Alpha virt. eigenvalues --    0.74303   0.75166   0.75673   0.76233   0.76437
 Alpha virt. eigenvalues --    0.77150   0.77781   0.78552   0.79171   0.79757
 Alpha virt. eigenvalues --    0.81513   0.81955   0.83075   0.83495   0.84137
 Alpha virt. eigenvalues --    0.85334   0.85549   0.86277   0.87546   0.88016
 Alpha virt. eigenvalues --    0.88145   0.89298   0.89778   0.90868   0.91543
 Alpha virt. eigenvalues --    0.92160   0.92820   0.93263   0.94567   0.95568
 Alpha virt. eigenvalues --    0.95788   0.96436   0.97019   0.97270   0.98186
 Alpha virt. eigenvalues --    0.99560   0.99865   1.00823   1.03025   1.04043
 Alpha virt. eigenvalues --    1.04454   1.05104   1.05819   1.06902   1.08067
 Alpha virt. eigenvalues --    1.09499   1.09857   1.10501   1.11545   1.12631
 Alpha virt. eigenvalues --    1.13430   1.14457   1.17533   1.17950   1.18888
 Alpha virt. eigenvalues --    1.20215   1.21828   1.21894   1.22774   1.23602
 Alpha virt. eigenvalues --    1.24803   1.24923   1.25554   1.25792   1.27088
 Alpha virt. eigenvalues --    1.28155   1.29075   1.29570   1.30771   1.32279
 Alpha virt. eigenvalues --    1.33132   1.34478   1.34951   1.36744   1.37015
 Alpha virt. eigenvalues --    1.38474   1.39031   1.41086   1.41909   1.42323
 Alpha virt. eigenvalues --    1.43179   1.44983   1.45358   1.46963   1.49196
 Alpha virt. eigenvalues --    1.50910   1.54283   1.54858   1.55921   1.57042
 Alpha virt. eigenvalues --    1.57399   1.58367   1.59406   1.60725   1.61679
 Alpha virt. eigenvalues --    1.62228   1.63527   1.65101   1.65788   1.66994
 Alpha virt. eigenvalues --    1.67069   1.69561   1.70450   1.71312   1.72419
 Alpha virt. eigenvalues --    1.73702   1.74344   1.75975   1.76437   1.77175
 Alpha virt. eigenvalues --    1.79645   1.80737   1.81394   1.82211   1.84578
 Alpha virt. eigenvalues --    1.85970   1.86598   1.87763   1.88550   1.90664
 Alpha virt. eigenvalues --    1.91267   1.92099   1.94061   1.95277   1.97155
 Alpha virt. eigenvalues --    1.98683   1.99107   2.02276   2.03990   2.04737
 Alpha virt. eigenvalues --    2.05916   2.07937   2.08785   2.09033   2.09934
 Alpha virt. eigenvalues --    2.10795   2.13293   2.14065   2.15016   2.15872
 Alpha virt. eigenvalues --    2.17499   2.18805   2.19624   2.20484   2.21653
 Alpha virt. eigenvalues --    2.23640   2.25602   2.27726   2.28750   2.30754
 Alpha virt. eigenvalues --    2.32884   2.33320   2.34029   2.35648   2.37938
 Alpha virt. eigenvalues --    2.40690   2.41479   2.42844   2.45687   2.45967
 Alpha virt. eigenvalues --    2.47562   2.49969   2.50528   2.51531   2.53033
 Alpha virt. eigenvalues --    2.56890   2.58632   2.60924   2.62691   2.66932
 Alpha virt. eigenvalues --    2.74403   2.81983   2.84276   2.86633   2.87761
 Alpha virt. eigenvalues --    2.91972   2.93129   2.98676   3.00148   3.04443
 Alpha virt. eigenvalues --    3.11127   3.17544   3.25026   3.25961   3.35854
 Alpha virt. eigenvalues --    3.43146   3.53453   3.58832   3.63376   3.76284
 Alpha virt. eigenvalues --    3.78114   3.80497   3.87150   3.88079   4.22958
 Alpha virt. eigenvalues --    4.24425   4.48401
          Condensed to atoms (all electrons):
               1          2          3          4          5          6
     1  C    7.681945  -1.961909  -0.036105   0.010782  -0.168185  -0.527716
     2  C   -1.961909  10.065838  -1.820732   0.502356   0.169902  -0.265213
     3  C   -0.036105  -1.820732  11.650659  -1.374521  -0.048275  -0.216264
     4  C    0.010782   0.502356  -1.374521   6.518105  -0.008694   0.430400
     5  H   -0.168185   0.169902  -0.048275  -0.008694   1.656416  -0.016303
     6  S   -0.527716  -0.265213  -0.216264   0.430400  -0.016303  16.355131
     7  H    0.003164   0.053831   0.049458   0.196320  -0.069364  -0.158238
     8  C    0.510445  -0.717767  -2.074465   0.197122   0.020525  -0.174936
     9  S   -0.033841   0.012277  -0.709285   0.045612  -0.003505   0.272304
    10  C    0.019572   0.050352  -0.415156   0.019412   0.001064   0.032229
    11  C   -0.049062  -0.104173   0.573584  -0.003213  -0.002596   0.050989
    12  C   -0.055168   0.450863  -0.253179  -0.107669  -0.001380  -0.233583
    13  H    0.006867  -0.025265   0.090757   0.005480   0.000895   0.012979
    14  S    0.000339   0.010936  -0.081211  -0.000682  -0.000025   0.002877
    15  C   -0.000945  -0.013245   0.033515   0.000779  -0.000041   0.005379
    16  C    0.001310   0.022175  -0.369025  -0.002518  -0.000066   0.004865
    17  H   -0.000062   0.000115  -0.000207   0.000035  -0.000003   0.000175
    18  H   -0.000183   0.000092  -0.011179  -0.000019  -0.000021   0.001482
    19  O    0.110590  -0.723392   0.328963  -0.091488  -0.066608  -0.000024
    20  H   -0.145168   0.008238  -0.032008  -0.012889  -0.010771   0.016153
               7          8          9         10         11         12
     1  C    0.003164   0.510445  -0.033841   0.019572  -0.049062  -0.055168
     2  C    0.053831  -0.717767   0.012277   0.050352  -0.104173   0.450863
     3  C    0.049458  -2.074465  -0.709285  -0.415156   0.573584  -0.253179
     4  C    0.196320   0.197122   0.045612   0.019412  -0.003213  -0.107669
     5  H   -0.069364   0.020525  -0.003505   0.001064  -0.002596  -0.001380
     6  S   -0.158238  -0.174936   0.272304   0.032229   0.050989  -0.233583
     7  H    1.265330  -0.007442   0.003261   0.000619   0.001053   0.000845
     8  C   -0.007442  11.969597   0.341229   0.055556  -0.666920  -3.433928
     9  S    0.003261   0.341229  16.500409   0.331408  -0.493234  -0.541282
    10  C    0.000619   0.055556   0.331408  10.746610  -0.608028  -1.470041
    11  C    0.001053  -0.666920  -0.493234  -0.608028  11.902704  -2.880429
    12  C    0.000845  -3.433928  -0.541282  -1.470041  -2.880429  15.415214
    13  H    0.000344   0.301522   0.034730  -0.070191   0.598353  -1.110893
    14  S   -0.000058  -0.258571   0.098953  -0.095179  -0.321290   0.054833
    15  C    0.000064   0.077364  -0.097195  -0.117792  -0.950072  -0.160144
    16  C   -0.000077  -0.575594  -0.186081  -2.287888  -0.967687   0.319954
    17  H    0.000004   0.001472   0.008409   0.058802  -0.044515   0.035229
    18  H    0.000011   0.109702   0.011555   0.566236   0.058162  -0.071585
    19  O   -0.001554   0.013595   0.005164  -0.002809   0.036119  -0.059040
    20  H    0.001435   0.002860  -0.000884   0.000889  -0.000914   0.008765
              13         14         15         16         17         18
     1  C    0.006867   0.000339  -0.000945   0.001310  -0.000062  -0.000183
     2  C   -0.025265   0.010936  -0.013245   0.022175   0.000115   0.000092
     3  C    0.090757  -0.081211   0.033515  -0.369025  -0.000207  -0.011179
     4  C    0.005480  -0.000682   0.000779  -0.002518   0.000035  -0.000019
     5  H    0.000895  -0.000025  -0.000041  -0.000066  -0.000003  -0.000021
     6  S    0.012979   0.002877   0.005379   0.004865   0.000175   0.001482
     7  H    0.000344  -0.000058   0.000064  -0.000077   0.000004   0.000011
     8  C    0.301522  -0.258571   0.077364  -0.575594   0.001472   0.109702
     9  S    0.034730   0.098953  -0.097195  -0.186081   0.008409   0.011555
    10  C   -0.070191  -0.095179  -0.117792  -2.287888   0.058802   0.566236
    11  C    0.598353  -0.321290  -0.950072  -0.967687  -0.044515   0.058162
    12  C   -1.110893   0.054833  -0.160144   0.319954   0.035229  -0.071585
    13  H    1.635384  -0.043805   0.014846  -0.034641   0.001775  -0.001013
    14  S   -0.043805  16.002118   0.193685  -0.026182  -0.159764  -0.004409
    15  C    0.014846   0.193685   6.903662   0.128856   0.189354  -0.117951
    16  C   -0.034641  -0.026182   0.128856   9.919861   0.063727  -0.581947
    17  H    0.001775  -0.159764   0.189354   0.063727   1.290495  -0.068866
    18  H   -0.001013  -0.004409  -0.117951  -0.581947  -0.068866   1.433406
    19  O    0.010726  -0.003437  -0.000005  -0.001062  -0.000047   0.000126
    20  H   -0.000794   0.000407  -0.000086   0.000620   0.000007   0.000032
              19         20
     1  C    0.110590  -0.145168
     2  C   -0.723392   0.008238
     3  C    0.328963  -0.032008
     4  C   -0.091488  -0.012889
     5  H   -0.066608  -0.010771
     6  S   -0.000024   0.016153
     7  H   -0.001554   0.001435
     8  C    0.013595   0.002860
     9  S    0.005164  -0.000884
    10  C   -0.002809   0.000889
    11  C    0.036119  -0.000914
    12  C   -0.059040   0.008765
    13  H    0.010726  -0.000794
    14  S   -0.003437   0.000407
    15  C   -0.000005  -0.000086
    16  C   -0.001062   0.000620
    17  H   -0.000047   0.000007
    18  H    0.000126   0.000032
    19  O    8.993893   0.377039
    20  H    0.377039   0.624439
 Mulliken charges:
               1
     1  C    0.633331
     2  C    0.284719
     3  C    0.714676
     4  C   -0.324711
     5  H   -0.452967
     6  S    0.407314
     7  H   -0.339006
     8  C    0.308633
     9  S    0.399994
    10  C   -0.815665
    11  C   -0.128831
    12  C    0.092618
    13  H   -0.428056
    14  S    0.630467
    15  C   -0.090031
    16  C    0.571401
    17  H   -0.376134
    18  H   -0.323631
    19  O   -0.926751
    20  H    0.162630
 Sum of Mulliken charges =  -0.00000
 Mulliken charges with hydrogens summed into heavy atoms:
               1
     1  C    0.180364
     2  C    0.284719
     3  C    0.714676
     4  C   -0.663718
     6  S    0.407314
     8  C    0.308633
     9  S    0.399994
    10  C   -0.815665
    11  C   -0.128831
    12  C   -0.335438
    14  S    0.630467
    15  C   -0.466165
    16  C    0.247769
    19  O   -0.764120
 Electronic spatial extent (au):  <R**2>=           4299.0818
 Charge=             -0.0000 electrons
 Dipole moment (field-independent basis, Debye):
    X=              2.1452    Y=              1.0595    Z=              0.7391  Tot=              2.5041
 Quadrupole moment (field-independent basis, Debye-Ang):
   XX=            -77.4761   YY=            -99.5683   ZZ=           -105.8498
   XY=              9.5357   XZ=              0.7988   YZ=              0.3410
 Traceless Quadrupole moment (field-independent basis, Debye-Ang):
   XX=             16.8220   YY=             -5.2702   ZZ=            -11.5518
   XY=              9.5357   XZ=              0.7988   YZ=              0.3410
 Octapole moment (field-independent basis, Debye-Ang**2):
  XXX=             46.1138  YYY=             21.2877  ZZZ=              9.3564  XYY=             19.8795
  XXY=              6.0405  XXZ=             21.0088  XZZ=             10.4763  YZZ=              8.0764
  YYZ=             10.6696  XYZ=             25.6129
 Hexadecapole moment (field-independent basis, Debye-Ang**3):
 XXXX=          -3990.3714 YYYY=           -780.4385 ZZZZ=           -402.9286 XXXY=            118.2049
 XXXZ=            -13.9477 YYYX=             86.2643 YYYZ=             24.9129 ZZZX=             24.0028
 ZZZY=             18.5649 XXYY=           -865.1726 XXZZ=           -894.7961 YYZZ=           -176.0119
 XXYZ=             49.3767 YYXZ=             23.8340 ZZXY=             30.3013
 N-N= 1.127133646086D+03 E-N=-6.161714339035D+03  KE= 1.649564031694D+03
 Calling FoFJK, ICntrl=  10002127 FMM=F ISym2X=0 I1Cent= 0 IOpClX= 0 NMat=1 NMatS=1 NMatT=0.
 ***** Axes restored to original set *****
 -------------------------------------------------------------------
 Center     Atomic                   Forces (Hartrees/Bohr)
 Number     Number              X              Y              Z
 -------------------------------------------------------------------
      1        6          -0.016578683    0.024615328    0.014809736
      2        6           0.038952968    0.016786977    0.007939530
      3        6          -0.028364313   -0.028964996   -0.013754071
      4        6           0.003817732   -0.024705969   -0.014375871
      5        1           0.007171608    0.006117799    0.003277896
      6       16          -0.004975014   -0.005366931   -0.002745452
      7        1           0.008459817   -0.005210125   -0.003327866
      8        6           0.029298227   -0.021043477    0.013018922
      9       16           0.003901637   -0.007141197    0.003780793
     10        6          -0.007602798   -0.035347203    0.022175793
     11        6           0.009739201    0.035406463   -0.022062674
     12        6          -0.030330971    0.018806886   -0.010967356
     13        1           0.003702302    0.008681037   -0.005749082
     14       16          -0.002948495    0.006944098   -0.004305068
     15        6          -0.015109768    0.020603368   -0.013030269
     16        6           0.027741806   -0.018229123    0.011445617
     17        1          -0.010145622    0.000718281   -0.000398463
     18        1          -0.002947526   -0.007996529    0.005072693
     19        8          -0.034766515    0.003422288   -0.000769622
     20        1           0.020984405    0.011903023    0.009964814
 -------------------------------------------------------------------
 Cartesian Forces:  Max     0.038952968 RMS     0.016750042

 GradGradGradGradGradGradGradGradGradGradGradGradGradGradGradGradGradGrad
 Berny optimization.
 FormGI is forming the generalized inverse of G from B-inverse, IUseBI=4.
 Internal  Forces:  Max     0.043052122 RMS     0.009823292
 Search for a local minimum.
 Step number   1 out of a maximum of  116
 All quantities printed in internal units (Hartrees-Bohrs-Radians)
 Mixed Optimization -- RFO/linear search
 Second derivative matrix not updated -- first step.
 ITU=  0
     Eigenvalues ---    0.01468   0.01578   0.01629   0.01699   0.01752
     Eigenvalues ---    0.01756   0.01983   0.02010   0.02064   0.02134
     Eigenvalues ---    0.02212   0.02285   0.02327   0.02354   0.02379
     Eigenvalues ---    0.02439   0.15999   0.16000   0.16000   0.16000
     Eigenvalues ---    0.16000   0.16000   0.22525   0.22566   0.23647
     Eigenvalues ---    0.24760   0.24783   0.24989   0.24991   0.24996
     Eigenvalues ---    0.25000   0.28958   0.29877   0.30375   0.31052
     Eigenvalues ---    0.31193   0.32581   0.35793   0.36020   0.36244
     Eigenvalues ---    0.36338   0.36392   0.36426   0.38811   0.39179
     Eigenvalues ---    0.39418   0.45854   0.50687   0.52580   0.53714
     Eigenvalues ---    0.54273   0.55039   0.594651000.000001000.00000
     Eigenvalues --- 1000.000001000.000001000.000001000.000001000.00000
     Eigenvalues --- 1000.000001000.000001000.000001000.000001000.00000
     Eigenvalues --- 1000.000001000.000001000.000001000.000001000.00000
     Eigenvalues --- 1000.000001000.000001000.000001000.000001000.00000
     Eigenvalues --- 1000.000001000.000001000.000001000.000001000.00000
     Eigenvalues --- 1000.000001000.000001000.000001000.000001000.00000
     Eigenvalues --- 1000.000001000.000001000.000001000.000001000.00000
     Eigenvalues --- 1000.000001000.000001000.000001000.000001000.00000
     Eigenvalues --- 1000.000001000.000001000.000001000.000001000.00000
     Eigenvalues --- 1000.000001000.000001000.000001000.000001000.00000
     Eigenvalues --- 1000.00000
 RFO step:  Lambda=-1.92738400D-02 EMin= 1.46849341D-02
 Linear search not attempted -- first point.
 Iteration  1 RMS(Cart)=  0.02543749 RMS(Int)=  0.00014538
 Iteration  2 RMS(Cart)=  0.00027459 RMS(Int)=  0.00004403
 Iteration  3 RMS(Cart)=  0.00000004 RMS(Int)=  0.00004403
 Iteration  1 RMS(Cart)=  0.00000618 RMS(Int)=  0.00000250
 Iteration  2 RMS(Cart)=  0.00000339 RMS(Int)=  0.00000280
 Iteration  3 RMS(Cart)=  0.00000186 RMS(Int)=  0.00000316
 Iteration  4 RMS(Cart)=  0.00000102 RMS(Int)=  0.00000340
 Iteration  5 RMS(Cart)=  0.00000056 RMS(Int)=  0.00000354
 Variable       Old X    -DE/DX   Delta X   Delta X   Delta X     New X
                                 (Linear)    (Quad)   (Total)
    R1        2.71798  -0.00269   0.00000  -0.00409  -0.00404   2.71395
    R2        2.54938   0.03887   0.00000   0.06877   0.06880   2.61818
    R3        2.04050   0.00998   0.00000   0.02630   0.02630   2.06680
    R4        2.55660   0.04005   0.00000   0.07169   0.07171   2.62830
    R5        2.55097   0.02166   0.00000   0.03802   0.03802   2.58899
    R6        3.30704   0.00266   0.00000   0.00590   0.00585   3.31289
    R7        2.77707  -0.00539   0.00000  -0.01429  -0.01429   2.76278
    R8        3.25379   0.00720   0.00000   0.01853   0.01849   3.27229
    R9        2.03421   0.01035   0.00000   0.02700   0.02700   2.06121
   R10        3.32828   0.00589   0.00000   0.01590   0.01585   3.34413
   R11        2.55414   0.03944   0.00000   0.06997   0.06998   2.62412
   R12        3.28127   0.00555   0.00000   0.01477   0.01472   3.29600
   R13        2.57809   0.04305   0.00000   0.08211   0.08219   2.66027
   R14        2.71171  -0.00205   0.00000  -0.00245  -0.00239   2.70932
   R15        2.70809  -0.00377   0.00000  -0.00646  -0.00639   2.70171
   R16        3.28243   0.00559   0.00000   0.01506   0.01503   3.29746
   R17        2.03473   0.01103   0.00000   0.02879   0.02879   2.06352
   R18        3.29573   0.00681   0.00000   0.01782   0.01777   3.31350
   R19        2.54932   0.03890   0.00000   0.06823   0.06824   2.61756
   R20        2.03557   0.01010   0.00000   0.02639   0.02639   2.06196
   R21        2.03702   0.00992   0.00000   0.02598   0.02598   2.06300
   R22        1.78066   0.02596   0.00000   0.04228   0.04228   1.82294
    A1        1.95732  -0.00185   0.00000  -0.00168  -0.00159   1.95573
    A2        2.16028   0.00092   0.00000   0.00084   0.00079   2.16107
    A3        2.16558   0.00092   0.00000   0.00083   0.00079   2.16637
    A4        1.98434  -0.00423   0.00000  -0.01075  -0.01068   1.97366
    A5        2.15633   0.00775   0.00000   0.02629   0.02625   2.18258
    A6        2.14251  -0.00351   0.00000  -0.01554  -0.01558   2.12693
    A7        1.92446   0.00277   0.00000   0.00934   0.00931   1.93377
    A8        2.22978  -0.00158   0.00000  -0.00546  -0.00545   2.22433
    A9        2.12865  -0.00119   0.00000  -0.00399  -0.00398   2.12467
   A10        1.95865   0.00037   0.00000   0.00131   0.00132   1.95997
   A11        2.22095   0.00145   0.00000   0.00846   0.00846   2.22941
   A12        2.10355  -0.00182   0.00000  -0.00978  -0.00978   2.09377
   A13        1.59996   0.00294   0.00000   0.00176   0.00162   1.60158
   A14        2.10407  -0.00320   0.00000  -0.01150  -0.01150   2.09257
   A15        2.22103  -0.00053   0.00000  -0.00161  -0.00162   2.21942
   A16        1.95769   0.00373   0.00000   0.01287   0.01284   1.97053
   A17        1.58577   0.00160   0.00000  -0.00215  -0.00231   1.58346
   A18        1.93886   0.00168   0.00000   0.00452   0.00448   1.94335
   A19        2.35492   0.00149   0.00000   0.00107   0.00100   2.35592
   A20        1.98940  -0.00317   0.00000  -0.00558  -0.00548   1.98391
   A21        1.99157  -0.00281   0.00000  -0.00413  -0.00402   1.98755
   A22        1.93958   0.00133   0.00000   0.00322   0.00318   1.94275
   A23        2.35195   0.00148   0.00000   0.00090   0.00083   2.35277
   A24        1.95080  -0.00420   0.00000  -0.01114  -0.01104   1.93977
   A25        2.14816   0.00146   0.00000   0.00197   0.00191   2.15008
   A26        2.18422   0.00275   0.00000   0.00918   0.00912   2.19334
   A27        1.58101   0.00250   0.00000   0.00089   0.00076   1.58177
   A28        1.97670   0.00243   0.00000   0.00854   0.00852   1.98522
   A29        2.08776  -0.00253   0.00000  -0.01158  -0.01157   2.07618
   A30        2.21873   0.00009   0.00000   0.00304   0.00305   2.22178
   A31        1.93809  -0.00309   0.00000  -0.00706  -0.00697   1.93112
   A32        2.18258   0.00171   0.00000   0.00448   0.00443   2.18701
   A33        2.16251   0.00137   0.00000   0.00258   0.00254   2.16505
   A34        1.93487  -0.00491   0.00000  -0.02739  -0.02739   1.90748
    D1       -0.00924   0.00001   0.00000  -0.00309  -0.00307  -0.01231
    D2        3.13511   0.00011   0.00000  -0.00044  -0.00040   3.13471
    D3        3.13667   0.00000   0.00000  -0.00167  -0.00166   3.13501
    D4       -0.00217   0.00011   0.00000   0.00098   0.00102  -0.00115
    D5        0.00941   0.00014   0.00000   0.00208   0.00211   0.01151
    D6       -3.14135   0.00002   0.00000   0.00154   0.00154  -3.13981
    D7       -3.13652   0.00014   0.00000   0.00065   0.00069  -3.13583
    D8       -0.00409   0.00003   0.00000   0.00011   0.00012  -0.00397
    D9        0.00468  -0.00005   0.00000   0.00279   0.00281   0.00749
   D10        3.12042   0.00020   0.00000  -0.00194  -0.00195   3.11847
   D11       -3.13964  -0.00013   0.00000   0.00024   0.00031  -3.13934
   D12       -0.02390   0.00012   0.00000  -0.00449  -0.00446  -0.02836
   D13       -0.13654   0.00013   0.00000   0.00287   0.00286  -0.13367
   D14        3.00805   0.00024   0.00000   0.00574   0.00575   3.01380
   D15        0.00050   0.00013   0.00000  -0.00133  -0.00133  -0.00083
   D16       -3.11700  -0.00008   0.00000   0.00312   0.00316  -3.11384
   D17       -2.00711  -0.00107   0.00000   0.00000  -0.00000  -2.00711
   D18        1.10172  -0.00089   0.00000  -0.00967  -0.00962   1.09210
   D19        1.10590  -0.00075   0.00000  -0.00506  -0.00507   1.10083
   D20       -2.06845  -0.00057   0.00000  -0.01473  -0.01469  -2.08315
   D21       -0.00584  -0.00012   0.00000  -0.00040  -0.00039  -0.00623
   D22       -3.13896  -0.00003   0.00000  -0.00000   0.00002  -3.13894
   D23        3.12159   0.00004   0.00000  -0.00614  -0.00613   3.11546
   D24        0.00815  -0.00005   0.00000   0.00235   0.00238   0.01053
   D25       -3.11406   0.00011   0.00000   0.00824   0.00829  -3.10578
   D26        0.02729   0.00005   0.00000   0.00724   0.00729   0.03458
   D27       -0.00293   0.00017   0.00000  -0.00112  -0.00113  -0.00407
   D28        3.13842   0.00010   0.00000  -0.00212  -0.00213   3.13629
   D29       -0.01131   0.00000   0.00000  -0.00281  -0.00280  -0.01411
   D30        3.12737   0.00004   0.00000  -0.00087  -0.00085   3.12652
   D31        0.01200   0.00010   0.00000   0.00281   0.00281   0.01481
   D32        3.14140   0.00004   0.00000   0.00165   0.00165  -3.14013
   D33       -3.12734   0.00006   0.00000   0.00130   0.00130  -3.12604
   D34        0.00206   0.00001   0.00000   0.00013   0.00014   0.00220
   D35        3.14140   0.00000   0.00000  -0.00106  -0.00108   3.14032
   D36        0.00318  -0.00003   0.00000  -0.00172  -0.00172   0.00146
   D37       -0.00316   0.00004   0.00000   0.00093   0.00092  -0.00224
   D38       -3.14138   0.00002   0.00000   0.00028   0.00027  -3.14111
   D39       -0.00592  -0.00013   0.00000  -0.00101  -0.00098  -0.00690
   D40        3.13592  -0.00006   0.00000   0.00002   0.00004   3.13596
   D41       -3.13149  -0.00004   0.00000   0.00052   0.00053  -3.13096
   D42        0.01035   0.00003   0.00000   0.00154   0.00156   0.01191
   D43       -0.00040  -0.00001   0.00000  -0.00080  -0.00081  -0.00120
   D44        3.12552  -0.00013   0.00000  -0.00234  -0.00234   3.12318
   D45       -0.00145   0.00004   0.00000   0.00137   0.00138  -0.00007
   D46        3.13892   0.00003   0.00000   0.00054   0.00055   3.13947
   D47        0.00280  -0.00003   0.00000  -0.00150  -0.00150   0.00130
   D48        3.14107  -0.00001   0.00000  -0.00085  -0.00086   3.14021
   D49       -3.13746  -0.00002   0.00000  -0.00059  -0.00058  -3.13804
   D50        0.00081   0.00001   0.00000   0.00006   0.00006   0.00087
         Item               Value     Threshold  Converged?
 Maximum Force            0.043049     0.000450     NO 
 RMS     Force            0.009869     0.000300     NO 
 Maximum Displacement     0.092247     0.001800     NO 
 RMS     Displacement     0.025376     0.001200     NO 
 Predicted change in Energy=-1.000334D-02
 GradGradGradGradGradGradGradGradGradGradGradGradGradGradGradGradGradGrad

                          Input orientation:                          
 ---------------------------------------------------------------------
 Center     Atomic      Atomic             Coordinates (Angstroms)
 Number     Number       Type             X           Y           Z
 ---------------------------------------------------------------------
      1          6           0        3.953419    0.762816    0.264422
      2          6           0        2.551934    1.010406    0.457018
      3          6           0        1.742652    0.026370   -0.100807
      4          6           0        4.183410   -0.416784   -0.424930
      5          1           0        4.744120    1.426483    0.625708
      6         16           0        2.712869   -1.221556   -0.858930
      7          1           0        5.144501   -0.848815   -0.706672
      8          6           0        0.282985   -0.048867   -0.066733
      9         16           0       -0.512053   -1.371501    0.799390
     10          6           0       -2.079882   -0.717212    0.404502
     11          6           0       -1.966087    0.471228   -0.341443
     12          6           0       -0.616617    0.854300   -0.617451
     13          1           0       -0.307975    1.736033   -1.182850
     14         16           0       -3.535044    1.126279   -0.733997
     15          6           0       -4.319510   -0.199663    0.103260
     16          6           0       -3.435171   -1.107999    0.661399
     17          1           0       -5.409643   -0.231719    0.137428
     18          1           0       -3.741072   -1.994494    1.220274
     19          8           0        2.026855    2.094119    1.110364
     20          1           0        2.741309    2.595576    1.521046
 ---------------------------------------------------------------------
                    Distance matrix (angstroms):
                    1          2          3          4          5
     1  C    0.000000
     2  C    1.436160   0.000000
     3  C    2.358651   1.390839   0.000000
     4  C    1.385481   2.340175   2.501747   0.000000
     5  H    1.093704   2.237690   3.390715   2.194508   0.000000
     6  S    2.595884   2.596011   1.753108   1.731619   3.652703
     7  H    2.226894   3.395922   3.564491   1.090745   2.666931
     8  C    3.773670   2.558223   1.462002   3.934080   4.749512
     9  S    4.978147   3.895987   2.801445   4.945485   5.957033
    10  C    6.213761   4.943798   3.926833   6.325112   7.156212
    11  C    5.957570   4.619606   3.743067   6.213843   6.846515
    12  C    4.655244   3.349413   2.553143   4.969203   5.532661
    13  H    4.604479   3.375615   2.880770   5.038016   5.374976
    14  S    7.563466   6.203486   5.428149   7.877252   8.395444
    15  C    8.330288   6.986140   6.069806   8.522076   9.223161
    16  C    7.632091   6.354120   5.355148   7.726621   8.563042
    17  H    9.416590   8.064225   7.160915   9.611305  10.299853
    18  H    8.229314   7.015262   5.991693   8.245804   9.168156
    19  O    2.489906   1.370037   2.413150   3.648628   2.839746
    20  H    2.531269   1.918536   3.198209   3.865331   2.485892
                    6          7          8          9         10
     6  S    0.000000
     7  H    2.464742   0.000000
     8  C    2.811959   4.968278   0.000000
     9  S    3.629412   5.876906   1.769637   0.000000
    10  C    4.982076   7.310523   2.500377   1.744167   0.000000
    11  C    5.002593   7.241296   2.324712   2.609859   1.407755
    12  C    3.931026   6.008248   1.388627   2.640561   2.378063
    13  H    4.240018   6.052907   2.186508   3.691570   3.417273
    14  S    6.675653   8.901474   4.050130   4.210540   2.610007
    15  C    7.171083   9.520761   4.608101   4.044073   2.318305
    16  C    6.334248   8.691926   3.934034   2.938213   1.433708
    17  H    8.243040  10.605814   5.699222   5.071852   3.375551
    18  H    6.824506   9.164012   4.651331   3.315392   2.248663
    19  O    3.916942   4.656415   3.003170   4.307352   5.026640
    20  H    4.498398   4.754144   3.944297   5.181009   5.955260
                   11         12         13         14         15
    11  C    0.000000
    12  C    1.429683   0.000000
    13  H    2.248784   1.091965   0.000000
    14  S    1.744940   2.933389   3.314701   0.000000
    15  C    2.487259   3.916845   4.636098   1.753427   0.000000
    16  C    2.378626   3.664741   4.611847   2.636115   1.385153
    17  H    3.547046   4.972161   5.625140   2.473391   1.091140
    18  H    3.416039   4.610323   5.610525   3.687933   2.191742
    19  O    4.548088   3.392705   3.292186   5.939116   6.822906
    20  H    5.490109   4.345214   4.165094   6.829104   7.725196
                   16         17         18         19         20
    16  C    0.000000
    17  H    2.222825   0.000000
    18  H    1.091691   2.657831   0.000000
    19  O    6.347351   7.852238   7.070914   0.000000
    20  H    7.252887   8.737621   7.948615   0.964657   0.000000
 Stoichiometry    C10H6OS3
 Framework group  C1[X(C10H6OS3)]
 Deg. of freedom    54
 Full point group                 C1      NOp   1
 Largest Abelian subgroup         C1      NOp   1
 Largest concise Abelian subgroup C1      NOp   1
                         Standard orientation:                         
 ---------------------------------------------------------------------
 Center     Atomic      Atomic             Coordinates (Angstroms)
 Number     Number       Type             X           Y           Z
 ---------------------------------------------------------------------
      1          6           0        3.952840    0.776666    0.261329
      2          6           0        2.550780    1.020587    0.454430
      3          6           0        1.743957    0.033065   -0.100788
      4          6           0        4.185757   -0.403677   -0.425766
      5          1           0        4.741871    1.443363    0.620679
      6         16           0        2.717245   -1.213599   -0.857049
      7          1           0        5.147894   -0.833498   -0.707316
      8          6           0        0.284538   -0.046333   -0.065503
      9         16           0       -0.506038   -1.369484    0.803908
     10          6           0       -2.076041   -0.720556    0.408813
     11          6           0       -1.966229    0.466674   -0.339653
     12          6           0       -0.618074    0.853088   -0.617424
     13          1           0       -0.312397    1.734548   -1.184855
     14         16           0       -3.537360    1.116365   -0.732416
     15          6           0       -4.317377   -0.210122    0.108128
     16          6           0       -3.430007   -1.114741    0.667492
     17          1           0       -5.407388   -0.245268    0.143151
     18          1           0       -3.732934   -2.000969    1.228407
     19          8           0        2.023030    2.104113    1.105930
     20          1           0        2.736321    2.608483    1.515064
 ---------------------------------------------------------------------
 Rotational constants (GHZ):           1.2790542           0.2663507           0.2429322
 Standard basis: Aug-CC-pVDZ (5D, 7F)
 There are   416 symmetry adapted cartesian basis functions of A   symmetry.
 There are   388 symmetry adapted basis functions of A   symmetry.
   388 basis functions,   782 primitive gaussians,   416 cartesian basis functions
    61 alpha electrons       61 beta electrons
       nuclear repulsion energy      1118.5913382882 Hartrees.
 NAtoms=   20 NActive=   20 NUniq=   20 SFac= 1.00D+00 NAtFMM=   60 NAOKFM=F Big=F
 Integral buffers will be    131072 words long.
 Raffenetti 1 integral format.
 Two-electron integral symmetry is turned on.
 One-electron integrals computed using PRISM.
 NBasis=   388 RedAO= T EigKep=  3.98D-06  NBF=   388
 NBsUse=   388 1.00D-06 EigRej= -1.00D+00 NBFU=   388
 Initial guess from the checkpoint file:  "/tmp/pbs.4766300[60].pbs/Gau-4101800.chk"
 B after Tr=    -0.000000   -0.000000   -0.000000
         Rot=    0.999999    0.000228   -0.000527   -0.001253 Ang=   0.16 deg.
 ExpMin= 2.97D-02 ExpMax= 1.11D+05 ExpMxC= 1.07D+03 IAcc=3 IRadAn=         5 AccDes= 0.00D+00
 Harris functional with IExCor=  205 and IRadAn=       5 diagonalized for initial guess.
 HarFok:  IExCor=  205 AccDes= 0.00D+00 IRadAn=         5 IDoV= 1 UseB2=F ITyADJ=14
 ICtDFT=  3500011 ScaDFX=  1.000000  1.000000  1.000000  1.000000
 FoFCou: FMM=F IPFlag=           0 FMFlag=      100000 FMFlg1=           0
         NFxFlg=           0 DoJE=T BraDBF=F KetDBF=T FulRan=T
         wScrn=  0.000000 ICntrl=       500 IOpCl=  0 I1Cent=   200000004 NGrid=           0
         NMat0=    1 NMatS0=      1 NMatT0=    0 NMatD0=    1 NMtDS0=    0 NMtDT0=    0
 Petite list used in FoFCou.
 Requested convergence on RMS density matrix=1.00D-08 within 128 cycles.
 Requested convergence on MAX density matrix=1.00D-06.
 Requested convergence on             energy=1.00D-06.
 No special actions if energy rises.
 SCF Done:  E(RHF) =  -1649.63259184     A.U. after   15 cycles
            NFock= 15  Conv=0.41D-08     -V/T= 2.0006
 ExpMin= 2.97D-02 ExpMax= 1.11D+05 ExpMxC= 1.07D+03 IAcc=3 IRadAn=         5 AccDes= 0.00D+00
 HarFok:  IExCor=  205 AccDes= 0.00D+00 IRadAn=         5 IDoV=-2 UseB2=F ITyADJ=14
 ICtDFT= 12500011 ScaDFX=  1.000000  1.000000  1.000000  1.000000
 GSVD:  LWork=        -884 too small for GESVD, short by        3770 words or        3770 for optimal perf.
 Range of M.O.s used for correlation:    27   388
 NBasis=   388 NAE=    61 NBE=    61 NFC=    26 NFV=     0
 NROrb=    362 NOA=    35 NOB=    35 NVA=   327 NVB=   327

 **** Warning!!: The largest alpha MO coefficient is  0.80826407D+02

 Fully direct method using O(ONN) memory.
 JobTyp=1 Pass  1:  I=  27 to  61 NPSUse=  8 ParTrn=T ParDer=T DoDerP=T.
 Spin components of T(2) and E(2):
     alpha-alpha T2 =       0.1168981605D+00 E2=     -0.2766525159D+00
     alpha-beta  T2 =       0.5696715889D+00 E2=     -0.1434445621D+01
     beta-beta   T2 =       0.1168981605D+00 E2=     -0.2766525159D+00
 ANorm=    0.1342932578D+01
 E2 =    -0.1987750653D+01 EUMP2 =    -0.16516203424950D+04
          IDoAtm=11111111111111111111
          Differentiating once with respect to electric field.
                with respect to dipole field.
          Differentiating once with respect to nuclear coordinates.
 Keep R1 ints in memory in canonical form, NReq=2883857471.
          There are     1 degrees of freedom in the 1st order CPHF.  IDoFFX=0 NUNeed=     1.
 LinEq1:  Iter=  0 NonCon=     1 RMS=2.90D-03 Max=7.68D-02 NDo=     1
 AX will form     1 AO Fock derivatives at one time.
 LinEq1:  Iter=  1 NonCon=     1 RMS=7.12D-04 Max=9.83D-03 NDo=     1
 LinEq1:  Iter=  2 NonCon=     1 RMS=3.69D-04 Max=1.34D-02 NDo=     1
 LinEq1:  Iter=  3 NonCon=     1 RMS=1.02D-04 Max=1.91D-03 NDo=     1
 LinEq1:  Iter=  4 NonCon=     1 RMS=4.28D-05 Max=1.05D-03 NDo=     1
 LinEq1:  Iter=  5 NonCon=     1 RMS=1.79D-05 Max=5.30D-04 NDo=     1
 LinEq1:  Iter=  6 NonCon=     1 RMS=7.94D-06 Max=3.62D-04 NDo=     1
 LinEq1:  Iter=  7 NonCon=     1 RMS=3.70D-06 Max=1.32D-04 NDo=     1
 LinEq1:  Iter=  8 NonCon=     1 RMS=1.40D-06 Max=4.40D-05 NDo=     1
 LinEq1:  Iter=  9 NonCon=     1 RMS=5.87D-07 Max=1.85D-05 NDo=     1
 LinEq1:  Iter= 10 NonCon=     1 RMS=2.20D-07 Max=3.87D-06 NDo=     1
 LinEq1:  Iter= 11 NonCon=     1 RMS=9.47D-08 Max=4.02D-06 NDo=     1
 LinEq1:  Iter= 12 NonCon=     1 RMS=3.60D-08 Max=6.78D-07 NDo=     1
 LinEq1:  Iter= 13 NonCon=     1 RMS=1.42D-08 Max=3.72D-07 NDo=     1
 LinEq1:  Iter= 14 NonCon=     1 RMS=4.82D-09 Max=1.21D-07 NDo=     1
 LinEq1:  Iter= 15 NonCon=     1 RMS=2.05D-09 Max=7.04D-08 NDo=     1
 LinEq1:  Iter= 16 NonCon=     1 RMS=8.20D-10 Max=2.08D-08 NDo=     1
 LinEq1:  Iter= 17 NonCon=     1 RMS=3.70D-10 Max=1.06D-08 NDo=     1
 LinEq1:  Iter= 18 NonCon=     1 RMS=1.33D-10 Max=2.24D-09 NDo=     1
 LinEq1:  Iter= 19 NonCon=     0 RMS=4.50D-11 Max=7.53D-10 NDo=     1
 Linear equations converged to 1.000D-10 1.000D-09 after    19 iterations.
 End of Minotr F.D. properties file   721 does not exist.
 End of Minotr F.D. properties file   722 does not exist.
 End of Minotr F.D. properties file   788 does not exist.
 Calling FoFJK, ICntrl=  10002127 FMM=F ISym2X=0 I1Cent= 0 IOpClX= 0 NMat=1 NMatS=1 NMatT=0.
 ***** Axes restored to original set *****
 -------------------------------------------------------------------
 Center     Atomic                   Forces (Hartrees/Bohr)
 Number     Number              X              Y              Z
 -------------------------------------------------------------------
      1        6          -0.008039185    0.003640236    0.002384338
      2        6           0.015517904   -0.000307650   -0.002097382
      3        6          -0.006791660   -0.006144132   -0.001630641
      4        6           0.002345241   -0.003802253   -0.002130525
      5        1           0.000640602   -0.000756389   -0.000436312
      6       16          -0.000019502    0.004637506    0.002920459
      7        1          -0.000237023    0.000007366    0.000045825
      8        6           0.006678392   -0.001826757    0.001715940
      9       16          -0.001252422    0.003030581   -0.002854472
     10        6          -0.005932580   -0.007461195    0.004666894
     11        6           0.005896175    0.007326163   -0.004369808
     12        6          -0.008575408    0.001368350    0.000074819
     13        1           0.001258889   -0.000663490    0.000303396
     14       16           0.000957648   -0.003433710    0.002076417
     15        6          -0.003379567    0.002067217   -0.001240412
     16        6           0.006957110   -0.000132489   -0.000083950
     17        1          -0.000045431    0.000150463   -0.000058063
     18        1          -0.000897264    0.000462405   -0.000306583
     19        8          -0.008177825    0.001425747    0.000562048
     20        1           0.003095905    0.000412033    0.000458013
 -------------------------------------------------------------------
 Cartesian Forces:  Max     0.015517904 RMS     0.004085882

 GradGradGradGradGradGradGradGradGradGradGradGradGradGradGradGradGradGrad
 Berny optimization.
 Using GEDIIS/GDIIS optimizer.
 FormGI is forming the generalized inverse of G from B-inverse, IUseBI=4.
 Internal  Forces:  Max     0.005322775 RMS     0.001634091
 Search for a local minimum.
 Step number   2 out of a maximum of  116
 All quantities printed in internal units (Hartrees-Bohrs-Radians)
 Mixed Optimization -- RFO/linear search
 Update second derivatives using D2CorX and points    1    2
 DE= -1.02D-02 DEPred=-1.00D-02 R= 1.02D+00
 TightC=F SS=  1.41D+00  RLast= 1.96D-01 DXNew= 5.0454D-01 5.8734D-01
 Trust test= 1.02D+00 RLast= 1.96D-01 DXMaxT set to 5.05D-01
 ITU=  1  0
 Use linear search instead of GDIIS.
     Eigenvalues ---    0.01471   0.01576   0.01627   0.01704   0.01750
     Eigenvalues ---    0.01755   0.01983   0.02008   0.02070   0.02142
     Eigenvalues ---    0.02218   0.02284   0.02326   0.02354   0.02382
     Eigenvalues ---    0.02441   0.15775   0.16000   0.16000   0.16000
     Eigenvalues ---    0.16000   0.16034   0.22504   0.22601   0.23697
     Eigenvalues ---    0.24309   0.24769   0.24907   0.24982   0.24988
     Eigenvalues ---    0.25197   0.29004   0.29842   0.30395   0.31081
     Eigenvalues ---    0.31339   0.32659   0.35670   0.36056   0.36272
     Eigenvalues ---    0.36351   0.36412   0.36720   0.38685   0.39232
     Eigenvalues ---    0.39427   0.45336   0.50459   0.52130   0.53272
     Eigenvalues ---    0.54089   0.55198   0.593221000.000001000.00000
     Eigenvalues --- 1000.000001000.000001000.000001000.000001000.00000
     Eigenvalues --- 1000.000001000.000001000.000001000.000001000.00000
     Eigenvalues --- 1000.000001000.000001000.000001000.000001000.00000
     Eigenvalues --- 1000.000001000.000001000.000001000.000001000.00000
     Eigenvalues --- 1000.000001000.000001000.000001000.000001000.00000
     Eigenvalues --- 1000.000001000.000001000.000001000.000001000.00000
     Eigenvalues --- 1000.000001000.000001000.000001000.000001000.00000
     Eigenvalues --- 1000.000001000.000001000.000001000.000001000.00000
     Eigenvalues --- 1000.000001000.000001000.000001000.000001000.00000
     Eigenvalues --- 1000.000001000.000001000.000001000.000001000.00000
     Eigenvalues --- 1000.00000
 RFO step:  Lambda=-9.24905476D-04 EMin= 1.47080093D-02
 Quartic linear search produced a step of  0.10757.
 Iteration  1 RMS(Cart)=  0.01951723 RMS(Int)=  0.00017367
 Iteration  2 RMS(Cart)=  0.00023117 RMS(Int)=  0.00002373
 Iteration  3 RMS(Cart)=  0.00000003 RMS(Int)=  0.00002373
 Iteration  1 RMS(Cart)=  0.00001257 RMS(Int)=  0.00000507
 Iteration  2 RMS(Cart)=  0.00000687 RMS(Int)=  0.00000567
 Iteration  3 RMS(Cart)=  0.00000376 RMS(Int)=  0.00000640
 Iteration  4 RMS(Cart)=  0.00000206 RMS(Int)=  0.00000689
 Iteration  5 RMS(Cart)=  0.00000112 RMS(Int)=  0.00000717
 Iteration  6 RMS(Cart)=  0.00000061 RMS(Int)=  0.00000734
 Variable       Old X    -DE/DX   Delta X   Delta X   Delta X     New X
                                 (Linear)    (Quad)   (Total)
    R1        2.71395  -0.00532  -0.00043  -0.01455  -0.01499   2.69896
    R2        2.61818   0.00289   0.00740   0.00190   0.00929   2.62747
    R3        2.06680  -0.00014   0.00283  -0.00182   0.00101   2.06781
    R4        2.62830   0.00441   0.00771   0.00496   0.01268   2.64098
    R5        2.58899   0.00389   0.00409   0.00568   0.00977   2.59876
    R6        3.31289  -0.00313   0.00063  -0.01162  -0.01098   3.30191
    R7        2.76278  -0.00171  -0.00154  -0.00452  -0.00606   2.75673
    R8        3.27229  -0.00097   0.00199  -0.00421  -0.00222   3.27007
    R9        2.06121  -0.00022   0.00290  -0.00211   0.00079   2.06200
   R10        3.34413  -0.00109   0.00170  -0.00523  -0.00352   3.34061
   R11        2.62412   0.00383   0.00753   0.00375   0.01129   2.63542
   R12        3.29600  -0.00132   0.00158  -0.00534  -0.00376   3.29224
   R13        2.66027   0.00527   0.00884   0.00702   0.01585   2.67612
   R14        2.70932  -0.00347  -0.00026  -0.00926  -0.00953   2.69979
   R15        2.70171  -0.00346  -0.00069  -0.00891  -0.00960   2.69211
   R16        3.29746  -0.00137   0.00162  -0.00538  -0.00376   3.29370
   R17        2.06352  -0.00034   0.00310  -0.00255   0.00055   2.06406
   R18        3.31350  -0.00127   0.00191  -0.00578  -0.00387   3.30963
   R19        2.61756   0.00249   0.00734   0.00101   0.00835   2.62591
   R20        2.06196   0.00004   0.00284  -0.00128   0.00156   2.06351
   R21        2.06300  -0.00028   0.00279  -0.00223   0.00056   2.06356
   R22        1.82294   0.00270   0.00455   0.00263   0.00718   1.83012
    A1        1.95573   0.00038  -0.00017   0.00209   0.00191   1.95764
    A2        2.16107   0.00092   0.00009   0.00658   0.00667   2.16774
    A3        2.16637  -0.00130   0.00008  -0.00869  -0.00860   2.15776
    A4        1.97366   0.00155  -0.00115   0.00760   0.00645   1.98012
    A5        2.18258   0.00278   0.00282   0.01086   0.01369   2.19626
    A6        2.12693  -0.00433  -0.00168  -0.01846  -0.02014   2.10679
    A7        1.93377  -0.00237   0.00100  -0.01088  -0.00989   1.92388
    A8        2.22433   0.00042  -0.00059   0.00185   0.00123   2.22556
    A9        2.12467   0.00196  -0.00043   0.00864   0.00817   2.13284
   A10        1.95997  -0.00179   0.00014  -0.00890  -0.00876   1.95120
   A11        2.22941   0.00098   0.00091   0.00468   0.00559   2.23499
   A12        2.09377   0.00080  -0.00105   0.00421   0.00316   2.09694
   A13        1.60158   0.00223   0.00017   0.01004   0.01024   1.61181
   A14        2.09257   0.00092  -0.00124   0.00461   0.00327   2.09584
   A15        2.21942   0.00097  -0.00017   0.00426   0.00398   2.22340
   A16        1.97053  -0.00188   0.00138  -0.00968  -0.00836   1.96216
   A17        1.58346   0.00261  -0.00025   0.01114   0.01091   1.59437
   A18        1.94335  -0.00250   0.00048  -0.01112  -0.01065   1.93270
   A19        2.35592   0.00158   0.00011   0.00623   0.00635   2.36227
   A20        1.98391   0.00092  -0.00059   0.00489   0.00430   1.98821
   A21        1.98755   0.00103  -0.00043   0.00504   0.00459   1.99214
   A22        1.94275  -0.00251   0.00034  -0.01075  -0.01040   1.93236
   A23        2.35277   0.00148   0.00009   0.00567   0.00576   2.35853
   A24        1.93977   0.00074  -0.00119   0.00447   0.00329   1.94305
   A25        2.15008  -0.00183   0.00021  -0.01212  -0.01192   2.13816
   A26        2.19334   0.00109   0.00098   0.00765   0.00863   2.20197
   A27        1.58177   0.00229   0.00008   0.00994   0.01003   1.59179
   A28        1.98522  -0.00138   0.00092  -0.00789  -0.00698   1.97824
   A29        2.07618   0.00053  -0.00124   0.00312   0.00187   2.07806
   A30        2.22178   0.00086   0.00033   0.00478   0.00511   2.22689
   A31        1.93112   0.00069  -0.00075   0.00382   0.00305   1.93417
   A32        2.18701   0.00071   0.00048   0.00527   0.00575   2.19276
   A33        2.16505  -0.00139   0.00027  -0.00909  -0.00881   2.15624
   A34        1.90748  -0.00296  -0.00295  -0.01925  -0.02220   1.88528
    D1       -0.01231   0.00009  -0.00033  -0.00315  -0.00347  -0.01578
    D2        3.13471   0.00008  -0.00004  -0.00390  -0.00393   3.13077
    D3        3.13501   0.00007  -0.00018   0.00033   0.00017   3.13518
    D4       -0.00115   0.00006   0.00011  -0.00042  -0.00029  -0.00145
    D5        0.01151   0.00008   0.00023   0.00326   0.00348   0.01499
    D6       -3.13981  -0.00003   0.00017   0.00231   0.00246  -3.13735
    D7       -3.13583   0.00011   0.00007  -0.00018  -0.00008  -3.13591
    D8       -0.00397  -0.00000   0.00001  -0.00113  -0.00110  -0.00507
    D9        0.00749  -0.00023   0.00030   0.00151   0.00178   0.00927
   D10        3.11847   0.00013  -0.00021  -0.01274  -0.01288   3.10558
   D11       -3.13934  -0.00019   0.00003   0.00233   0.00233  -3.13700
   D12       -0.02836   0.00017  -0.00048  -0.01192  -0.01233  -0.04069
   D13       -0.13367   0.00013   0.00031   0.00604   0.00635  -0.12732
   D14        3.01380   0.00010   0.00062   0.00515   0.00577   3.01957
   D15       -0.00083   0.00025  -0.00014   0.00034   0.00023  -0.00060
   D16       -3.11384  -0.00006   0.00034   0.01375   0.01409  -3.09975
   D17       -2.00711  -0.00121  -0.00000   0.00000   0.00000  -2.00711
   D18        1.09210  -0.00106  -0.00104  -0.02576  -0.02683   1.06527
   D19        1.10083  -0.00089  -0.00055  -0.01598  -0.01656   1.08427
   D20       -2.08315  -0.00073  -0.00158  -0.04173  -0.04340  -2.12654
   D21       -0.00623  -0.00018  -0.00004  -0.00206  -0.00211  -0.00834
   D22       -3.13894  -0.00008   0.00000  -0.00120  -0.00120  -3.14014
   D23        3.11546   0.00013  -0.00066  -0.01181  -0.01239   3.10307
   D24        0.01053  -0.00006   0.00026   0.01020   0.01043   0.02096
   D25       -3.10578  -0.00008   0.00089   0.01505   0.01592  -3.08985
   D26        0.03458  -0.00008   0.00078   0.01629   0.01704   0.05161
   D27       -0.00407   0.00012  -0.00012  -0.00892  -0.00898  -0.01305
   D28        3.13629   0.00011  -0.00023  -0.00768  -0.00787   3.12842
   D29       -0.01411   0.00001  -0.00030  -0.00852  -0.00881  -0.02292
   D30        3.12652  -0.00001  -0.00009  -0.00571  -0.00580   3.12072
   D31        0.01481   0.00006   0.00030   0.00521   0.00548   0.02030
[...]
 Number     Number       Type             X           Y           Z
 ---------------------------------------------------------------------
      1          6           0        3.933585    0.805185    0.299127
      2          6           0        2.535507    1.039951    0.431947
      3          6           0        1.743505    0.035625   -0.136142
      4          6           0        4.203790   -0.393788   -0.353801
      5          1           0        4.712993    1.476486    0.670052
      6         16           0        2.754387   -1.213035   -0.817255
      7          1           0        5.176657   -0.823121   -0.593660
      8          6           0        0.289936   -0.061594   -0.111829
      9         16           0       -0.496749   -1.390908    0.745170
     10          6           0       -2.072984   -0.741301    0.392266
     11          6           0       -1.964289    0.472283   -0.333527
     12          6           0       -0.626796    0.857826   -0.622188
     13          1           0       -0.312652    1.748823   -1.168979
     14         16           0       -3.541768    1.121420   -0.686864
     15          6           0       -4.316624   -0.219464    0.126456
     16          6           0       -3.417538   -1.138962    0.652343
     17          1           0       -5.406041   -0.252671    0.174942
     18          1           0       -3.725346   -2.035913    1.192624
     19          8           0        1.950229    2.126467    1.044176
     20          1           0        2.650074    2.660475    1.446906
 ---------------------------------------------------------------------
 Rotational constants (GHZ):           1.2920610           0.2678317           0.2421910

 **********************************************************************

            Population analysis using the SCF Density.

 **********************************************************************

 Orbital symmetries:
       Occupied  (A) (A) (A) (A) (A) (A) (A) (A) (A) (A) (A) (A)
                 (A) (A) (A) (A) (A) (A) (A) (A) (A) (A) (A) (A)
                 (A) (A) (A) (A) (A) (A) (A) (A) (A) (A) (A) (A)
                 (A) (A) (A) (A) (A) (A) (A) (A) (A) (A) (A) (A)
                 (A) (A) (A) (A) (A) (A) (A) (A) (A) (A) (A) (A)
                 (A)
       Virtual   (A) (A) (A) (A) (A) (A) (A) (A) (A) (A) (A) (A)
                 (A) (A) (A) (A) (A) (A) (A) (A) (A) (A) (A) (A)
                 (A) (A) (A) (A) (A) (A) (A) (A) (A) (A) (A) (A)
                 (A) (A) (A) (A) (A) (A) (A) (A) (A) (A) (A) (A)
                 (A) (A) (A) (A) (A) (A) (A) (A) (A) (A) (A) (A)
                 (A) (A) (A) (A) (A) (A) (A) (A) (A) (A) (A) (A)
                 (A) (A) (A) (A) (A) (A) (A) (A) (A) (A) (A) (A)
                 (A) (A) (A) (A) (A) (A) (A) (A) (A) (A) (A) (A)
                 (A) (A) (A) (A) (A) (A) (A) (A) (A) (A) (A) (A)
                 (A) (A) (A) (A) (A) (A) (A) (A) (A) (A) (A) (A)
                 (A) (A) (A) (A) (A) (A) (A) (A) (A) (A) (A) (A)
                 (A) (A) (A) (A) (A) (A) (A) (A) (A) (A) (A) (A)
                 (A) (A) (A) (A) (A) (A) (A) (A) (A) (A) (A) (A)
                 (A) (A) (A) (A) (A) (A) (A) (A) (A) (A) (A) (A)
                 (A) (A) (A) (A) (A) (A) (A) (A) (A) (A) (A) (A)
                 (A) (A) (A) (A) (A) (A) (A) (A) (A) (A) (A) (A)
                 (A) (A) (A) (A) (A) (A) (A) (A) (A) (A) (A) (A)
                 (A) (A) (A) (A) (A) (A) (A) (A) (A) (A) (A) (A)
                 (A) (A) (A) (A) (A) (A) (A) (A) (A) (A) (A) (A)
                 (A) (A) (A) (A) (A) (A) (A) (A) (A) (A) (A) (A)
                 (A) (A) (A) (A) (A) (A) (A) (A) (A) (A) (A) (A)
                 (A) (A) (A) (A) (A) (A) (A) (A) (A) (A) (A) (A)
                 (A) (A) (A) (A) (A) (A) (A) (A) (A) (A) (A) (A)
                 (A) (A) (A) (A) (A) (A) (A) (A) (A) (A) (A) (A)
                 (A) (A) (A) (A) (A) (A) (A) (A) (A) (A) (A) (A)
                 (A) (A) (A) (A) (A) (A) (A) (A) (A) (A) (A) (A)
                 (A) (A) (A) (A) (A) (A) (A) (A) (A) (A) (A) (A)
                 (A) (A) (A)
 The electronic state is 1-A.
 Alpha  occ. eigenvalues --  -91.99613 -91.99074 -91.98931 -20.61356 -11.32474
 Alpha  occ. eigenvalues --  -11.29255 -11.28868 -11.28102 -11.27614 -11.27607
 Alpha  occ. eigenvalues --  -11.27484 -11.26369 -11.26160 -11.25959  -8.99742
 Alpha  occ. eigenvalues --   -8.99188  -8.99025  -6.67905  -6.67813  -6.67629
 Alpha  occ. eigenvalues --   -6.67353  -6.67273  -6.67188  -6.67103  -6.67077
 Alpha  occ. eigenvalues --   -6.66904  -1.41410  -1.20136  -1.17567  -1.11562
 Alpha  occ. eigenvalues --   -1.02328  -1.01813  -0.98768  -0.94459  -0.93788
 Alpha  occ. eigenvalues --   -0.82402  -0.80294  -0.76362  -0.73699  -0.71986
 Alpha  occ. eigenvalues --   -0.69314  -0.66268  -0.65822  -0.61041  -0.60263
 Alpha  occ. eigenvalues --   -0.58114  -0.56458  -0.55559  -0.53977  -0.52832
 Alpha  occ. eigenvalues --   -0.52748  -0.50495  -0.49429  -0.48617  -0.45879
 Alpha  occ. eigenvalues --   -0.45608  -0.38563  -0.34970  -0.32872  -0.31653
 Alpha  occ. eigenvalues --   -0.27750
 Alpha virt. eigenvalues --    0.02776   0.03735   0.03923   0.04985   0.05079
 Alpha virt. eigenvalues --    0.06229   0.07112   0.08076   0.08428   0.09036
 Alpha virt. eigenvalues --    0.09646   0.10114   0.10461   0.10919   0.11238
 Alpha virt. eigenvalues --    0.12320   0.12545   0.12652   0.12940   0.13498
 Alpha virt. eigenvalues --    0.13668   0.14039   0.14468   0.14727   0.15019
 Alpha virt. eigenvalues --    0.15377   0.15788   0.16284   0.16650   0.16783
 Alpha virt. eigenvalues --    0.17763   0.18076   0.18228   0.18545   0.19268
 Alpha virt. eigenvalues --    0.19674   0.20080   0.20337   0.21027   0.21171
 Alpha virt. eigenvalues --    0.21643   0.22281   0.22771   0.23161   0.23472
 Alpha virt. eigenvalues --    0.23551   0.24464   0.24723   0.24949   0.25578
 Alpha virt. eigenvalues --    0.26710   0.27134   0.27536   0.27749   0.27987
 Alpha virt. eigenvalues --    0.28551   0.29837   0.30756   0.31021   0.31626
 Alpha virt. eigenvalues --    0.31897   0.32431   0.32503   0.32894   0.33043
 Alpha virt. eigenvalues --    0.33720   0.34555   0.34800   0.34998   0.35539
 Alpha virt. eigenvalues --    0.36262   0.36886   0.37728   0.38424   0.38767
 Alpha virt. eigenvalues --    0.39810   0.40682   0.40792   0.40898   0.42080
 Alpha virt. eigenvalues --    0.43242   0.43569   0.44055   0.44863   0.45008
 Alpha virt. eigenvalues --    0.45732   0.45957   0.46617   0.48085   0.48236
 Alpha virt. eigenvalues --    0.49092   0.49328   0.49720   0.51061   0.51627
 Alpha virt. eigenvalues --    0.53062   0.53618   0.53921   0.54382   0.54940
 Alpha virt. eigenvalues --    0.55739   0.56852   0.58354   0.58790   0.59397
 Alpha virt. eigenvalues --    0.59816   0.60305   0.61007   0.61430   0.62086
 Alpha virt. eigenvalues --    0.62726   0.63007   0.64244   0.64711   0.65346
 Alpha virt. eigenvalues --    0.65923   0.66615   0.67207   0.67976   0.68027
 Alpha virt. eigenvalues --    0.68321   0.69133   0.69716   0.70143   0.70670
 Alpha virt. eigenvalues --    0.71274   0.71866   0.72469   0.72738   0.73609
 Alpha virt. eigenvalues --    0.73737   0.74635   0.75089   0.75723   0.76028
 Alpha virt. eigenvalues --    0.76458   0.76902   0.77787   0.78553   0.78738
 Alpha virt. eigenvalues --    0.81010   0.81669   0.82814   0.83597   0.84155
 Alpha virt. eigenvalues --    0.84997   0.85437   0.86388   0.87378   0.87646
 Alpha virt. eigenvalues --    0.87786   0.88904   0.89769   0.90278   0.91353
 Alpha virt. eigenvalues --    0.91384   0.92711   0.93016   0.93966   0.94685
 Alpha virt. eigenvalues --    0.95356   0.95772   0.96128   0.96885   0.97381
 Alpha virt. eigenvalues --    0.98944   0.99783   1.00542   1.02343   1.03085
 Alpha virt. eigenvalues --    1.03929   1.04747   1.05341   1.06565   1.07428
 Alpha virt. eigenvalues --    1.08475   1.09299   1.09998   1.10759   1.11967
 Alpha virt. eigenvalues --    1.13160   1.13807   1.16617   1.16758   1.18746
 Alpha virt. eigenvalues --    1.19677   1.20661   1.21617   1.22349   1.23155
 Alpha virt. eigenvalues --    1.24225   1.24380   1.25012   1.25610   1.27023
 Alpha virt. eigenvalues --    1.27795   1.28257   1.29463   1.30000   1.31506
 Alpha virt. eigenvalues --    1.32215   1.33824   1.34591   1.35379   1.36451
 Alpha virt. eigenvalues --    1.38061   1.38507   1.40475   1.40823   1.42397
 Alpha virt. eigenvalues --    1.42610   1.44165   1.45232   1.46087   1.48539
 Alpha virt. eigenvalues --    1.50238   1.53952   1.54277   1.55525   1.56697
 Alpha virt. eigenvalues --    1.57623   1.58496   1.59678   1.60617   1.61673
 Alpha virt. eigenvalues --    1.62238   1.63457   1.65065   1.66008   1.66874
 Alpha virt. eigenvalues --    1.67330   1.68930   1.69424   1.70521   1.71702
 Alpha virt. eigenvalues --    1.73283   1.73939   1.75621   1.75903   1.76645
 Alpha virt. eigenvalues --    1.79246   1.80136   1.80709   1.81873   1.83562
 Alpha virt. eigenvalues --    1.84554   1.84968   1.87505   1.88165   1.89811
 Alpha virt. eigenvalues --    1.90519   1.91177   1.93858   1.95057   1.95911
 Alpha virt. eigenvalues --    1.98325   1.98566   2.00389   2.02804   2.03624
 Alpha virt. eigenvalues --    2.05227   2.06722   2.06978   2.07573   2.09270
 Alpha virt. eigenvalues --    2.10043   2.12283   2.13001   2.14239   2.14288
 Alpha virt. eigenvalues --    2.15576   2.16321   2.17814   2.19167   2.19899
 Alpha virt. eigenvalues --    2.21582   2.25143   2.25538   2.26493   2.29163
 Alpha virt. eigenvalues --    2.30526   2.30987   2.32043   2.33913   2.35865
 Alpha virt. eigenvalues --    2.37839   2.39931   2.41237   2.42570   2.44006
 Alpha virt. eigenvalues --    2.45325   2.47172   2.47843   2.48919   2.50312
 Alpha virt. eigenvalues --    2.54141   2.55886   2.58299   2.58608   2.64122
 Alpha virt. eigenvalues --    2.70200   2.77377   2.79595   2.82113   2.83645
 Alpha virt. eigenvalues --    2.86968   2.87587   2.94474   2.95366   3.01387
 Alpha virt. eigenvalues --    3.11056   3.12969   3.20850   3.23363   3.31480
 Alpha virt. eigenvalues --    3.36752   3.46258   3.52260   3.59079   3.76299
 Alpha virt. eigenvalues --    3.76959   3.77825   3.85326   3.88184   4.19819
 Alpha virt. eigenvalues --    4.23522   4.43727
          Condensed to atoms (all electrons):
               1          2          3          4          5          6
     1  C    7.540541  -1.881991  -0.151663   0.197262  -0.034531  -0.463407
     2  C   -1.881991   9.394431  -1.108407   0.286353   0.125287  -0.287187
     3  C   -0.151663  -1.108407  10.836806  -1.188496  -0.037667  -0.199516
     4  C    0.197262   0.286353  -1.188496   6.321354  -0.059769   0.409858
     5  H   -0.034531   0.125287  -0.037667  -0.059769   1.542478  -0.015512
     6  S   -0.463407  -0.287187  -0.199516   0.409858  -0.015512  16.291213
     7  H   -0.061321   0.053893   0.043201   0.280448  -0.063718  -0.147024
     8  C    0.441999  -0.715023  -1.996942   0.226461   0.025642  -0.112201
     9  S   -0.035602   0.008340  -0.649090   0.035662  -0.002497   0.278852
    10  C    0.012516   0.021455  -0.230007   0.017199   0.000690   0.037694
    11  C   -0.046534  -0.067179   0.388469  -0.009699  -0.002370   0.031159
    12  C   -0.019958   0.409814  -0.278619  -0.088729  -0.003398  -0.287409
    13  H    0.003979  -0.019750   0.103537   0.005105   0.000890   0.011568
    14  S    0.000150   0.008895  -0.072495  -0.000705  -0.000004   0.002428
    15  C   -0.000881  -0.011477   0.032996   0.000756  -0.000036   0.005004
    16  C    0.000536   0.016812  -0.345897  -0.002855  -0.000102   0.009080
    17  H   -0.000067   0.000041  -0.000087   0.000033  -0.000003   0.000197
    18  H   -0.000236   0.000177  -0.008099  -0.000090  -0.000023   0.001217
    19  O    0.077829  -0.655497   0.271351  -0.068636  -0.058132   0.003279
    20  H   -0.149569   0.015703  -0.001910  -0.012813  -0.009115   0.014837
               7          8          9         10         11         12
     1  C   -0.061321   0.441999  -0.035602   0.012516  -0.046534  -0.019958
     2  C    0.053893  -0.715023   0.008340   0.021455  -0.067179   0.409814
     3  C    0.043201  -1.996942  -0.649090  -0.230007   0.388469  -0.278619
     4  C    0.280448   0.226461   0.035662   0.017199  -0.009699  -0.088729
     5  H   -0.063718   0.025642  -0.002497   0.000690  -0.002370  -0.003398
     6  S   -0.147024  -0.112201   0.278852   0.037694   0.031159  -0.287409
     7  H    1.210961  -0.006744   0.003692   0.001016   0.000406  -0.000603
     8  C   -0.006744  11.004059   0.310169  -0.187385  -0.412623  -2.744909
     9  S    0.003692   0.310169  16.373423   0.298312  -0.390903  -0.469469
    10  C    0.001016  -0.187385   0.298312   9.637202   0.067699  -0.888851
    11  C    0.000406  -0.412623  -0.390903   0.067699  10.579803  -2.838404
    12  C   -0.000603  -2.744909  -0.469469  -0.888851  -2.838404  14.133114
    13  H    0.000210   0.283029   0.030278  -0.071471   0.475098  -0.899676
    14  S   -0.000061  -0.235583   0.090909  -0.049267  -0.264600  -0.013644
    15  C    0.000052   0.049070  -0.089937  -0.177252  -0.737085  -0.101082
    16  C   -0.000063  -0.348010  -0.233086  -2.251811  -0.733413   0.184630
    17  H    0.000003   0.000903   0.006050   0.032318  -0.032488   0.033521
    18  H    0.000012   0.091865   0.014136   0.490539   0.043862  -0.066221
    19  O   -0.001691   0.028093   0.002496   0.001977   0.027969  -0.056602
    20  H    0.001267  -0.014926  -0.001935   0.000443   0.001245   0.013293
              13         14         15         16         17         18
     1  C    0.003979   0.000150  -0.000881   0.000536  -0.000067  -0.000236
     2  C   -0.019750   0.008895  -0.011477   0.016812   0.000041   0.000177
     3  C    0.103537  -0.072495   0.032996  -0.345897  -0.000087  -0.008099
     4  C    0.005105  -0.000705   0.000756  -0.002855   0.000033  -0.000090
     5  H    0.000890  -0.000004  -0.000036  -0.000102  -0.000003  -0.000023
     6  S    0.011568   0.002428   0.005004   0.009080   0.000197   0.001217
     7  H    0.000210  -0.000061   0.000052  -0.000063   0.000003   0.000012
     8  C    0.283029  -0.235583   0.049070  -0.348010   0.000903   0.091865
     9  S    0.030278   0.090909  -0.089937  -0.233086   0.006050   0.014136
    10  C   -0.071471  -0.049267  -0.177252  -2.251811   0.032318   0.490539
    11  C    0.475098  -0.264600  -0.737085  -0.733413  -0.032488   0.043862
    12  C   -0.899676  -0.013644  -0.101082   0.184630   0.033521  -0.066221
    13  H    1.524473  -0.042891   0.013567  -0.035540   0.001568  -0.001120
    14  S   -0.042891  15.928756   0.190232  -0.015987  -0.152020  -0.002620
    15  C    0.013567   0.190232   6.506495   0.307297   0.281112  -0.137706
    16  C   -0.035540  -0.015987   0.307297   9.350712   0.000138  -0.422038
    17  H    0.001568  -0.152020   0.281112   0.000138   1.239104  -0.060621
    18  H   -0.001120  -0.002620  -0.137706  -0.422038  -0.060621   1.348390
    19  O    0.010605  -0.003638  -0.000084  -0.000633  -0.000046   0.000118
    20  H   -0.000763   0.000282  -0.000030   0.000477   0.000009   0.000026
              19         20
     1  C    0.077829  -0.149569
     2  C   -0.655497   0.015703
     3  C    0.271351  -0.001910
     4  C   -0.068636  -0.012813
     5  H   -0.058132  -0.009115
     6  S    0.003279   0.014837
     7  H   -0.001691   0.001267
     8  C    0.028093  -0.014926
     9  S    0.002496  -0.001935
    10  C    0.001977   0.000443
    11  C    0.027969   0.001245
    12  C   -0.056602   0.013293
    13  H    0.010605  -0.000763
    14  S   -0.003638   0.000282
    15  C   -0.000084  -0.000030
    16  C   -0.000633   0.000477
    17  H   -0.000046   0.000009
    18  H    0.000118   0.000026
    19  O    9.021471   0.364217
    20  H    0.364217   0.588423
 Mulliken charges:
               1
     1  C    0.570948
     2  C    0.405310
     3  C    0.592534
     4  C   -0.348698
     5  H   -0.408111
     6  S    0.415868
     7  H   -0.313939
     8  C    0.313057
     9  S    0.420199
    10  C   -0.763015
    11  C   -0.080414
    12  C   -0.016798
    13  H   -0.392697
    14  S    0.631861
    15  C   -0.131013
    16  C    0.519755
    17  H   -0.349666
    18  H   -0.291571
    19  O   -0.964445
    20  H    0.190836
 Sum of Mulliken charges =  -0.00000
 Mulliken charges with hydrogens summed into heavy atoms:
               1
     1  C    0.162837
     2  C    0.405310
     3  C    0.592534
     4  C   -0.662638
     6  S    0.415868
     8  C    0.313057
     9  S    0.420199
    10  C   -0.763015
    11  C   -0.080414
    12  C   -0.409495
    14  S    0.631861
    15  C   -0.480679
    16  C    0.228184
    19  O   -0.773609
 Electronic spatial extent (au):  <R**2>=           4325.5075
 Charge=             -0.0000 electrons
 Dipole moment (field-independent basis, Debye):
    X=              2.1689    Y=              1.0042    Z=              0.7388  Tot=              2.5017
 Quadrupole moment (field-independent basis, Debye-Ang):
   XX=            -78.1781   YY=            -98.7857   ZZ=           -106.6082
   XY=              9.0991   XZ=              0.8976   YZ=              0.2259
 Traceless Quadrupole moment (field-independent basis, Debye-Ang):
   XX=             16.3459   YY=             -4.2617   ZZ=            -12.0842
   XY=              9.0991   XZ=              0.8976   YZ=              0.2259
 Octapole moment (field-independent basis, Debye-Ang**2):
  XXX=             45.4911  YYY=             22.6437  ZZZ=              8.3674  XYY=             20.7345
  XXY=              5.6366  XXZ=             21.4315  XZZ=              9.1995  YZZ=              8.0499
  YYZ=             11.5180  XYZ=             26.5800
 Hexadecapole moment (field-independent basis, Debye-Ang**3):
 XXXX=          -4027.3796 YYYY=           -810.3929 ZZZZ=           -382.9158 XXXY=            103.1283
 XXXZ=            -11.3518 YYYX=             88.6894 YYYZ=             25.8635 ZZZX=             22.3088
 ZZZY=             17.2050 XXYY=           -870.1769 XXZZ=           -908.5672 YYZZ=           -179.2339
 XXYZ=             46.7512 YYXZ=             24.3149 ZZXY=             28.6789
 N-N= 1.119889872704D+03 E-N=-6.146365258067D+03  KE= 1.648683178963D+03
 Unable to Open any file for archive entry.
 1\1\GINC-CX3-12-29\FOpt\RMP2-FC\Aug-CC-pVDZ\C10H6O1S3\NS5018\27-Oct-20
 21\0\\# opt=modredundant mp2/aug-cc-pvdz\\pBTTT_-115.pdb\\0,1\C,3.9443
 289273,0.7627674291,0.2830827713\C,2.5491126428,1.0089534551,0.4250022
 751\C,1.7452321702,0.0176784982,-0.1492904595\C,4.2004076249,-0.431992
 2862,-0.3831269867\H,4.7316217723,1.4231477882,0.6569466653\S,2.741358
 0934,-1.2332500448,-0.8477601596\H,5.1681409853,-0.8677640462,-0.63197
 52519\C,0.2909623234,-0.0664896654,-0.1189296752\S,-0.5038328331,-1.39
 71167838,0.7284947467\C,-2.0756875844,-0.7296093107,0.3897396439\C,-1.
 9592872738,0.490174943,-0.3243709463\C,-0.6196915107,0.8663622831,-0.6
 156127471\H,-0.2999687325,1.7599099566,-1.1549579713\S,-3.5323913135,1
 .1572285562,-0.6635581454\C,-4.3156721567,-0.1846361388,0.1400168804\C
 ,-3.4225908359,-1.1175608518,0.6523114129\H,-5.4051062308,-0.208370274
 3,0.1934316745\H,-3.736063793,-2.0170543634,1.1850572751\O,1.976752128
 2,2.0945567315,1.0509118475\H,2.6833755967,2.6180641242,1.4555871503\\
 Version=ES64L-G16RevC.01\State=1-A\HF=-1649.6298635\MP2=-1651.6210611\
 RMSD=5.401e-09\RMSF=5.506e-04\Dipole=0.6751211,0.32194,0.2523513\PG=C0
 1 [X(C10H6O1S3)]\\@
 The archive entry for this job was punched.


 WE DON'T KNOW ONE MILLIONTH OF ONE PERCENT ABOUT
 ANYTHING.
                                     T. A. EDISON.
 Job cpu time:       0 days 15 hours  4 minutes 32.6 seconds.
 Elapsed time:       0 days  2 hours  1 minutes 48.6 seconds.
 File lengths (MBytes):  RWF=    106 Int=      0 D2E=      0 Chk=     16 Scr=      1
 Normal termination of Gaussian 16 at Wed Oct 27 06:11:20 2021.
