 Entering Gaussian System, Link 0=g16
 Input=pBTTT_-160.gjf
 Output=pBTTT_-160.log
 Initial command:
 /apps/gaussian/g16-c01-avx/g16/l1.exe "/tmp/pbs.4766300[15].pbs/Gau-1763286.inp" -scrdir="/tmp/pbs.4766300[15].pbs/"
 Entering Link 1 = /apps/gaussian/g16-c01-avx/g16/l1.exe PID=   1763287.
  
 Copyright (c) 1988-2019, Gaussian, Inc.  All Rights Reserved.
  
 This is part of the Gaussian(R) 16 program.  It is based on
 the Gaussian(R) 09 system (copyright 2009, Gaussian, Inc.),
 the Gaussian(R) 03 system (copyright 2003, Gaussian, Inc.),
 the Gaussian(R) 98 system (copyright 1998, Gaussian, Inc.),
 the Gaussian(R) 94 system (copyright 1995, Gaussian, Inc.),
 the Gaussian 92(TM) system (copyright 1992, Gaussian, Inc.),
 the Gaussian 90(TM) system (copyright 1990, Gaussian, Inc.),
 the Gaussian 88(TM) system (copyright 1988, Gaussian, Inc.),
 the Gaussian 86(TM) system (copyright 1986, Carnegie Mellon
 University), and the Gaussian 82(TM) system (copyright 1983,
 Carnegie Mellon University). Gaussian is a federally registered
 trademark of Gaussian, Inc.
  
 This software contains proprietary and confidential information,
 including trade secrets, belonging to Gaussian, Inc.
  
 This software is provided under written license and may be
 used, copied, transmitted, or stored only in accord with that
 written license.
  
 The following legend is applicable only to US Government
 contracts under FAR:
  
                    RESTRICTED RIGHTS LEGEND
  
 Use, reproduction and disclosure by the US Government is
 subject to restrictions as set forth in subparagraphs (a)
 and (c) of the Commercial Computer Software - Restricted
 Rights clause in FAR 52.227-19.
  
 Gaussian, Inc.
 340 Quinnipiac St., Bldg. 40, Wallingford CT 06492
  
  
 ---------------------------------------------------------------
 Warning -- This program may not be used in any manner that
 competes with the business of Gaussian, Inc. or will provide
 assistance to any competitor of Gaussian, Inc.  The licensee
 of this program is prohibited from giving any competitor of
 Gaussian, Inc. access to this program.  By using this program,
 the user acknowledges that Gaussian, Inc. is engaged in the
 business of creating and licensing software in the field of
 computational chemistry and represents and warrants to the
 licensee that it is not a competitor of Gaussian, Inc. and that
 it will not use this program in any manner prohibited above.
 ---------------------------------------------------------------
  

 Cite this work as:
 Gaussian 16, Revision C.01,
 M. J. Frisch, G. W. Trucks, H. B. Schlegel, G. E. Scuseria, 
 M. A. Robb, J. R. Cheeseman, G. Scalmani, V. Barone, 
 G. A. Petersson, H. Nakatsuji, X. Li, M. Caricato, A. V. Marenich, 
 J. Bloino, B. G. Janesko, R. Gomperts, B. Mennucci, H. P. Hratchian, 
 J. V. Ortiz, A. F. Izmaylov, J. L. Sonnenberg, D. Williams-Young, 
 F. Ding, F. Lipparini, F. Egidi, J. Goings, B. Peng, A. Petrone, 
 T. Henderson, D. Ranasinghe, V. G. Zakrzewski, J. Gao, N. Rega, 
 G. Zheng, W. Liang, M. Hada, M. Ehara, K. Toyota, R. Fukuda, 
 J. Hasegawa, M. Ishida, T. Nakajima, Y. Honda, O. Kitao, H. Nakai, 
 T. Vreven, K. Throssell, J. A. Montgomery, Jr., J. E. Peralta, 
 F. Ogliaro, M. J. Bearpark, J. J. Heyd, E. N. Brothers, K. N. Kudin, 
 V. N. Staroverov, T. A. Keith, R. Kobayashi, J. Normand, 
 K. Raghavachari, A. P. Rendell, J. C. Burant, S. S. Iyengar, 
 J. Tomasi, M. Cossi, J. M. Millam, M. Klene, C. Adamo, R. Cammi, 
 J. W. Ochterski, R. L. Martin, K. Morokuma, O. Farkas, 
 J. B. Foresman, and D. J. Fox, Gaussian, Inc., Wallingford CT, 2019.
 
 ******************************************
 Gaussian 16:  ES64L-G16RevC.01  3-Jul-2019
                27-Oct-2021 
 ******************************************
 %mem=100GB
 %nprocshared=8
 Will use up to    8 processors via shared memory.
 ----------------------------------
 # opt=modredundant mp2/aug-cc-pvdz
 ----------------------------------
 1/18=120,19=15,38=1/1,3;
 2/9=110,12=2,17=6,18=5,40=1/2;
 3/5=16,7=10,11=9,25=1,30=1,71=1/1,2,3;
 4//1;
 5/5=2,38=5/2;
 8/6=4,10=1/1;
 9/15=2,16=-3/6;
 10/5=1/2;
 6/7=2,8=2,9=2,10=2/1;
 7/12=2/1,2,3,16;
 1/18=20,19=15/3(2);
 2/9=110/2;
 99//99;
 2/9=110/2;
 3/5=16,7=10,11=9,25=1,30=1,71=1/1,2,3;
 4/5=5,16=3,69=1/1;
 5/5=2,38=5/2;
 8/6=4,10=1/1;
 9/15=2,16=-3/6;
 10/5=1/2;
 7/12=2/1,2,3,16;
 1/18=20,19=15/3(-8);
 2/9=110/2;
 6/7=2,8=2,9=2,10=2/1;
 99/9=10/99;
 --------------
 pBTTT_-160.pdb
 --------------
 Symbolic Z-matrix:
 Charge =  0 Multiplicity = 1
 C                     3.934     0.858     0.077 
 C                     2.528     1.136     0.151 
 C                     1.741     0.043    -0.018 
 C                     4.186    -0.447    -0.15 
 H                     4.7       1.611     0.191 
 S                     2.738    -1.368    -0.296 
 H                     5.146    -0.922    -0.249 
 C                     0.279    -0.03     -0.002 
 S                    -0.531    -1.569     0.283 
 C                    -2.087    -0.813     0.132 
 C                    -1.958     0.523    -0.104 
 C                    -0.605     0.982    -0.186 
 H                    -0.311     1.999    -0.374 
 S                    -3.514     1.283    -0.249 
 C                    -4.308    -0.249     0.018 
 C                    -3.445    -1.269     0.204 
 H                    -5.384    -0.297     0.019 
 H                    -3.748    -2.288     0.382 
 O                     2.026     2.373     0.362 
 H                     2.711     2.977     0.594 
 
 The following ModRedundant input section has been read:
 D       2       3       8       9 F                                           
 

 GradGradGradGradGradGradGradGradGradGradGradGradGradGradGradGradGradGrad
 Berny optimization.
 Initialization pass.
                           ----------------------------
                           !    Initial Parameters    !
                           ! (Angstroms and Degrees)  !
 --------------------------                            --------------------------
 ! Name  Definition              Value          Derivative Info.                !
 --------------------------------------------------------------------------------
 ! R1    R(1,2)                  1.4351         estimate D2E/DX2                !
 ! R2    R(1,4)                  1.3484         estimate D2E/DX2                !
 ! R3    R(1,5)                  1.0802         estimate D2E/DX2                !
 ! R4    R(2,3)                  1.3574         estimate D2E/DX2                !
 ! R5    R(2,19)                 1.3516         estimate D2E/DX2                !
 ! R6    R(3,6)                  1.7499         estimate D2E/DX2                !
 ! R7    R(3,8)                  1.4639         estimate D2E/DX2                !
 ! R8    R(4,6)                  1.7223         estimate D2E/DX2                !
 ! R9    R(4,7)                  1.0757         estimate D2E/DX2                !
 ! R10   R(8,9)                  1.7623         estimate D2E/DX2                !
 ! R11   R(8,12)                 1.3563         estimate D2E/DX2                !
 ! R12   R(9,10)                 1.7365         estimate D2E/DX2                !
 ! R13   R(10,11)                1.3628         estimate D2E/DX2                !
 ! R14   R(10,16)                1.4343         estimate D2E/DX2                !
 ! R15   R(11,12)                1.4311         estimate D2E/DX2                !
 ! R16   R(11,14)                1.7377         estimate D2E/DX2                !
 ! R17   R(12,13)                1.0752         estimate D2E/DX2                !
 ! R18   R(14,15)                1.7461         estimate D2E/DX2                !
 ! R19   R(15,16)                1.349          estimate D2E/DX2                !
 ! R20   R(15,17)                1.0771         estimate D2E/DX2                !
 ! R21   R(16,18)                1.0779         estimate D2E/DX2                !
 ! R22   R(19,20)                0.9423         estimate D2E/DX2                !
 ! A1    A(2,1,4)              112.2881         estimate D2E/DX2                !
 ! A2    A(2,1,5)              123.6608         estimate D2E/DX2                !
 ! A3    A(4,1,5)              124.0511         estimate D2E/DX2                !
 ! A4    A(1,2,3)              113.9296         estimate D2E/DX2                !
 ! A5    A(1,2,19)             123.3141         estimate D2E/DX2                !
 ! A6    A(3,2,19)             122.7553         estimate D2E/DX2                !
 ! A7    A(2,3,6)              109.7984         estimate D2E/DX2                !
 ! A8    A(2,3,8)              128.1567         estimate D2E/DX2                !
 ! A9    A(6,3,8)              122.041          estimate D2E/DX2                !
 ! A10   A(1,4,6)              112.0059         estimate D2E/DX2                !
 ! A11   A(1,4,7)              127.567          estimate D2E/DX2                !
 ! A12   A(6,4,7)              120.4245         estimate D2E/DX2                !
 ! A13   A(3,6,4)               91.9687         estimate D2E/DX2                !
 ! A14   A(3,8,9)              120.287          estimate D2E/DX2                !
 ! A15   A(3,8,12)             127.7523         estimate D2E/DX2                !
 ! A16   A(9,8,12)             111.9608         estimate D2E/DX2                !
 ! A17   A(8,9,10)              91.0081         estimate D2E/DX2                !
 ! A18   A(9,10,11)            110.9181         estimate D2E/DX2                !
 ! A19   A(9,10,16)            134.8777         estimate D2E/DX2                !
 ! A20   A(11,10,16)           114.2036         estimate D2E/DX2                !
 ! A21   A(10,11,12)           114.4464         estimate D2E/DX2                !
 ! A22   A(10,11,14)           111.0043         estimate D2E/DX2                !
 ! A23   A(12,11,14)           134.5475         estimate D2E/DX2                !
 ! A24   A(8,12,11)            111.6619         estimate D2E/DX2                !
 ! A25   A(8,12,13)            123.4543         estimate D2E/DX2                !
 ! A26   A(11,12,13)           124.8833         estimate D2E/DX2                !
 ! A27   A(11,14,15)            90.6124         estimate D2E/DX2                !
 ! A28   A(14,15,16)           113.1783         estimate D2E/DX2                !
 ! A29   A(14,15,17)           119.5727         estimate D2E/DX2                !
 ! A30   A(16,15,17)           127.2489         estimate D2E/DX2                !
 ! A31   A(10,16,15)           111.0013         estimate D2E/DX2                !
 ! A32   A(10,16,18)           125.0986         estimate D2E/DX2                !
 ! A33   A(15,16,18)           123.9001         estimate D2E/DX2                !
 ! A34   A(2,19,20)            110.7997         estimate D2E/DX2                !
 ! D1    D(4,1,2,3)              0.1            estimate D2E/DX2                !
 ! D2    D(4,1,2,19)          -179.5419         estimate D2E/DX2                !
 ! D3    D(5,1,2,3)           -179.8811         estimate D2E/DX2                !
 ! D4    D(5,1,2,19)             0.477          estimate D2E/DX2                !
 ! D5    D(2,1,4,6)              0.588          estimate D2E/DX2                !
 ! D6    D(2,1,4,7)           -179.9941         estimate D2E/DX2                !
 ! D7    D(5,1,4,6)           -179.431          estimate D2E/DX2                !
 ! D8    D(5,1,4,7)             -0.0131         estimate D2E/DX2                !
 ! D9    D(1,2,3,6)             -0.7191         estimate D2E/DX2                !
 ! D10   D(1,2,3,8)            179.9965         estimate D2E/DX2                !
 ! D11   D(19,2,3,6)           178.9251         estimate D2E/DX2                !
 ! D12   D(19,2,3,8)            -0.3592         estimate D2E/DX2                !
 ! D13   D(1,2,19,20)           -9.5506         estimate D2E/DX2                !
 ! D14   D(3,2,19,20)          170.8386         estimate D2E/DX2                !
 ! D15   D(2,3,6,4)              0.8823         estimate D2E/DX2                !
 ! D16   D(8,3,6,4)           -179.7816         estimate D2E/DX2                !
 ! D17   D(2,3,8,9)           -159.9681         Frozen                          !
 ! D18   D(2,3,8,12)            19.9826         estimate D2E/DX2                !
 ! D19   D(6,3,8,9)             20.8263         estimate D2E/DX2                !
 ! D20   D(6,3,8,12)          -159.223          estimate D2E/DX2                !
 ! D21   D(1,4,6,3)             -0.8469         estimate D2E/DX2                !
 ! D22   D(7,4,6,3)            179.6882         estimate D2E/DX2                !
 ! D23   D(3,8,9,10)          -179.5325         estimate D2E/DX2                !
 ! D24   D(12,8,9,10)            0.5095         estimate D2E/DX2                !
 ! D25   D(3,8,12,11)          179.8055         estimate D2E/DX2                !
 ! D26   D(3,8,12,13)            0.0614         estimate D2E/DX2                !
 ! D27   D(9,8,12,11)           -0.2404         estimate D2E/DX2                !
 ! D28   D(9,8,12,13)         -179.9845         estimate D2E/DX2                !
 ! D29   D(8,9,10,11)           -0.6476         estimate D2E/DX2                !
 ! D30   D(8,9,10,16)          179.6593         estimate D2E/DX2                !
 ! D31   D(9,10,11,12)           0.647          estimate D2E/DX2                !
 ! D32   D(9,10,11,14)        -179.7667         estimate D2E/DX2                !
 ! D33   D(16,10,11,12)       -179.5914         estimate D2E/DX2                !
 ! D34   D(16,10,11,14)         -0.005          estimate D2E/DX2                !
 ! D35   D(9,10,16,15)         179.6662         estimate D2E/DX2                !
 ! D36   D(9,10,16,18)          -0.3572         estimate D2E/DX2                !
 ! D37   D(11,10,16,15)         -0.0196         estimate D2E/DX2                !
 ! D38   D(11,10,16,18)        179.957          estimate D2E/DX2                !
 ! D39   D(10,11,12,8)          -0.2651         estimate D2E/DX2                !
 ! D40   D(10,11,12,13)        179.4746         estimate D2E/DX2                !
 ! D41   D(14,11,12,8)        -179.7233         estimate D2E/DX2                !
 ! D42   D(14,11,12,13)          0.0165         estimate D2E/DX2                !
 ! D43   D(10,11,14,15)          0.0207         estimate D2E/DX2                !
 ! D44   D(12,11,14,15)        179.4923         estimate D2E/DX2                !
 ! D45   D(11,14,15,16)         -0.0328         estimate D2E/DX2                !
 ! D46   D(11,14,15,17)       -179.9637         estimate D2E/DX2                !
 ! D47   D(14,15,16,10)          0.0353         estimate D2E/DX2                !
 ! D48   D(14,15,16,18)       -179.9417         estimate D2E/DX2                !
 ! D49   D(17,15,16,10)        179.9598         estimate D2E/DX2                !
 ! D50   D(17,15,16,18)         -0.0172         estimate D2E/DX2                !
 --------------------------------------------------------------------------------
 Trust Radius=3.00D-01 FncErr=1.00D-07 GrdErr=1.00D-07 EigMax=2.50D+02 EigMin=1.00D-04
 Number of steps in this run=    116 maximum allowed number of steps=    120.
 GradGradGradGradGradGradGradGradGradGradGradGradGradGradGradGradGradGrad

                          Input orientation:                          
 ---------------------------------------------------------------------
 Center     Atomic      Atomic             Coordinates (Angstroms)
 Number     Number       Type             X           Y           Z
 ---------------------------------------------------------------------
      1          6           0        3.934000    0.858000    0.077000
      2          6           0        2.528000    1.136000    0.151000
      3          6           0        1.741000    0.043000   -0.018000
      4          6           0        4.186000   -0.447000   -0.150000
      5          1           0        4.700000    1.611000    0.191000
      6         16           0        2.738000   -1.368000   -0.296000
      7          1           0        5.146000   -0.922000   -0.249000
      8          6           0        0.279000   -0.030000   -0.002000
      9         16           0       -0.531000   -1.569000    0.283000
     10          6           0       -2.087000   -0.813000    0.132000
     11          6           0       -1.958000    0.523000   -0.104000
     12          6           0       -0.605000    0.982000   -0.186000
     13          1           0       -0.311000    1.999000   -0.374000
     14         16           0       -3.514000    1.283000   -0.249000
     15          6           0       -4.308000   -0.249000    0.018000
     16          6           0       -3.445000   -1.269000    0.204000
     17          1           0       -5.384000   -0.297000    0.019000
     18          1           0       -3.748000   -2.288000    0.382000
     19          8           0        2.026000    2.373000    0.362000
     20          1           0        2.711000    2.977000    0.594000
 ---------------------------------------------------------------------
                    Distance matrix (angstroms):
                    1          2          3          4          5
     1  C    0.000000
     2  C    1.435129   0.000000
     3  C    2.341474   1.357416   0.000000
     4  C    1.348354   2.312024   2.497108   0.000000
     5  H    1.080167   2.223693   3.355292   2.148451   0.000000
     6  S    2.554334   2.552239   1.749918   1.722284   3.600146
     7  H    2.177985   3.353996   3.546634   1.075651   2.609330
     8  C    3.762155   2.537906   1.463909   3.931977   4.719679
     9  S    5.086157   4.085576   2.801987   4.867901   6.122436
    10  C    6.248816   5.009709   3.925407   6.289993   7.207123
    11  C    5.904291   4.534864   3.731005   6.220269   6.752757
    12  C    4.548304   3.154833   2.532521   4.999702   5.355445
    13  H    4.418745   3.013356   2.857162   5.124071   5.057657
    14  S    7.467235   6.057010   5.404256   7.892573   8.232313
    15  C    8.316219   6.976160   6.056151   8.497968   9.199652
    16  C    7.680488   6.439221   5.353991   7.683304   8.639189
    17  H    9.389489   8.041807   7.133204   9.572667  10.264361
    18  H    8.306832   7.152993   5.976845   8.162148   9.306309
    19  O    2.452940   1.351552   2.377925   3.588892   2.785707
    20  H    2.500636   1.902372   3.150206   3.801702   2.446321
                    6          7          8          9         10
     6  S    0.000000
     7  H    2.449406   0.000000
     8  C    2.814847   4.954227   0.000000
     9  S    3.325959   5.738463   1.762341   0.000000
    10  C    4.875637   7.243848   2.495797   1.736512   0.000000
    11  C    5.066079   7.250922   2.306595   2.561750   1.362803
    12  C    4.087817   6.058315   1.356265   2.594810   2.349356
    13  H    4.543036   6.190857   2.145536   3.634649   3.364158
    14  S    6.790988   8.936309   4.021421   4.161156   2.564119
    15  C    7.141209   9.481684   4.592269   4.009782   2.294326
    16  C    6.203974   8.609930   3.930106   2.930467   1.434324
    17  H    8.198363  10.551936   5.669330   5.023872   3.339047
    18  H    6.585915   9.020385   4.632791   3.297856   2.235407
    19  O    3.864581   4.578728   2.993145   4.699346   5.207712
    20  H    4.435296   4.673551   3.913041   5.592263   6.131749
                   11         12         13         14         15
    11  C    0.000000
    12  C    1.431088   0.000000
    13  H    2.228023   1.075206   0.000000
    14  S    1.737746   2.925210   3.284431   0.000000
    15  C    2.476564   3.907581   4.602519   1.746067   0.000000
    16  C    2.348893   3.644818   4.564632   2.592812   1.348987
    17  H    3.524912   4.951435   5.582239   2.462747   1.077071
    18  H    3.367791   4.570993   5.546429   3.633863   2.145604
    19  O    4.417229   3.026111   2.478536   5.679174   6.863875
    20  H    5.320609   3.947693   3.320541   6.506221   7.746303
                   16         17         18         19         20
    16  C    0.000000
    17  H    2.176862   0.000000
    18  H    1.077893   2.602373   0.000000
    19  O    6.574266   7.883822   7.420539   0.000000
    20  H    7.488455   8.750927   8.335697   0.942266   0.000000
 Stoichiometry    C10H6OS3
 Framework group  C1[X(C10H6OS3)]
 Deg. of freedom    54
 Full point group                 C1      NOp   1
 Largest Abelian subgroup         C1      NOp   1
 Largest concise Abelian subgroup C1      NOp   1
                         Standard orientation:                         
 ---------------------------------------------------------------------
 Center     Atomic      Atomic             Coordinates (Angstroms)
 Number     Number       Type             X           Y           Z
 ---------------------------------------------------------------------
      1          6           0        3.933966    0.858122    0.077008
      2          6           0        2.527955    1.136067    0.151008
      3          6           0        1.740998    0.043036   -0.017992
      4          6           0        4.186018   -0.446868   -0.149992
      5          1           0        4.699937    1.611152    0.191008
      6         16           0        2.738054   -1.367925   -0.295992
      7          1           0        5.146036   -0.921830   -0.248992
      8          6           0        0.279001   -0.030022   -0.001992
      9         16           0       -0.530938   -1.569054    0.283008
     10          6           0       -2.086968   -0.813115    0.132008
     11          6           0       -1.958021    0.522890   -0.103992
     12          6           0       -0.605039    0.981943   -0.185992
     13          1           0       -0.311079    1.998955   -0.373992
     14         16           0       -3.514050    1.282829   -0.248992
     15          6           0       -4.307990   -0.249202    0.018008
     16          6           0       -3.444950   -1.269168    0.204008
     17          1           0       -5.383988   -0.297244    0.019008
     18          1           0       -3.747910   -2.288180    0.382008
     19          8           0        2.025907    2.373047    0.362008
     20          1           0        2.710883    2.977074    0.594008
 ---------------------------------------------------------------------
 Rotational constants (GHZ):           1.3148185           0.2809138           0.2340463
 Standard basis: Aug-CC-pVDZ (5D, 7F)
 There are   416 symmetry adapted cartesian basis functions of A   symmetry.
 There are   388 symmetry adapted basis functions of A   symmetry.
   388 basis functions,   782 primitive gaussians,   416 cartesian basis functions
    61 alpha electrons       61 beta electrons
       nuclear repulsion energy      1129.9009493235 Hartrees.
 NAtoms=   20 NActive=   20 NUniq=   20 SFac= 1.00D+00 NAtFMM=   60 NAOKFM=F Big=F
 Integral buffers will be    131072 words long.
 Raffenetti 1 integral format.
 Two-electron integral symmetry is turned on.
 One-electron integrals computed using PRISM.
 NBasis=   388 RedAO= T EigKep=  3.06D-06  NBF=   388
 NBsUse=   388 1.00D-06 EigRej= -1.00D+00 NBFU=   388
 ExpMin= 2.97D-02 ExpMax= 1.11D+05 ExpMxC= 1.07D+03 IAcc=3 IRadAn=         5 AccDes= 0.00D+00
 Harris functional with IExCor=  205 and IRadAn=       5 diagonalized for initial guess.
 HarFok:  IExCor=  205 AccDes= 0.00D+00 IRadAn=         5 IDoV= 1 UseB2=F ITyADJ=14
 ICtDFT=  3500011 ScaDFX=  1.000000  1.000000  1.000000  1.000000
 FoFCou: FMM=F IPFlag=           0 FMFlag=      100000 FMFlg1=           0
         NFxFlg=           0 DoJE=T BraDBF=F KetDBF=T FulRan=T
         wScrn=  0.000000 ICntrl=       500 IOpCl=  0 I1Cent=   200000004 NGrid=           0
         NMat0=    1 NMatS0=      1 NMatT0=    0 NMatD0=    1 NMtDS0=    0 NMtDT0=    0
 Petite list used in FoFCou.
 Requested convergence on RMS density matrix=1.00D-08 within 128 cycles.
 Requested convergence on MAX density matrix=1.00D-06.
 Requested convergence on             energy=1.00D-06.
 No special actions if energy rises.
 SCF Done:  E(RHF) =  -1649.64253676     A.U. after   17 cycles
            NFock= 17  Conv=0.72D-08     -V/T= 2.0000
 ExpMin= 2.97D-02 ExpMax= 1.11D+05 ExpMxC= 1.07D+03 IAcc=3 IRadAn=         5 AccDes= 0.00D+00
 HarFok:  IExCor=  205 AccDes= 0.00D+00 IRadAn=         5 IDoV=-2 UseB2=F ITyADJ=14
 ICtDFT= 12500011 ScaDFX=  1.000000  1.000000  1.000000  1.000000
 GSVD:  LWork=        -884 too small for GESVD, short by        3770 words or        3770 for optimal perf.
 Range of M.O.s used for correlation:    27   388
 NBasis=   388 NAE=    61 NBE=    61 NFC=    26 NFV=     0
 NROrb=    362 NOA=    35 NOB=    35 NVA=   327 NVB=   327

 **** Warning!!: The largest alpha MO coefficient is  0.80926999D+02

 Fully direct method using O(ONN) memory.
 JobTyp=1 Pass  1:  I=  27 to  61 NPSUse=  8 ParTrn=T ParDer=T DoDerP=T.
 Spin components of T(2) and E(2):
     alpha-alpha T2 =       0.1140227154D+00 E2=     -0.2744232923D+00
     alpha-beta  T2 =       0.5546712938D+00 E2=     -0.1421323329D+01
     beta-beta   T2 =       0.1140227154D+00 E2=     -0.2744232923D+00
 ANorm=    0.1335184154D+01
 E2 =    -0.1970169913D+01 EUMP2 =    -0.16516127066706D+04
          IDoAtm=11111111111111111111
          Differentiating once with respect to electric field.
                with respect to dipole field.
          Differentiating once with respect to nuclear coordinates.
 Keep R1 ints in memory in canonical form, NReq=2883857471.
          There are     1 degrees of freedom in the 1st order CPHF.  IDoFFX=0 NUNeed=     1.
 LinEq1:  Iter=  0 NonCon=     1 RMS=2.87D-03 Max=5.78D-02 NDo=     1
 AX will form     1 AO Fock derivatives at one time.
 LinEq1:  Iter=  1 NonCon=     1 RMS=6.77D-04 Max=1.41D-02 NDo=     1
 LinEq1:  Iter=  2 NonCon=     1 RMS=3.47D-04 Max=1.02D-02 NDo=     1
 LinEq1:  Iter=  3 NonCon=     1 RMS=9.20D-05 Max=1.99D-03 NDo=     1
 LinEq1:  Iter=  4 NonCon=     1 RMS=3.57D-05 Max=8.18D-04 NDo=     1
 LinEq1:  Iter=  5 NonCon=     1 RMS=1.54D-05 Max=6.57D-04 NDo=     1
 LinEq1:  Iter=  6 NonCon=     1 RMS=5.99D-06 Max=2.17D-04 NDo=     1
 LinEq1:  Iter=  7 NonCon=     1 RMS=3.06D-06 Max=1.28D-04 NDo=     1
 LinEq1:  Iter=  8 NonCon=     1 RMS=1.08D-06 Max=2.85D-05 NDo=     1
 LinEq1:  Iter=  9 NonCon=     1 RMS=5.13D-07 Max=1.96D-05 NDo=     1
 LinEq1:  Iter= 10 NonCon=     1 RMS=1.91D-07 Max=3.44D-06 NDo=     1
 LinEq1:  Iter= 11 NonCon=     1 RMS=8.40D-08 Max=3.18D-06 NDo=     1
 LinEq1:  Iter= 12 NonCon=     1 RMS=3.06D-08 Max=5.41D-07 NDo=     1
 LinEq1:  Iter= 13 NonCon=     1 RMS=1.17D-08 Max=1.84D-07 NDo=     1
 LinEq1:  Iter= 14 NonCon=     1 RMS=3.64D-09 Max=5.69D-08 NDo=     1
 LinEq1:  Iter= 15 NonCon=     1 RMS=1.50D-09 Max=3.80D-08 NDo=     1
 LinEq1:  Iter= 16 NonCon=     1 RMS=5.77D-10 Max=1.59D-08 NDo=     1
 LinEq1:  Iter= 17 NonCon=     1 RMS=2.35D-10 Max=5.42D-09 NDo=     1
 LinEq1:  Iter= 18 NonCon=     1 RMS=8.88D-11 Max=1.68D-09 NDo=     1
 LinEq1:  Iter= 19 NonCon=     0 RMS=2.87D-11 Max=4.32D-10 NDo=     1
 Linear equations converged to 1.000D-10 1.000D-09 after    19 iterations.
 End of Minotr F.D. properties file   721 does not exist.
 End of Minotr F.D. properties file   722 does not exist.
 End of Minotr F.D. properties file   788 does not exist.

 **********************************************************************

            Population analysis using the SCF Density.

 **********************************************************************

 Orbital symmetries:
       Occupied  (A) (A) (A) (A) (A) (A) (A) (A) (A) (A) (A) (A)
                 (A) (A) (A) (A) (A) (A) (A) (A) (A) (A) (A) (A)
                 (A) (A) (A) (A) (A) (A) (A) (A) (A) (A) (A) (A)
                 (A) (A) (A) (A) (A) (A) (A) (A) (A) (A) (A) (A)
                 (A) (A) (A) (A) (A) (A) (A) (A) (A) (A) (A) (A)
                 (A)
       Virtual   (A) (A) (A) (A) (A) (A) (A) (A) (A) (A) (A) (A)
                 (A) (A) (A) (A) (A) (A) (A) (A) (A) (A) (A) (A)
                 (A) (A) (A) (A) (A) (A) (A) (A) (A) (A) (A) (A)
                 (A) (A) (A) (A) (A) (A) (A) (A) (A) (A) (A) (A)
                 (A) (A) (A) (A) (A) (A) (A) (A) (A) (A) (A) (A)
                 (A) (A) (A) (A) (A) (A) (A) (A) (A) (A) (A) (A)
                 (A) (A) (A) (A) (A) (A) (A) (A) (A) (A) (A) (A)
                 (A) (A) (A) (A) (A) (A) (A) (A) (A) (A) (A) (A)
                 (A) (A) (A) (A) (A) (A) (A) (A) (A) (A) (A) (A)
                 (A) (A) (A) (A) (A) (A) (A) (A) (A) (A) (A) (A)
                 (A) (A) (A) (A) (A) (A) (A) (A) (A) (A) (A) (A)
                 (A) (A) (A) (A) (A) (A) (A) (A) (A) (A) (A) (A)
                 (A) (A) (A) (A) (A) (A) (A) (A) (A) (A) (A) (A)
                 (A) (A) (A) (A) (A) (A) (A) (A) (A) (A) (A) (A)
                 (A) (A) (A) (A) (A) (A) (A) (A) (A) (A) (A) (A)
                 (A) (A) (A) (A) (A) (A) (A) (A) (A) (A) (A) (A)
                 (A) (A) (A) (A) (A) (A) (A) (A) (A) (A) (A) (A)
                 (A) (A) (A) (A) (A) (A) (A) (A) (A) (A) (A) (A)
                 (A) (A) (A) (A) (A) (A) (A) (A) (A) (A) (A) (A)
                 (A) (A) (A) (A) (A) (A) (A) (A) (A) (A) (A) (A)
                 (A) (A) (A) (A) (A) (A) (A) (A) (A) (A) (A) (A)
                 (A) (A) (A) (A) (A) (A) (A) (A) (A) (A) (A) (A)
                 (A) (A) (A) (A) (A) (A) (A) (A) (A) (A) (A) (A)
                 (A) (A) (A) (A) (A) (A) (A) (A) (A) (A) (A) (A)
                 (A) (A) (A) (A) (A) (A) (A) (A) (A) (A) (A) (A)
                 (A) (A) (A) (A) (A) (A) (A) (A) (A) (A) (A) (A)
                 (A) (A) (A) (A) (A) (A) (A) (A) (A) (A) (A) (A)
                 (A) (A) (A)
 The electronic state is 1-A.
 Alpha  occ. eigenvalues --  -91.99163 -91.98551 -91.98521 -20.61477 -11.31863
 Alpha  occ. eigenvalues --  -11.28751 -11.28467 -11.27491 -11.27279 -11.26787
 Alpha  occ. eigenvalues --  -11.26629 -11.25709 -11.25405 -11.24777  -8.99383
 Alpha  occ. eigenvalues --   -8.98732  -8.98718  -6.67553  -6.67461  -6.67259
 Alpha  occ. eigenvalues --   -6.66899  -6.66888  -6.66821  -6.66808  -6.66615
 Alpha  occ. eigenvalues --   -6.66594  -1.43431  -1.21285  -1.18639  -1.12578
 Alpha  occ. eigenvalues --   -1.03112  -1.02015  -0.98925  -0.95520  -0.94232
 Alpha  occ. eigenvalues --   -0.82837  -0.81533  -0.76960  -0.75231  -0.72290
 Alpha  occ. eigenvalues --   -0.69919  -0.67063  -0.66202  -0.62262  -0.61530
 Alpha  occ. eigenvalues --   -0.58436  -0.56309  -0.56035  -0.54235  -0.53157
 Alpha  occ. eigenvalues --   -0.52001  -0.51352  -0.49576  -0.48274  -0.46728
 Alpha  occ. eigenvalues --   -0.45587  -0.38883  -0.35938  -0.34101  -0.31822
 Alpha  occ. eigenvalues --   -0.27391
 Alpha virt. eigenvalues --    0.02661   0.03739   0.03850   0.05107   0.05134
 Alpha virt. eigenvalues --    0.06586   0.07056   0.08302   0.08786   0.09555
 Alpha virt. eigenvalues --    0.10398   0.10510   0.10809   0.11053   0.11670
 Alpha virt. eigenvalues --    0.12480   0.12543   0.13033   0.13133   0.13316
 Alpha virt. eigenvalues --    0.13856   0.14089   0.14591   0.14764   0.15359
 Alpha virt. eigenvalues --    0.15520   0.16016   0.16158   0.16722   0.17114
 Alpha virt. eigenvalues --    0.17834   0.18174   0.18658   0.19457   0.19628
 Alpha virt. eigenvalues --    0.20059   0.20459   0.20959   0.21312   0.21974
 Alpha virt. eigenvalues --    0.22233   0.22411   0.22918   0.23528   0.24035
 Alpha virt. eigenvalues --    0.24206   0.24398   0.25745   0.25965   0.26347
 Alpha virt. eigenvalues --    0.26660   0.26836   0.27130   0.28067   0.28334
 Alpha virt. eigenvalues --    0.28999   0.29583   0.30093   0.30989   0.31286
 Alpha virt. eigenvalues --    0.31718   0.32101   0.32521   0.33028   0.33618
 Alpha virt. eigenvalues --    0.33924   0.34343   0.34718   0.35263   0.35634
 Alpha virt. eigenvalues --    0.36452   0.37387   0.38125   0.38626   0.39491
 Alpha virt. eigenvalues --    0.40199   0.40576   0.41518   0.41814   0.42314
 Alpha virt. eigenvalues --    0.43626   0.43804   0.44605   0.45491   0.45545
 Alpha virt. eigenvalues --    0.45805   0.46903   0.47221   0.48569   0.49211
 Alpha virt. eigenvalues --    0.49558   0.49609   0.50096   0.51044   0.52318
 Alpha virt. eigenvalues --    0.53018   0.53877   0.54668   0.54769   0.55669
 Alpha virt. eigenvalues --    0.56056   0.57467   0.58866   0.59384   0.60226
 Alpha virt. eigenvalues --    0.61061   0.61641   0.62003   0.62370   0.63169
 Alpha virt. eigenvalues --    0.63841   0.64180   0.65297   0.65497   0.66588
 Alpha virt. eigenvalues --    0.66803   0.66991   0.67236   0.67980   0.68578
 Alpha virt. eigenvalues --    0.68946   0.69347   0.69651   0.70800   0.71207
 Alpha virt. eigenvalues --    0.71497   0.72314   0.72588   0.73460   0.74231
 Alpha virt. eigenvalues --    0.74877   0.75196   0.75531   0.76796   0.77340
 Alpha virt. eigenvalues --    0.77964   0.78124   0.78304   0.79160   0.80160
 Alpha virt. eigenvalues --    0.82148   0.83062   0.83939   0.84559   0.84639
 Alpha virt. eigenvalues --    0.86166   0.86548   0.86763   0.87589   0.87884
 Alpha virt. eigenvalues --    0.88300   0.88793   0.90608   0.91530   0.91847
 Alpha virt. eigenvalues --    0.92986   0.93379   0.93580   0.94633   0.95785
 Alpha virt. eigenvalues --    0.96429   0.97355   0.98152   0.98297   0.98622
 Alpha virt. eigenvalues --    0.99654   0.99885   1.01304   1.02479   1.02948
 Alpha virt. eigenvalues --    1.03941   1.04570   1.05837   1.06834   1.09426
 Alpha virt. eigenvalues --    1.10184   1.10810   1.11361   1.12998   1.13373
 Alpha virt. eigenvalues --    1.14039   1.15119   1.18146   1.18801   1.19139
 Alpha virt. eigenvalues --    1.20492   1.20707   1.21887   1.22637   1.23661
 Alpha virt. eigenvalues --    1.24790   1.25508   1.26617   1.28025   1.29127
 Alpha virt. eigenvalues --    1.29363   1.30389   1.31188   1.31577   1.33393
 Alpha virt. eigenvalues --    1.34087   1.34578   1.35563   1.36884   1.37662
 Alpha virt. eigenvalues --    1.39148   1.40041   1.41253   1.42451   1.43508
 Alpha virt. eigenvalues --    1.44550   1.45564   1.48048   1.49853   1.51024
 Alpha virt. eigenvalues --    1.53262   1.54150   1.55273   1.57182   1.57597
 Alpha virt. eigenvalues --    1.59165   1.59756   1.60059   1.61702   1.62431
 Alpha virt. eigenvalues --    1.64022   1.64699   1.66643   1.67462   1.67517
 Alpha virt. eigenvalues --    1.69671   1.69815   1.71361   1.71823   1.72944
 Alpha virt. eigenvalues --    1.73977   1.74352   1.76837   1.78171   1.78445
 Alpha virt. eigenvalues --    1.80596   1.81039   1.82124   1.83204   1.84352
 Alpha virt. eigenvalues --    1.85367   1.86808   1.88485   1.89780   1.90533
 Alpha virt. eigenvalues --    1.91541   1.92254   1.93181   1.94960   1.96843
 Alpha virt. eigenvalues --    1.97346   2.00035   2.00351   2.02251   2.04669
 Alpha virt. eigenvalues --    2.05392   2.06700   2.08742   2.09368   2.10666
 Alpha virt. eigenvalues --    2.11889   2.12333   2.12950   2.15108   2.15979
 Alpha virt. eigenvalues --    2.17067   2.20192   2.21644   2.22203   2.24654
 Alpha virt. eigenvalues --    2.25228   2.27570   2.28707   2.29103   2.32146
 Alpha virt. eigenvalues --    2.32654   2.32885   2.35722   2.36862   2.38220
 Alpha virt. eigenvalues --    2.38717   2.41046   2.42800   2.44982   2.46876
 Alpha virt. eigenvalues --    2.48314   2.48922   2.51736   2.52722   2.53154
 Alpha virt. eigenvalues --    2.56514   2.59316   2.62862   2.67096   2.69238
 Alpha virt. eigenvalues --    2.75915   2.80417   2.84317   2.85676   2.87760
 Alpha virt. eigenvalues --    2.92416   2.97932   2.99190   3.02122   3.06659
 Alpha virt. eigenvalues --    3.15708   3.18490   3.26765   3.29488   3.38003
 Alpha virt. eigenvalues --    3.40414   3.52566   3.62577   3.69686   3.76560
 Alpha virt. eigenvalues --    3.77564   3.81545   3.85567   3.91558   4.15800
 Alpha virt. eigenvalues --    4.29419   4.46917
          Condensed to atoms (all electrons):
               1          2          3          4          5          6
     1  C    8.404947  -2.508193   0.008435  -0.015916  -0.353062  -0.342581
     2  C   -2.508193  13.176129  -3.307510   0.641742   0.293159  -0.536354
     3  C    0.008435  -3.307510  12.718525  -1.355179   0.094706  -0.104568
     4  C   -0.015916   0.641742  -1.355179   6.790646  -0.014401   0.191655
     5  H   -0.353062   0.293159   0.094706  -0.014401   1.669535  -0.040476
     6  S   -0.342581  -0.536354  -0.104568   0.191655  -0.040476  16.430296
     7  H    0.022633   0.061332  -0.003219   0.148460  -0.064223  -0.108026
     8  C    0.395588  -0.500509  -2.555205   0.114138  -0.076600   0.086829
     9  S    0.040741   0.066868  -0.433532  -0.052547  -0.005008   0.100767
    10  C    0.020901   0.050567  -0.162504  -0.025592  -0.004187   0.011779
    11  C   -0.075758   0.117978   0.435494   0.015009   0.005673  -0.020418
    12  C   -0.277936  -1.009138  -0.086341  -0.015473   0.030206  -0.223746
    13  H    0.010904   0.221332  -0.083972   0.009270   0.005073  -0.002171
    14  S   -0.001492   0.004058  -0.053000   0.000010  -0.000166   0.001047
    15  C    0.000783   0.000008   0.009954  -0.000250   0.000031  -0.004788
    16  C    0.002459  -0.013903  -0.268560  -0.004441  -0.000078   0.027784
    17  H    0.000055   0.000396  -0.000947  -0.000029   0.000002  -0.000215
    18  H   -0.000113   0.001845  -0.007999  -0.000044  -0.000029   0.001052
    19  O    0.126575  -0.976734   0.448873  -0.084020  -0.057299   0.022409
    20  H   -0.085288   0.001047  -0.060240  -0.013207  -0.007627   0.007189
               7          8          9         10         11         12
     1  C    0.022633   0.395588   0.040741   0.020901  -0.075758  -0.277936
     2  C    0.061332  -0.500509   0.066868   0.050567   0.117978  -1.009138
     3  C   -0.003219  -2.555205  -0.433532  -0.162504   0.435494  -0.086341
     4  C    0.148460   0.114138  -0.052547  -0.025592   0.015009  -0.015473
     5  H   -0.064223  -0.076600  -0.005008  -0.004187   0.005673   0.030206
     6  S   -0.108026   0.086829   0.100767   0.011779  -0.020418  -0.223746
     7  H    1.287283   0.018764   0.008345   0.003912  -0.000811  -0.010903
     8  C    0.018764  12.988150   0.177761  -0.635735  -0.407126  -4.015146
     9  S    0.008345   0.177761  16.845453   0.175067  -0.636792  -0.717748
    10  C    0.003912  -0.635735   0.175067  11.549512  -1.577345  -0.524977
    11  C   -0.000811  -0.407126  -0.636792  -1.577345  13.578100  -3.580722
    12  C   -0.010903  -4.015146  -0.717748  -0.524977  -3.580722  17.711169
    13  H    0.000107   0.713593   0.026176  -0.119327   0.460842  -1.456490
    14  S   -0.000025  -0.393687   0.150958   0.172781  -0.669873   0.233043
    15  C    0.000007   0.063061  -0.108753   0.011644  -1.246334   0.053226
    16  C   -0.000317  -0.104383  -0.162213  -2.939972  -0.319759  -0.558343
    17  H   -0.000001  -0.000434   0.014217   0.110714  -0.107131   0.034421
    18  H    0.000030   0.066569   0.041440   0.542061   0.039557  -0.040054
    19  O   -0.002210  -0.007594  -0.008651   0.008914  -0.048407   0.102305
    20  H    0.001443   0.033810   0.001246   0.001444  -0.004841   0.000505
              13         14         15         16         17         18
     1  C    0.010904  -0.001492   0.000783   0.002459   0.000055  -0.000113
     2  C    0.221332   0.004058   0.000008  -0.013903   0.000396   0.001845
     3  C   -0.083972  -0.053000   0.009954  -0.268560  -0.000947  -0.007999
     4  C    0.009270   0.000010  -0.000250  -0.004441  -0.000029  -0.000044
     5  H    0.005073  -0.000166   0.000031  -0.000078   0.000002  -0.000029
     6  S   -0.002171   0.001047  -0.004788   0.027784  -0.000215   0.001052
     7  H    0.000107  -0.000025   0.000007  -0.000317  -0.000001   0.000030
     8  C    0.713593  -0.393687   0.063061  -0.104383  -0.000434   0.066569
     9  S    0.026176   0.150958  -0.108753  -0.162213   0.014217   0.041440
    10  C   -0.119327   0.172781   0.011644  -2.939972   0.110714   0.542061
    11  C    0.460842  -0.669873  -1.246334  -0.319759  -0.107131   0.039557
    12  C   -1.456490   0.233043   0.053226  -0.558343   0.034421  -0.040054
    13  H    1.838937  -0.060348   0.011590  -0.033077   0.002113   0.001311
    14  S   -0.060348  16.123830   0.240811  -0.126354  -0.144424  -0.000112
    15  C    0.011590   0.240811   6.991580   0.040619   0.211319  -0.114260
    16  C   -0.033077  -0.126354   0.040619  10.601549   0.024957  -0.552278
    17  H    0.002113  -0.144424   0.211319   0.024957   1.303436  -0.070019
    18  H    0.001311  -0.000112  -0.114260  -0.552278  -0.070019   1.412553
    19  O   -0.063994   0.000485   0.001109   0.001022   0.000052  -0.000019
    20  H   -0.001857  -0.000066  -0.000275   0.000902  -0.000018   0.000051
              19         20
     1  C    0.126575  -0.085288
     2  C   -0.976734   0.001047
     3  C    0.448873  -0.060240
     4  C   -0.084020  -0.013207
     5  H   -0.057299  -0.007627
     6  S    0.022409   0.007189
     7  H   -0.002210   0.001443
     8  C   -0.007594   0.033810
     9  S   -0.008651   0.001246
    10  C    0.008914   0.001444
    11  C   -0.048407  -0.004841
    12  C    0.102305   0.000505
    13  H   -0.063994  -0.001857
    14  S    0.000485  -0.000066
    15  C    0.001109  -0.000275
    16  C    0.001022   0.000902
    17  H    0.000052  -0.000018
    18  H   -0.000019   0.000051
    19  O    9.123394   0.353052
    20  H    0.353052   0.582672
 Mulliken charges:
               1
     1  C    0.626317
     2  C    0.215880
     3  C    0.766790
     4  C   -0.329831
     5  H   -0.475226
     6  S    0.502535
     7  H   -0.362582
     8  C    0.038155
     9  S    0.476206
    10  C   -0.669657
    11  C    0.042665
    12  C    0.352141
    13  H   -0.480010
    14  S    0.522524
    15  C   -0.161083
    16  C    0.384387
    17  H   -0.378464
    18  H   -0.321543
    19  O   -0.939261
    20  H    0.190058
 Sum of Mulliken charges =  -0.00000
 Mulliken charges with hydrogens summed into heavy atoms:
               1
     1  C    0.151091
     2  C    0.215880
     3  C    0.766790
     4  C   -0.692413
     6  S    0.502535
     8  C    0.038155
     9  S    0.476206
    10  C   -0.669657
    11  C    0.042665
    12  C   -0.127869
    14  S    0.522524
    15  C   -0.539548
    16  C    0.062843
    19  O   -0.749203
 Electronic spatial extent (au):  <R**2>=           4303.8964
 Charge=              0.0000 electrons
 Dipole moment (field-independent basis, Debye):
    X=              2.3108    Y=              1.2592    Z=              0.3697  Tot=              2.6574
 Quadrupole moment (field-independent basis, Debye-Ang):
   XX=            -77.4968   YY=            -95.2748   ZZ=           -109.9619
   XY=             11.1792   XZ=              0.6972   YZ=              0.7892
 Traceless Quadrupole moment (field-independent basis, Debye-Ang):
   XX=             16.7477   YY=             -1.0303   ZZ=            -15.7174
   XY=             11.1792   XZ=              0.6972   YZ=              0.7892
 Octapole moment (field-independent basis, Debye-Ang**2):
  XXX=             48.7607  YYY=             29.6667  ZZZ=              2.3205  XYY=             25.5261
  XXY=              5.7259  XXZ=              6.9923  XZZ=              5.6108  YZZ=              5.5930
  YYZ=              6.5219  XYZ=             11.6286
 Hexadecapole moment (field-independent basis, Debye-Ang**3):
 XXXX=          -3995.7132 YYYY=           -939.8191 ZZZZ=           -170.3377 XXXY=            133.4121
 XXXZ=             -1.5530 YYYX=            131.7835 YYYZ=             17.6897 ZZZX=              6.7257
 ZZZY=              6.7913 XXYY=           -846.8690 XXZZ=           -912.6113 YYZZ=           -207.6741
 XXYZ=             24.3625 YYXZ=             15.0608 ZZXY=             10.3921
 N-N= 1.129900949324D+03 E-N=-6.167154686682D+03  KE= 1.649587539645D+03
 Calling FoFJK, ICntrl=  10002127 FMM=F ISym2X=0 I1Cent= 0 IOpClX= 0 NMat=1 NMatS=1 NMatT=0.
 ***** Axes restored to original set *****
 -------------------------------------------------------------------
 Center     Atomic                   Forces (Hartrees/Bohr)
 Number     Number              X              Y              Z
 -------------------------------------------------------------------
      1        6          -0.015873520    0.028623092    0.005117014
      2        6           0.037256473    0.017008144    0.002811788
      3        6          -0.027445212   -0.029807308   -0.004614240
      4        6           0.003809859   -0.028025904   -0.004593405
      5        1           0.006797660    0.006806903    0.000980886
      6       16          -0.005450240   -0.007135943   -0.001205267
      7        1           0.008836579   -0.006166930   -0.001140114
      8        6           0.028992990   -0.024089325    0.003785415
      9       16           0.004076058   -0.009187801    0.001964337
     10        6          -0.007798659   -0.041356401    0.006953365
     11        6           0.008605511    0.041405777   -0.007141485
     12        6          -0.028676101    0.020844508   -0.003409137
     13        1           0.003890014    0.010522381   -0.002005963
     14       16          -0.003215586    0.007433118   -0.001228740
     15        6          -0.014875693    0.025148989   -0.004635899
     16        6           0.028330416   -0.021348656    0.004003593
     17        1          -0.010196256    0.000699378   -0.000192759
     18        1          -0.002947523   -0.009385895    0.001669058
     19        8          -0.035032831    0.003124953   -0.003124191
     20        1           0.020916060    0.014886920    0.006005744
 -------------------------------------------------------------------
 Cartesian Forces:  Max     0.041405777 RMS     0.016593160

 GradGradGradGradGradGradGradGradGradGradGradGradGradGradGradGradGradGrad
 Berny optimization.
 FormGI is forming the generalized inverse of G from B-inverse, IUseBI=4.
 Internal  Forces:  Max     0.043462519 RMS     0.009811473
 Search for a local minimum.
 Step number   1 out of a maximum of  116
 All quantities printed in internal units (Hartrees-Bohrs-Radians)
 Mixed Optimization -- RFO/linear search
 Second derivative matrix not updated -- first step.
 ITU=  0
     Eigenvalues ---    0.01506   0.01577   0.01628   0.01710   0.01750
     Eigenvalues ---    0.01763   0.01981   0.02028   0.02064   0.02133
     Eigenvalues ---    0.02213   0.02263   0.02313   0.02333   0.02377
     Eigenvalues ---    0.02446   0.15999   0.16000   0.16000   0.16000
     Eigenvalues ---    0.16000   0.16000   0.22526   0.22567   0.23650
     Eigenvalues ---    0.24759   0.24784   0.24998   0.24999   0.24999
     Eigenvalues ---    0.25000   0.28869   0.29887   0.30203   0.30986
     Eigenvalues ---    0.31173   0.32537   0.35974   0.36250   0.36351
     Eigenvalues ---    0.36479   0.36525   0.36580   0.39214   0.39260
     Eigenvalues ---    0.39671   0.45985   0.50205   0.51902   0.53618
     Eigenvalues ---    0.54044   0.54692   0.594701000.000001000.00000
     Eigenvalues --- 1000.000001000.000001000.000001000.000001000.00000
     Eigenvalues --- 1000.000001000.000001000.000001000.000001000.00000
     Eigenvalues --- 1000.000001000.000001000.000001000.000001000.00000
     Eigenvalues --- 1000.000001000.000001000.000001000.000001000.00000
     Eigenvalues --- 1000.000001000.000001000.000001000.000001000.00000
     Eigenvalues --- 1000.000001000.000001000.000001000.000001000.00000
     Eigenvalues --- 1000.000001000.000001000.000001000.000001000.00000
     Eigenvalues --- 1000.000001000.000001000.000001000.000001000.00000
     Eigenvalues --- 1000.000001000.000001000.000001000.000001000.00000
     Eigenvalues --- 1000.000001000.000001000.000001000.000001000.00000
     Eigenvalues --- 1000.00000
 RFO step:  Lambda=-1.93590229D-02 EMin= 1.50627981D-02
 Linear search not attempted -- first point.
 Iteration  1 RMS(Cart)=  0.02545844 RMS(Int)=  0.00014189
 Iteration  2 RMS(Cart)=  0.00026907 RMS(Int)=  0.00004629
 Iteration  3 RMS(Cart)=  0.00000003 RMS(Int)=  0.00004629
 Iteration  1 RMS(Cart)=  0.00000374 RMS(Int)=  0.00000149
 Iteration  2 RMS(Cart)=  0.00000205 RMS(Int)=  0.00000166
 Iteration  3 RMS(Cart)=  0.00000112 RMS(Int)=  0.00000188
 Iteration  4 RMS(Cart)=  0.00000062 RMS(Int)=  0.00000202
 Variable       Old X    -DE/DX   Delta X   Delta X   Delta X     New X
                                 (Linear)    (Quad)   (Total)
    R1        2.71200  -0.00212   0.00000  -0.00270  -0.00263   2.70937
    R2        2.54802   0.03930   0.00000   0.06950   0.06953   2.61755
    R3        2.04122   0.00967   0.00000   0.02551   0.02551   2.06673
    R4        2.56515   0.03841   0.00000   0.06976   0.06978   2.63492
    R5        2.55406   0.02218   0.00000   0.03916   0.03916   2.59323
    R6        3.30687   0.00304   0.00000   0.00683   0.00678   3.31364
    R7        2.76639  -0.00621   0.00000  -0.01618  -0.01618   2.75021
    R8        3.25464   0.00754   0.00000   0.01974   0.01969   3.27434
    R9        2.03269   0.01071   0.00000   0.02786   0.02786   2.06055
   R10        3.33034   0.00665   0.00000   0.01810   0.01803   3.34838
   R11        2.56297   0.03829   0.00000   0.06893   0.06895   2.63192
   R12        3.28153   0.00588   0.00000   0.01597   0.01593   3.29746
   R13        2.57533   0.04346   0.00000   0.08271   0.08279   2.65811
   R14        2.71048  -0.00250   0.00000  -0.00343  -0.00337   2.70711
   R15        2.70437  -0.00307   0.00000  -0.00474  -0.00466   2.69970
   R16        3.28386   0.00549   0.00000   0.01480   0.01476   3.29862
   R17        2.03185   0.01137   0.00000   0.02951   0.02951   2.06136
   R18        3.29959   0.00609   0.00000   0.01558   0.01552   3.31511
   R19        2.54922   0.03939   0.00000   0.06903   0.06904   2.61825
   R20        2.03537   0.01015   0.00000   0.02652   0.02652   2.06189
   R21        2.03692   0.00998   0.00000   0.02613   0.02613   2.06305
   R22        1.78062   0.02623   0.00000   0.04271   0.04271   1.82334
    A1        1.95980  -0.00220   0.00000  -0.00275  -0.00265   1.95715
    A2        2.15829   0.00101   0.00000   0.00090   0.00085   2.15914
    A3        2.16510   0.00118   0.00000   0.00184   0.00179   2.16689
    A4        1.98845  -0.00438   0.00000  -0.01170  -0.01161   1.97683
    A5        2.15224   0.00789   0.00000   0.02701   0.02697   2.17920
    A6        2.14248  -0.00351   0.00000  -0.01532  -0.01536   2.12713
    A7        1.91634   0.00364   0.00000   0.01193   0.01191   1.92825
    A8        2.23676  -0.00141   0.00000  -0.00442  -0.00441   2.23235
    A9        2.13002  -0.00223   0.00000  -0.00748  -0.00747   2.12255
   A10        1.95487   0.00059   0.00000   0.00293   0.00293   1.95780
   A11        2.22646   0.00135   0.00000   0.00768   0.00768   2.23414
   A12        2.10180  -0.00193   0.00000  -0.01061  -0.01062   2.09119
   A13        1.60516   0.00234   0.00000  -0.00045  -0.00061   1.60454
   A14        2.09940  -0.00331   0.00000  -0.01154  -0.01153   2.08787
   A15        2.22970  -0.00119   0.00000  -0.00367  -0.00366   2.22603
   A16        1.95408   0.00450   0.00000   0.01520   0.01518   1.96927
   A17        1.58839   0.00096   0.00000  -0.00453  -0.00471   1.58368
   A18        1.93589   0.00209   0.00000   0.00661   0.00657   1.94245
   A19        2.35406   0.00139   0.00000   0.00011   0.00005   2.35411
   A20        1.99323  -0.00348   0.00000  -0.00673  -0.00663   1.98660
   A21        1.99747  -0.00319   0.00000  -0.00521  -0.00509   1.99238
   A22        1.93739   0.00153   0.00000   0.00403   0.00398   1.94137
   A23        2.34830   0.00166   0.00000   0.00118   0.00110   2.34940
   A24        1.94887  -0.00437   0.00000  -0.01212  -0.01200   1.93686
   A25        2.15468   0.00136   0.00000   0.00145   0.00140   2.15608
   A26        2.17962   0.00301   0.00000   0.01066   0.01060   2.19023
   A27        1.58148   0.00244   0.00000   0.00053   0.00038   1.58187
   A28        1.97533   0.00261   0.00000   0.00911   0.00910   1.98443
   A29        2.08694  -0.00250   0.00000  -0.01120  -0.01119   2.07575
   A30        2.22091  -0.00011   0.00000   0.00209   0.00209   2.22301
   A31        1.93734  -0.00309   0.00000  -0.00694  -0.00684   1.93050
   A32        2.18338   0.00170   0.00000   0.00431   0.00426   2.18765
   A33        2.16246   0.00140   0.00000   0.00262   0.00258   2.16504
   A34        1.93382  -0.00480   0.00000  -0.02675  -0.02675   1.90707
    D1        0.00175  -0.00012   0.00000  -0.00268  -0.00267  -0.00092
    D2       -3.13360  -0.00004   0.00000  -0.00167  -0.00164  -3.13524
    D3       -3.13952  -0.00006   0.00000  -0.00076  -0.00076  -3.14027
    D4        0.00832   0.00002   0.00000   0.00025   0.00027   0.00859
    D5        0.01026   0.00010   0.00000   0.00334   0.00336   0.01362
    D6       -3.14149   0.00006   0.00000   0.00196   0.00197  -3.13952
    D7       -3.13166   0.00004   0.00000   0.00142   0.00144  -3.13022
    D8       -0.00023  -0.00000   0.00000   0.00004   0.00004  -0.00018
    D9       -0.01255   0.00003   0.00000   0.00063   0.00065  -0.01191
   D10        3.14153  -0.00009   0.00000  -0.00274  -0.00275   3.13878
   D11        3.12283  -0.00000   0.00000  -0.00021  -0.00017   3.12266
   D12       -0.00627  -0.00013   0.00000  -0.00358  -0.00357  -0.00984
   D13       -0.16669   0.00018   0.00000   0.00458   0.00458  -0.16211
   D14        2.98170   0.00026   0.00000   0.00565   0.00566   2.98735
   D15        0.01540   0.00007   0.00000   0.00112   0.00112   0.01652
   D16       -3.13778   0.00018   0.00000   0.00425   0.00428  -3.13350
   D17       -2.79197   0.00006   0.00000   0.00000  -0.00000  -2.79197
   D18        0.34876  -0.00013   0.00000  -0.00478  -0.00476   0.34400
   D19        0.36349  -0.00012   0.00000  -0.00386  -0.00386   0.35963
   D20       -2.77897  -0.00030   0.00000  -0.00864  -0.00862  -2.78759
   D21       -0.01478  -0.00011   0.00000  -0.00260  -0.00259  -0.01737
   D22        3.13615  -0.00009   0.00000  -0.00144  -0.00143   3.13472
   D23       -3.13343  -0.00002   0.00000  -0.00084  -0.00084  -3.13427
   D24        0.00889   0.00014   0.00000   0.00324   0.00326   0.01216
   D25        3.13820   0.00011   0.00000   0.00216   0.00219   3.14038
   D26        0.00107   0.00013   0.00000   0.00291   0.00293   0.00401
   D27       -0.00420  -0.00007   0.00000  -0.00231  -0.00232  -0.00651
   D28       -3.14132  -0.00004   0.00000  -0.00155  -0.00157   3.14030
   D29       -0.01130  -0.00011   0.00000  -0.00315  -0.00315  -0.01445
   D30        3.13565   0.00000   0.00000  -0.00073  -0.00072   3.13492
   D31        0.01129   0.00009   0.00000   0.00256   0.00255   0.01385
   D32       -3.13752   0.00009   0.00000   0.00212   0.00212  -3.13540
   D33       -3.13446   0.00002   0.00000   0.00069   0.00069  -3.13377
   D34       -0.00009   0.00002   0.00000   0.00025   0.00025   0.00016
   D35        3.13577  -0.00007   0.00000  -0.00165  -0.00166   3.13411
   D36       -0.00623  -0.00006   0.00000  -0.00155  -0.00155  -0.00779
   D37       -0.00034   0.00003   0.00000   0.00080   0.00079   0.00044
   D38        3.14084   0.00004   0.00000   0.00090   0.00089  -3.14145
   D39       -0.00463   0.00002   0.00000  -0.00008  -0.00007  -0.00470
   D40        3.13242  -0.00001   0.00000  -0.00087  -0.00087   3.13155
   D41       -3.13676   0.00003   0.00000   0.00049   0.00050  -3.13627
   D42        0.00029  -0.00000   0.00000  -0.00030  -0.00030  -0.00001
   D43        0.00036  -0.00004   0.00000  -0.00089  -0.00090  -0.00054
   D44        3.13273  -0.00007   0.00000  -0.00149  -0.00149   3.13124
   D45       -0.00057   0.00006   0.00000   0.00139   0.00139   0.00082
   D46       -3.14096  -0.00000   0.00000  -0.00005  -0.00004  -3.14100
   D47        0.00062  -0.00006   0.00000  -0.00147  -0.00148  -0.00086
   D48       -3.14057  -0.00007   0.00000  -0.00157  -0.00158   3.14103
   D49        3.14089   0.00001   0.00000   0.00008   0.00009   3.14098
   D50       -0.00030  -0.00000   0.00000  -0.00001  -0.00001  -0.00031
         Item               Value     Threshold  Converged?
 Maximum Force            0.043463     0.000450     NO 
 RMS     Force            0.009858     0.000300     NO 
 Maximum Displacement     0.106095     0.001800     NO 
 RMS     Displacement     0.025373     0.001200     NO 
 Predicted change in Energy=-1.004894D-02
 GradGradGradGradGradGradGradGradGradGradGradGradGradGradGradGradGradGrad

                          Input orientation:                          
 ---------------------------------------------------------------------
 Center     Atomic      Atomic             Coordinates (Angstroms)
 Number     Number       Type             X           Y           Z
 ---------------------------------------------------------------------
      1          6           0        3.945886    0.867630    0.080311
      2          6           0        2.543928    1.159028    0.152428
      3          6           0        1.738027    0.034738   -0.022723
      4          6           0        4.188464   -0.476873   -0.147957
      5          1           0        4.729321    1.622064    0.195036
      6         16           0        2.723232   -1.389525   -0.297717
      7          1           0        5.151840   -0.978143   -0.245907
      8          6           0        0.284416   -0.034592   -0.006964
      9         16           0       -0.515275   -1.589485    0.280047
     10          6           0       -2.082389   -0.836429    0.132142
     11          6           0       -1.964925    0.544848   -0.106256
     12          6           0       -0.617130    1.010988   -0.190645
     13          1           0       -0.314161    2.041959   -0.378278
     14         16           0       -3.533499    1.298218   -0.244012
     15          6           0       -4.320548   -0.247434    0.018696
     16          6           0       -3.436595   -1.297890    0.205348
     17          1           0       -5.410778   -0.291110    0.020232
     18          1           0       -3.743170   -2.330572    0.382635
     19          8           0        2.011875    2.406464    0.362117
     20          1           0        2.719481    3.019116    0.596467
 ---------------------------------------------------------------------
                    Distance matrix (angstroms):
                    1          2          3          4          5
     1  C    0.000000
     2  C    1.433736   0.000000
     3  C    2.361984   1.394340   0.000000
     4  C    1.385150   2.338996   2.506406   0.000000
     5  H    1.093664   2.234314   3.393355   2.194472   0.000000
     6  S    2.594714   2.594206   1.753504   1.732705   3.651967
     7  H    2.228816   3.395199   3.567893   1.090394   2.670960
     8  C    3.772000   2.560377   1.455349   3.931550   4.747893
     9  S    5.096986   4.114528   2.794126   4.852449   6.150370
    10  C    6.264711   5.038360   3.921542   6.287395   7.242066
    11  C    5.922557   4.557839   3.738856   6.237777   6.787053
    12  C    4.573301   3.183065   2.555000   5.030834   5.395062
    13  H    4.442674   3.038074   2.892548   5.164417   5.093300
    14  S    7.498786   6.091934   5.425342   7.923944   8.280811
    15  C    8.341528   7.008356   6.065284   8.513736   9.242631
    16  C    7.694552   6.465748   5.348329   7.677266   8.672278
    17  H    9.428333   8.086886   7.156357   9.602513  10.320484
    18  H    8.333156   7.194297   5.983521   8.162631   9.351022
    19  O    2.487534   1.372278   2.418301   3.648472   2.833322
    20  H    2.529699   1.920394   3.202055   3.864456   2.480394
                    6          7          8          9         10
     6  S    0.000000
     7  H    2.463749   0.000000
     8  C    2.805032   4.963789   0.000000
     9  S    3.295713   5.724208   1.771884   0.000000
    10  C    4.856406   7.245486   2.502810   1.744940   0.000000
    11  C    5.075162   7.279241   2.324897   2.608849   1.406613
    12  C    4.114845   6.102517   1.392754   2.644691   2.379943
    13  H    4.583376   6.246256   2.192769   3.696110   3.416472
    14  S    6.809811   8.978694   4.050808   4.209886   2.608435
    15  C    7.142781   9.504214   4.609951   4.043452   2.317141
    16  C    6.181014   8.606223   3.935342   2.936786   1.432543
    17  H    8.213996  10.588284   5.701033   5.071413   3.374622
    18  H    6.569840   9.019165   4.652393   3.313464   2.247978
    19  O    3.918028   4.656677   3.013153   4.728724   5.228024
    20  H    4.498410   4.754371   3.952063   5.639412   6.175660
                   11         12         13         14         15
    11  C    0.000000
    12  C    1.428622   0.000000
    13  H    2.245075   1.090824   0.000000
    14  S    1.745556   2.930965   3.306859   0.000000
    15  C    2.488430   3.916983   4.631420   1.754282   0.000000
    16  C    2.378779   3.665666   4.609208   2.636492   1.385521
    17  H    3.548060   4.971820   5.619389   2.473856   1.091106
    18  H    3.416023   4.611594   5.608576   3.688464   2.192094
    19  O    4.415872   3.027303   2.468095   5.687422   6.874641
    20  H    5.344107   3.973046   3.332859   6.539698   7.782427
                   16         17         18         19         20
    16  C    0.000000
    17  H    2.223797   0.000000
    18  H    1.091720   2.659259   0.000000
    19  O    6.590343   7.905034   7.453890   0.000000
    20  H    7.529062   8.797201   8.392302   0.964867   0.000000
 Stoichiometry    C10H6OS3
 Framework group  C1[X(C10H6OS3)]
 Deg. of freedom    54
 Full point group                 C1      NOp   1
 Largest Abelian subgroup         C1      NOp   1
 Largest concise Abelian subgroup C1      NOp   1
                         Standard orientation:                         
 ---------------------------------------------------------------------
 Center     Atomic      Atomic             Coordinates (Angstroms)
 Number     Number       Type             X           Y           Z
 ---------------------------------------------------------------------
      1          6           0        3.946525    0.877938    0.079536
      2          6           0        2.543947    1.166394    0.151442
      3          6           0        1.740455    0.040205   -0.022574
      4          6           0        4.191979   -0.466263   -0.147437
      5          1           0        4.728342    1.634164    0.193487
      6         16           0        2.728703   -1.382205   -0.296234
      7          1           0        5.156424   -0.965557   -0.244950
      8          6           0        0.286996   -0.032232   -0.006672
      9         16           0       -0.509339   -1.588559    0.281892
     10          6           0       -2.078073   -0.839015    0.133336
     11          6           0       -1.963589    0.542279   -0.106411
     12          6           0       -0.616802    1.011231   -0.191323
     13          1           0       -0.316058    2.042667   -0.379974
     14         16           0       -3.533784    1.292143   -0.244818
     15          6           0       -4.317498   -0.254940    0.019434
     16          6           0       -3.431281   -1.303312    0.207060
     17          1           0       -5.407632   -0.300956    0.021068
     18          1           0       -3.735629   -2.336477    0.385368
     19          8           0        2.009226    2.412887    0.359945
     20          1           0        2.715526    3.027285    0.593664
 ---------------------------------------------------------------------
 Rotational constants (GHZ):           1.2754512           0.2802619           0.2323092
 Standard basis: Aug-CC-pVDZ (5D, 7F)
 There are   416 symmetry adapted cartesian basis functions of A   symmetry.
 There are   388 symmetry adapted basis functions of A   symmetry.
   388 basis functions,   782 primitive gaussians,   416 cartesian basis functions
    61 alpha electrons       61 beta electrons
       nuclear repulsion energy      1121.5972791105 Hartrees.
 NAtoms=   20 NActive=   20 NUniq=   20 SFac= 1.00D+00 NAtFMM=   60 NAOKFM=F Big=F
 Integral buffers will be    131072 words long.
 Raffenetti 1 integral format.
 Two-electron integral symmetry is turned on.
 One-electron integrals computed using PRISM.
 NBasis=   388 RedAO= T EigKep=  3.42D-06  NBF=   388
 NBsUse=   388 1.00D-06 EigRej= -1.00D+00 NBFU=   388
 Initial guess from the checkpoint file:  "/tmp/pbs.4766300[15].pbs/Gau-1763287.chk"
 B after Tr=    -0.000000   -0.000000   -0.000000
         Rot=    0.999999    0.000043   -0.000259   -0.000972 Ang=   0.12 deg.
 ExpMin= 2.97D-02 ExpMax= 1.11D+05 ExpMxC= 1.07D+03 IAcc=3 IRadAn=         5 AccDes= 0.00D+00
 Harris functional with IExCor=  205 and IRadAn=       5 diagonalized for initial guess.
 HarFok:  IExCor=  205 AccDes= 0.00D+00 IRadAn=         5 IDoV= 1 UseB2=F ITyADJ=14
 ICtDFT=  3500011 ScaDFX=  1.000000  1.000000  1.000000  1.000000
 FoFCou: FMM=F IPFlag=           0 FMFlag=      100000 FMFlg1=           0
         NFxFlg=           0 DoJE=T BraDBF=F KetDBF=T FulRan=T
         wScrn=  0.000000 ICntrl=       500 IOpCl=  0 I1Cent=   200000004 NGrid=           0
         NMat0=    1 NMatS0=      1 NMatT0=    0 NMatD0=    1 NMtDS0=    0 NMtDT0=    0
 Petite list used in FoFCou.
 Requested convergence on RMS density matrix=1.00D-08 within 128 cycles.
 Requested convergence on MAX density matrix=1.00D-06.
 Requested convergence on             energy=1.00D-06.
 No special actions if energy rises.
 SCF Done:  E(RHF) =  -1649.63329079     A.U. after   15 cycles
            NFock= 15  Conv=0.52D-08     -V/T= 2.0006
 ExpMin= 2.97D-02 ExpMax= 1.11D+05 ExpMxC= 1.07D+03 IAcc=3 IRadAn=         5 AccDes= 0.00D+00
 HarFok:  IExCor=  205 AccDes= 0.00D+00 IRadAn=         5 IDoV=-2 UseB2=F ITyADJ=14
 ICtDFT= 12500011 ScaDFX=  1.000000  1.000000  1.000000  1.000000
 GSVD:  LWork=        -884 too small for GESVD, short by        3770 words or        3770 for optimal perf.
 Range of M.O.s used for correlation:    27   388
 NBasis=   388 NAE=    61 NBE=    61 NFC=    26 NFV=     0
 NROrb=    362 NOA=    35 NOB=    35 NVA=   327 NVB=   327

 **** Warning!!: The largest alpha MO coefficient is  0.79918614D+02

 Fully direct method using O(ONN) memory.
 JobTyp=1 Pass  1:  I=  27 to  61 NPSUse=  8 ParTrn=T ParDer=T DoDerP=T.
 Spin components of T(2) and E(2):
     alpha-alpha T2 =       0.1174080910D+00 E2=     -0.2772638360D+00
     alpha-beta  T2 =       0.5703902222D+00 E2=     -0.1435096062D+01
     beta-beta   T2 =       0.1174080910D+00 E2=     -0.2772638360D+00
 ANorm=    0.1343579698D+01
 E2 =    -0.1989623734D+01 EUMP2 =    -0.16516229145276D+04
          IDoAtm=11111111111111111111
          Differentiating once with respect to electric field.
                with respect to dipole field.
          Differentiating once with respect to nuclear coordinates.
 Keep R1 ints in memory in canonical form, NReq=2883857471.
          There are     1 degrees of freedom in the 1st order CPHF.  IDoFFX=0 NUNeed=     1.
 LinEq1:  Iter=  0 NonCon=     1 RMS=2.90D-03 Max=6.41D-02 NDo=     1
 AX will form     1 AO Fock derivatives at one time.
 LinEq1:  Iter=  1 NonCon=     1 RMS=7.12D-04 Max=1.31D-02 NDo=     1
 LinEq1:  Iter=  2 NonCon=     1 RMS=3.68D-04 Max=1.32D-02 NDo=     1
 LinEq1:  Iter=  3 NonCon=     1 RMS=1.03D-04 Max=3.01D-03 NDo=     1
 LinEq1:  Iter=  4 NonCon=     1 RMS=4.10D-05 Max=1.05D-03 NDo=     1
 LinEq1:  Iter=  5 NonCon=     1 RMS=1.85D-05 Max=9.88D-04 NDo=     1
 LinEq1:  Iter=  6 NonCon=     1 RMS=7.08D-06 Max=3.05D-04 NDo=     1
 LinEq1:  Iter=  7 NonCon=     1 RMS=3.69D-06 Max=1.69D-04 NDo=     1
 LinEq1:  Iter=  8 NonCon=     1 RMS=1.29D-06 Max=4.32D-05 NDo=     1
 LinEq1:  Iter=  9 NonCon=     1 RMS=6.56D-07 Max=3.40D-05 NDo=     1
 LinEq1:  Iter= 10 NonCon=     1 RMS=2.46D-07 Max=4.56D-06 NDo=     1
 LinEq1:  Iter= 11 NonCon=     1 RMS=1.16D-07 Max=5.31D-06 NDo=     1
 LinEq1:  Iter= 12 NonCon=     1 RMS=4.38D-08 Max=8.10D-07 NDo=     1
 LinEq1:  Iter= 13 NonCon=     1 RMS=1.63D-08 Max=2.46D-07 NDo=     1
 LinEq1:  Iter= 14 NonCon=     1 RMS=5.29D-09 Max=8.77D-08 NDo=     1
 LinEq1:  Iter= 15 NonCon=     1 RMS=2.28D-09 Max=7.59D-08 NDo=     1
 LinEq1:  Iter= 16 NonCon=     1 RMS=8.93D-10 Max=3.38D-08 NDo=     1
 LinEq1:  Iter= 17 NonCon=     1 RMS=3.76D-10 Max=1.08D-08 NDo=     1
 LinEq1:  Iter= 18 NonCon=     1 RMS=1.38D-10 Max=3.01D-09 NDo=     1
 LinEq1:  Iter= 19 NonCon=     0 RMS=4.50D-11 Max=7.04D-10 NDo=     1
 Linear equations converged to 1.000D-10 1.000D-09 after    19 iterations.
 End of Minotr F.D. properties file   721 does not exist.
 End of Minotr F.D. properties file   722 does not exist.
 End of Minotr F.D. properties file   788 does not exist.
 Calling FoFJK, ICntrl=  10002127 FMM=F ISym2X=0 I1Cent= 0 IOpClX= 0 NMat=1 NMatS=1 NMatT=0.
 ***** Axes restored to original set *****
 -------------------------------------------------------------------
 Center     Atomic                   Forces (Hartrees/Bohr)
 Number     Number              X              Y              Z
 -------------------------------------------------------------------
      1        6          -0.007759290    0.003972124    0.000886662
      2        6           0.015298391   -0.001398621   -0.000539606
      3        6          -0.007765857   -0.005357437   -0.001015034
      4        6           0.002757977   -0.003787988   -0.000569893
      5        1           0.000627750   -0.000855604   -0.000166628
      6       16          -0.000207550    0.004850533    0.000888338
      7        1          -0.000215358    0.000002038    0.000030133
      8        6           0.007647189   -0.002735662    0.000381702
      9       16          -0.001426185    0.003476864   -0.000511176
     10        6          -0.006319591   -0.008252858    0.001207083
     11        6           0.005613093    0.008317302   -0.001366140
     12        6          -0.008371816    0.001388048    0.000180990
     13        1           0.001342834   -0.000757839    0.000070806
     14       16           0.000965255   -0.004357689    0.000760473
     15        6          -0.003460706    0.002971801   -0.000514474
     16        6           0.007290460   -0.000365901    0.000087073
     17        1          -0.000060045    0.000068694    0.000002031
     18        1          -0.000918095    0.000542154   -0.000107504
     19        8          -0.008173467    0.001730108   -0.000101983
     20        1           0.003135011    0.000549932    0.000397148
 -------------------------------------------------------------------
 Cartesian Forces:  Max     0.015298391 RMS     0.004070292

 GradGradGradGradGradGradGradGradGradGradGradGradGradGradGradGradGradGrad
 Berny optimization.
 Using GEDIIS/GDIIS optimizer.
 FormGI is forming the generalized inverse of G from B-inverse, IUseBI=4.
 Internal  Forces:  Max     0.005135883 RMS     0.001614770
 Search for a local minimum.
 Step number   2 out of a maximum of  116
 All quantities printed in internal units (Hartrees-Bohrs-Radians)
 Mixed Optimization -- RFO/linear search
 Update second derivatives using D2CorX and points    1    2
 DE= -1.02D-02 DEPred=-1.00D-02 R= 1.02D+00
 TightC=F SS=  1.41D+00  RLast= 1.96D-01 DXNew= 5.0454D-01 5.8865D-01
 Trust test= 1.02D+00 RLast= 1.96D-01 DXMaxT set to 5.05D-01
 ITU=  1  0
 Use linear search instead of GDIIS.
     Eigenvalues ---    0.01509   0.01576   0.01626   0.01714   0.01748
     Eigenvalues ---    0.01763   0.01981   0.02026   0.02069   0.02141
     Eigenvalues ---    0.02219   0.02262   0.02312   0.02333   0.02380
     Eigenvalues ---    0.02449   0.15773   0.15999   0.16000   0.16000
     Eigenvalues ---    0.16000   0.16033   0.22519   0.22600   0.23706
     Eigenvalues ---    0.24372   0.24770   0.24916   0.24999   0.25000
     Eigenvalues ---    0.25286   0.28919   0.29868   0.30212   0.31024
     Eigenvalues ---    0.31309   0.32611   0.36011   0.36230   0.36286
     Eigenvalues ---    0.36409   0.36549   0.36901   0.39119   0.39305
     Eigenvalues ---    0.39708   0.45544   0.49718   0.51413   0.53068
     Eigenvalues ---    0.53917   0.54921   0.593131000.000001000.00000
     Eigenvalues --- 1000.000001000.000001000.000001000.000001000.00000
     Eigenvalues --- 1000.000001000.000001000.000001000.000001000.00000
     Eigenvalues --- 1000.000001000.000001000.000001000.000001000.00000
     Eigenvalues --- 1000.000001000.000001000.000001000.000001000.00000
     Eigenvalues --- 1000.000001000.000001000.000001000.000001000.00000
     Eigenvalues --- 1000.000001000.000001000.000001000.000001000.00000
     Eigenvalues --- 1000.000001000.000001000.000001000.000001000.00000
     Eigenvalues --- 1000.000001000.000001000.000001000.000001000.00000
     Eigenvalues --- 1000.000001000.000001000.000001000.000001000.00000
     Eigenvalues --- 1000.000001000.000001000.000001000.000001000.00000
     Eigenvalues --- 1000.00000
 RFO step:  Lambda=-8.67729616D-04 EMin= 1.50942807D-02
 Quartic linear search produced a step of  0.10296.
 Iteration  1 RMS(Cart)=  0.01085486 RMS(Int)=  0.00007399
 Iteration  2 RMS(Cart)=  0.00008642 RMS(Int)=  0.00001034
 Iteration  3 RMS(Cart)=  0.00000000 RMS(Int)=  0.00001034
 Iteration  1 RMS(Cart)=  0.00000575 RMS(Int)=  0.00000229
 Iteration  2 RMS(Cart)=  0.00000314 RMS(Int)=  0.00000256
 Iteration  3 RMS(Cart)=  0.00000172 RMS(Int)=  0.00000289
 Iteration  4 RMS(Cart)=  0.00000094 RMS(Int)=  0.00000311
 Variable       Old X    -DE/DX   Delta X   Delta X   Delta X     New X
                                 (Linear)    (Quad)   (Total)
    R1        2.70937  -0.00503  -0.00027  -0.01364  -0.01391   2.69546
    R2        2.61755   0.00265   0.00716   0.00153   0.00869   2.62624
    R3        2.06673  -0.00016   0.00263  -0.00177   0.00085   2.06758
    R4        2.63492   0.00447   0.00718   0.00550   0.01268   2.64760
    R5        2.59323   0.00407   0.00403   0.00610   0.01014   2.60336
    R6        3.31364  -0.00274   0.00070  -0.01016  -0.00946   3.30418
    R7        2.75021  -0.00231  -0.00167  -0.00615  -0.00782   2.74239
    R8        3.27434  -0.00050   0.00203  -0.00264  -0.00062   3.27372
    R9        2.06055  -0.00019   0.00287  -0.00200   0.00087   2.06142
   R10        3.34838  -0.00059   0.00186  -0.00344  -0.00158   3.34679
   R11        2.63192   0.00389   0.00710   0.00421   0.01131   2.64323
   R12        3.29746  -0.00106   0.00164  -0.00440  -0.00275   3.29470
   R13        2.65811   0.00514   0.00852   0.00678   0.01530   2.67342
   R14        2.70711  -0.00359  -0.00035  -0.00950  -0.00985   2.69726
   R15        2.69970  -0.00320  -0.00048  -0.00823  -0.00871   2.69099
   R16        3.29862  -0.00146   0.00152  -0.00572  -0.00419   3.29443
   R17        2.06136  -0.00036   0.00304  -0.00257   0.00047   2.06183
   R18        3.31511  -0.00156   0.00160  -0.00663  -0.00504   3.31008
   R19        2.61825   0.00275   0.00711   0.00166   0.00877   2.62702
   R20        2.06189   0.00006   0.00273  -0.00117   0.00156   2.06345
   R21        2.06305  -0.00027   0.00269  -0.00215   0.00054   2.06359
   R22        1.82334   0.00274   0.00440   0.00278   0.00718   1.83051
    A1        1.95715   0.00043  -0.00027   0.00233   0.00205   1.95921
    A2        2.15914   0.00088   0.00009   0.00638   0.00647   2.16561
    A3        2.16689  -0.00131   0.00018  -0.00871  -0.00853   2.15836
    A4        1.97683   0.00165  -0.00120   0.00790   0.00670   1.98353
    A5        2.17920   0.00255   0.00278   0.00988   0.01266   2.19187
    A6        2.12713  -0.00419  -0.00158  -0.01776  -0.01935   2.10778
    A7        1.92825  -0.00250   0.00123  -0.01135  -0.01013   1.91812
    A8        2.23235   0.00045  -0.00045   0.00213   0.00166   2.23401
    A9        2.12255   0.00205  -0.00077   0.00928   0.00850   2.13105
   A10        1.95780  -0.00181   0.00030  -0.00906  -0.00876   1.94904
   A11        2.23414   0.00100   0.00079   0.00482   0.00561   2.23976
   A12        2.09119   0.00081  -0.00109   0.00422   0.00313   2.09432
   A13        1.60454   0.00223  -0.00006   0.01010   0.01005   1.61459
   A14        2.08787   0.00145  -0.00119   0.00718   0.00598   2.09385
   A15        2.22603   0.00051  -0.00038   0.00264   0.00225   2.22829
   A16        1.96927  -0.00196   0.00156  -0.00986  -0.00832   1.96095
   A17        1.58368   0.00253  -0.00048   0.01079   0.01030   1.59399
   A18        1.94245  -0.00240   0.00068  -0.01072  -0.01005   1.93240
   A19        2.35411   0.00139   0.00000   0.00544   0.00544   2.35955
   A20        1.98660   0.00101  -0.00068   0.00526   0.00458   1.99118
   A21        1.99238   0.00103  -0.00052   0.00508   0.00455   1.99693
   A22        1.94137  -0.00258   0.00041  -0.01111  -0.01069   1.93068
   A23        2.34940   0.00154   0.00011   0.00602   0.00613   2.35553
   A24        1.93686   0.00079  -0.00124   0.00458   0.00334   1.94020
   A25        2.15608  -0.00194   0.00014  -0.01272  -0.01258   2.14350
   A26        2.19023   0.00115   0.00109   0.00812   0.00921   2.19944
   A27        1.58187   0.00240   0.00004   0.01038   0.01043   1.59230
   A28        1.98443  -0.00146   0.00094  -0.00810  -0.00717   1.97726
   A29        2.07575   0.00066  -0.00115   0.00382   0.00267   2.07842
   A30        2.22301   0.00080   0.00022   0.00428   0.00450   2.22750
   A31        1.93050   0.00062  -0.00070   0.00357   0.00285   1.93335
   A32        2.18765   0.00076   0.00044   0.00551   0.00596   2.19360
   A33        2.16504  -0.00138   0.00027  -0.00908  -0.00881   2.15623
   A34        1.90707  -0.00301  -0.00275  -0.01959  -0.02235   1.88472
    D1       -0.00092   0.00000  -0.00027  -0.00084  -0.00111  -0.00203
    D2       -3.13524  -0.00002  -0.00017  -0.00359  -0.00378  -3.13902
    D3       -3.14027   0.00001  -0.00008   0.00101   0.00095  -3.13932
    D4        0.00859  -0.00001   0.00003  -0.00174  -0.00172   0.00687
    D5        0.01362   0.00004   0.00035   0.00293   0.00326   0.01688
    D6       -3.13952   0.00000   0.00020   0.00129   0.00148  -3.13804
    D7       -3.13022   0.00003   0.00015   0.00108   0.00123  -3.12899
    D8       -0.00018  -0.00001   0.00000  -0.00055  -0.00054  -0.00073
    D9       -0.01191  -0.00005   0.00007  -0.00161  -0.00155  -0.01346
   D10        3.13878  -0.00013  -0.00028  -0.00875  -0.00899   3.12979
   D11        3.12266   0.00001  -0.00002   0.00117   0.00112   3.12378
   D12       -0.00984  -0.00007  -0.00037  -0.00597  -0.00632  -0.01616
   D13       -0.16211   0.00015   0.00047   0.00766   0.00812  -0.15399
   D14        2.98735   0.00010   0.00058   0.00457   0.00516   2.99251
   D15        0.01652   0.00006   0.00012   0.00278   0.00291   0.01943
   D16       -3.13350   0.00013   0.00044   0.00936   0.00980  -3.12370
   D17       -2.79197  -0.00008  -0.00000   0.00000   0.00000  -2.79197
   D18        0.34400  -0.00019  -0.00049  -0.00992  -0.01043   0.33357
   D19        0.35963  -0.00014  -0.00040  -0.00775  -0.00816   0.35146
   D20       -2.78759  -0.00025  -0.00089  -0.01768  -0.01860  -2.80619
   D21       -0.01737  -0.00007  -0.00027  -0.00335  -0.00362  -0.02099
   D22        3.13472  -0.00004  -0.00015  -0.00188  -0.00204   3.13267
   D23       -3.13427   0.00002  -0.00009  -0.00069  -0.00076  -3.13503
   D24        0.01216   0.00010   0.00034   0.00782   0.00815   0.02030
   D25        3.14038   0.00002   0.00023   0.00249   0.00271  -3.14010
   D26        0.00401   0.00007   0.00030   0.00605   0.00631   0.01031
   D27       -0.00651  -0.00007  -0.00024  -0.00683  -0.00703  -0.01354
   D28        3.14030  -0.00003  -0.00016  -0.00327  -0.00343   3.13687
   D29       -0.01445  -0.00008  -0.00032  -0.00654  -0.00685  -0.02130
   D30        3.13492  -0.00002  -0.00007  -0.00227  -0.00234   3.13258
   D31        0.01385   0.00005   0.00026   0.00398   0.00422   0.01807
   D32       -3.13540   0.00004   0.00022   0.00303   0.00323  -3.13217
   D33       -3.13377   0.00001   0.00007   0.00069   0.00076  -3.13301
   D34        0.00016   0.00000   0.00003  -0.00026  -0.00023  -0.00007
[...]
 Center     Atomic      Atomic             Coordinates (Angstroms)
 Number     Number       Type             X           Y           Z
 ---------------------------------------------------------------------
      1          6           0        3.943846    0.884911    0.090765
      2          6           0        2.550484    1.165725    0.141278
      3          6           0        1.739581    0.034999   -0.036489
      4          6           0        4.201048   -0.464921   -0.123780
      5          1           0        4.729894    1.635828    0.208522
      6         16           0        2.738719   -1.376509   -0.282359
      7          1           0        5.166452   -0.963633   -0.207464
      8          6           0        0.291669   -0.037074   -0.019838
      9         16           0       -0.512616   -1.587708    0.263183
     10          6           0       -2.083056   -0.845784    0.125227
     11          6           0       -1.960336    0.546608   -0.105360
     12          6           0       -0.620044    1.010786   -0.190647
     13          1           0       -0.303416    2.038104   -0.372433
     14         16           0       -3.532318    1.288149   -0.227945
     15          6           0       -4.321021   -0.252338    0.026513
     16          6           0       -3.429597   -1.304757    0.201433
     17          1           0       -5.411107   -0.296538    0.033027
     18          1           0       -3.745865   -2.335297    0.372228
     19          8           0        1.986270    2.409277    0.340906
     20          1           0        2.697888    3.035483    0.538196
 ---------------------------------------------------------------------
 Rotational constants (GHZ):           1.2823042           0.2802084           0.2322272

 **********************************************************************

            Population analysis using the SCF Density.

 **********************************************************************

 Orbital symmetries:
       Occupied  (A) (A) (A) (A) (A) (A) (A) (A) (A) (A) (A) (A)
                 (A) (A) (A) (A) (A) (A) (A) (A) (A) (A) (A) (A)
                 (A) (A) (A) (A) (A) (A) (A) (A) (A) (A) (A) (A)
                 (A) (A) (A) (A) (A) (A) (A) (A) (A) (A) (A) (A)
                 (A) (A) (A) (A) (A) (A) (A) (A) (A) (A) (A) (A)
                 (A)
       Virtual   (A) (A) (A) (A) (A) (A) (A) (A) (A) (A) (A) (A)
                 (A) (A) (A) (A) (A) (A) (A) (A) (A) (A) (A) (A)
                 (A) (A) (A) (A) (A) (A) (A) (A) (A) (A) (A) (A)
                 (A) (A) (A) (A) (A) (A) (A) (A) (A) (A) (A) (A)
                 (A) (A) (A) (A) (A) (A) (A) (A) (A) (A) (A) (A)
                 (A) (A) (A) (A) (A) (A) (A) (A) (A) (A) (A) (A)
                 (A) (A) (A) (A) (A) (A) (A) (A) (A) (A) (A) (A)
                 (A) (A) (A) (A) (A) (A) (A) (A) (A) (A) (A) (A)
                 (A) (A) (A) (A) (A) (A) (A) (A) (A) (A) (A) (A)
                 (A) (A) (A) (A) (A) (A) (A) (A) (A) (A) (A) (A)
                 (A) (A) (A) (A) (A) (A) (A) (A) (A) (A) (A) (A)
                 (A) (A) (A) (A) (A) (A) (A) (A) (A) (A) (A) (A)
                 (A) (A) (A) (A) (A) (A) (A) (A) (A) (A) (A) (A)
                 (A) (A) (A) (A) (A) (A) (A) (A) (A) (A) (A) (A)
                 (A) (A) (A) (A) (A) (A) (A) (A) (A) (A) (A) (A)
                 (A) (A) (A) (A) (A) (A) (A) (A) (A) (A) (A) (A)
                 (A) (A) (A) (A) (A) (A) (A) (A) (A) (A) (A) (A)
                 (A) (A) (A) (A) (A) (A) (A) (A) (A) (A) (A) (A)
                 (A) (A) (A) (A) (A) (A) (A) (A) (A) (A) (A) (A)
                 (A) (A) (A) (A) (A) (A) (A) (A) (A) (A) (A) (A)
                 (A) (A) (A) (A) (A) (A) (A) (A) (A) (A) (A) (A)
                 (A) (A) (A) (A) (A) (A) (A) (A) (A) (A) (A) (A)
                 (A) (A) (A) (A) (A) (A) (A) (A) (A) (A) (A) (A)
                 (A) (A) (A) (A) (A) (A) (A) (A) (A) (A) (A) (A)
                 (A) (A) (A) (A) (A) (A) (A) (A) (A) (A) (A) (A)
                 (A) (A) (A) (A) (A) (A) (A) (A) (A) (A) (A) (A)
                 (A) (A) (A) (A) (A) (A) (A) (A) (A) (A) (A) (A)
                 (A) (A) (A)
 The electronic state is 1-A.
 Alpha  occ. eigenvalues --  -91.99773 -91.99008 -91.98992 -20.61884 -11.32546
 Alpha  occ. eigenvalues --  -11.29300 -11.29288 -11.28207 -11.27945 -11.27572
 Alpha  occ. eigenvalues --  -11.27431 -11.26610 -11.26134 -11.25536  -8.99927
 Alpha  occ. eigenvalues --   -8.99120  -8.99118  -6.68093  -6.68001  -6.67812
 Alpha  occ. eigenvalues --   -6.67287  -6.67286  -6.67206  -6.67204  -6.67010
 Alpha  occ. eigenvalues --   -6.66999  -1.41863  -1.20183  -1.17751  -1.11592
 Alpha  occ. eigenvalues --   -1.02406  -1.02022  -0.98991  -0.94420  -0.93798
 Alpha  occ. eigenvalues --   -0.82654  -0.80696  -0.76332  -0.73945  -0.71957
 Alpha  occ. eigenvalues --   -0.69657  -0.66475  -0.65559  -0.61231  -0.60695
 Alpha  occ. eigenvalues --   -0.58399  -0.56325  -0.55591  -0.54350  -0.53046
 Alpha  occ. eigenvalues --   -0.51872  -0.51047  -0.49961  -0.48229  -0.46253
 Alpha  occ. eigenvalues --   -0.45654  -0.39024  -0.35568  -0.34033  -0.31828
 Alpha  occ. eigenvalues --   -0.25980
 Alpha virt. eigenvalues --    0.02674   0.03737   0.03837   0.05087   0.05112
 Alpha virt. eigenvalues --    0.05595   0.06743   0.08223   0.08749   0.09539
 Alpha virt. eigenvalues --    0.10425   0.10481   0.10807   0.10905   0.11467
 Alpha virt. eigenvalues --    0.12348   0.12484   0.13037   0.13075   0.13276
 Alpha virt. eigenvalues --    0.13855   0.14070   0.14563   0.14753   0.15266
 Alpha virt. eigenvalues --    0.15505   0.16017   0.16096   0.16692   0.17053
 Alpha virt. eigenvalues --    0.17707   0.18065   0.18679   0.19265   0.19494
 Alpha virt. eigenvalues --    0.19961   0.20398   0.20763   0.21236   0.21709
 Alpha virt. eigenvalues --    0.22033   0.22326   0.22776   0.23482   0.23784
 Alpha virt. eigenvalues --    0.24064   0.24415   0.25614   0.25863   0.26093
 Alpha virt. eigenvalues --    0.26539   0.26813   0.27043   0.28132   0.28195
 Alpha virt. eigenvalues --    0.28908   0.29515   0.29880   0.30787   0.31071
 Alpha virt. eigenvalues --    0.31613   0.32025   0.32480   0.33039   0.33385
 Alpha virt. eigenvalues --    0.33869   0.34108   0.34555   0.34940   0.35478
 Alpha virt. eigenvalues --    0.36144   0.37096   0.37942   0.38477   0.39347
 Alpha virt. eigenvalues --    0.40009   0.40324   0.41181   0.41377   0.42050
 Alpha virt. eigenvalues --    0.43223   0.43596   0.44283   0.44839   0.45247
 Alpha virt. eigenvalues --    0.45491   0.46429   0.46906   0.48404   0.48855
 Alpha virt. eigenvalues --    0.49227   0.49323   0.49841   0.50923   0.52252
 Alpha virt. eigenvalues --    0.52845   0.53380   0.54044   0.54681   0.54908
 Alpha virt. eigenvalues --    0.55625   0.57120   0.58261   0.58802   0.59591
 Alpha virt. eigenvalues --    0.60473   0.60807   0.61607   0.62058   0.62926
 Alpha virt. eigenvalues --    0.63782   0.63961   0.64853   0.65106   0.65778
 Alpha virt. eigenvalues --    0.66250   0.66522   0.66822   0.67410   0.68114
 Alpha virt. eigenvalues --    0.68686   0.68959   0.69320   0.70435   0.70801
 Alpha virt. eigenvalues --    0.71087   0.71810   0.72246   0.73279   0.73637
 Alpha virt. eigenvalues --    0.74175   0.74812   0.75020   0.75952   0.76871
 Alpha virt. eigenvalues --    0.77311   0.77508   0.77746   0.78532   0.79857
 Alpha virt. eigenvalues --    0.81826   0.82743   0.83692   0.84373   0.84586
 Alpha virt. eigenvalues --    0.85629   0.86232   0.86446   0.86993   0.87577
 Alpha virt. eigenvalues --    0.88033   0.88568   0.90282   0.91047   0.91459
 Alpha virt. eigenvalues --    0.92382   0.93053   0.93296   0.93841   0.95201
 Alpha virt. eigenvalues --    0.95763   0.96914   0.97307   0.97816   0.98064
 Alpha virt. eigenvalues --    0.98664   0.99473   1.00842   1.01803   1.02671
 Alpha virt. eigenvalues --    1.03390   1.04582   1.04881   1.06430   1.08701
 Alpha virt. eigenvalues --    1.09454   1.10140   1.10894   1.12625   1.12904
 Alpha virt. eigenvalues --    1.13095   1.14515   1.17687   1.18098   1.18815
 Alpha virt. eigenvalues --    1.19437   1.20040   1.21130   1.22137   1.23197
 Alpha virt. eigenvalues --    1.24562   1.25174   1.26124   1.27610   1.28709
 Alpha virt. eigenvalues --    1.28945   1.29743   1.30719   1.31249   1.33201
 Alpha virt. eigenvalues --    1.33355   1.34082   1.35081   1.36488   1.36927
 Alpha virt. eigenvalues --    1.38264   1.39348   1.40532   1.42303   1.43178
 Alpha virt. eigenvalues --    1.44616   1.45201   1.47644   1.49204   1.50513
 Alpha virt. eigenvalues --    1.52723   1.53745   1.55221   1.56298   1.58052
 Alpha virt. eigenvalues --    1.59032   1.60049   1.60132   1.61846   1.62442
 Alpha virt. eigenvalues --    1.63605   1.64677   1.66584   1.66791   1.67055
 Alpha virt. eigenvalues --    1.69178   1.69507   1.70851   1.71283   1.72259
 Alpha virt. eigenvalues --    1.73857   1.74181   1.76289   1.77838   1.78034
 Alpha virt. eigenvalues --    1.79674   1.80810   1.81823   1.82650   1.83563
 Alpha virt. eigenvalues --    1.84773   1.86122   1.87796   1.88720   1.89366
 Alpha virt. eigenvalues --    1.90209   1.91695   1.92628   1.94834   1.95985
 Alpha virt. eigenvalues --    1.96687   1.99098   1.99618   2.01452   2.03307
 Alpha virt. eigenvalues --    2.04177   2.05892   2.07607   2.08481   2.09377
 Alpha virt. eigenvalues --    2.09839   2.11284   2.11569   2.13667   2.14462
 Alpha virt. eigenvalues --    2.16063   2.18200   2.18573   2.20335   2.22759
 Alpha virt. eigenvalues --    2.23606   2.25777   2.26748   2.27672   2.29941
 Alpha virt. eigenvalues --    2.30469   2.31132   2.33791   2.34632   2.35729
 Alpha virt. eigenvalues --    2.36924   2.39030   2.41333   2.42412   2.44565
 Alpha virt. eigenvalues --    2.45831   2.46648   2.48492   2.49845   2.50952
 Alpha virt. eigenvalues --    2.54227   2.56336   2.58479   2.63496   2.65642
 Alpha virt. eigenvalues --    2.72457   2.76017   2.80015   2.80678   2.83958
 Alpha virt. eigenvalues --    2.87467   2.93722   2.94133   2.98061   3.03388
 Alpha virt. eigenvalues --    3.15118   3.15657   3.23406   3.26567   3.32374
 Alpha virt. eigenvalues --    3.36117   3.47026   3.57073   3.64027   3.76567
 Alpha virt. eigenvalues --    3.77065   3.78471   3.84302   3.91374   4.13979
 Alpha virt. eigenvalues --    4.27277   4.42627
          Condensed to atoms (all electrons):
               1          2          3          4          5          6
     1  C    8.056869  -2.274487  -0.159395   0.218361  -0.201353  -0.273771
     2  C   -2.274487  12.058292  -2.240622   0.453322   0.245248  -0.555732
     3  C   -0.159395  -2.240622  12.050639  -1.181721   0.080775  -0.114148
     4  C    0.218361   0.453322  -1.181721   6.552732  -0.058220   0.157124
     5  H   -0.201353   0.245248   0.080775  -0.058220   1.570252  -0.039128
     6  S   -0.273771  -0.555732  -0.114148   0.157124  -0.039128  16.413999
     7  H   -0.042626   0.046153  -0.000487   0.241662  -0.059228  -0.097488
     8  C    0.347416  -0.718525  -2.684606   0.149905  -0.072264   0.075727
     9  S    0.044650   0.042550  -0.426584  -0.053389  -0.004398   0.104442
    10  C    0.017428   0.026435  -0.068898  -0.022415  -0.003760   0.012648
    11  C   -0.075453   0.104017   0.369574   0.010842   0.004669  -0.023061
    12  C   -0.246254  -0.767721  -0.306057  -0.028426   0.027087  -0.212359
    13  H    0.008250   0.178360  -0.033139   0.007323   0.004485  -0.000867
    14  S   -0.001863   0.004671  -0.052572   0.000115  -0.000156   0.001148
    15  C    0.000938   0.000378   0.004710  -0.000455   0.000027  -0.004601
    16  C    0.002082  -0.013935  -0.267991  -0.003375  -0.000098   0.029943
    17  H    0.000064   0.000382  -0.001238  -0.000037   0.000002  -0.000199
    18  H   -0.000189   0.001186  -0.006654   0.000046  -0.000030   0.001207
    19  O    0.109395  -0.906131   0.381604  -0.067033  -0.050856   0.023108
    20  H   -0.097494   0.004354  -0.035579  -0.012488  -0.008352   0.007504
               7          8          9         10         11         12
     1  C   -0.042626   0.347416   0.044650   0.017428  -0.075453  -0.246254
     2  C    0.046153  -0.718525   0.042550   0.026435   0.104017  -0.767721
     3  C   -0.000487  -2.684606  -0.426584  -0.068898   0.369574  -0.306057
     4  C    0.241662   0.149905  -0.053389  -0.022415   0.010842  -0.028426
     5  H   -0.059228  -0.072264  -0.004398  -0.003760   0.004669   0.027087
     6  S   -0.097488   0.075727   0.104442   0.012648  -0.023061  -0.212359
     7  H    1.231985   0.017296   0.007770   0.003804  -0.000897  -0.009494
     8  C    0.017296  12.361197   0.176778  -0.561140  -0.568278  -2.956390
     9  S    0.007770   0.176778  16.769097   0.096249  -0.473503  -0.685393
    10  C    0.003804  -0.561140   0.096249  10.600011  -0.699731  -0.404762
    11  C   -0.000897  -0.568278  -0.473503  -0.699731  12.089020  -3.242407
    12  C   -0.009494  -2.956390  -0.685393  -0.404762  -3.242407  15.938472
    13  H    0.000092   0.561079   0.019823  -0.098690   0.361195  -1.139648
    14  S   -0.000021  -0.344486   0.136901   0.167868  -0.569990   0.156459
    15  C   -0.000002   0.056256  -0.100573  -0.067253  -1.018009   0.070271
    16  C   -0.000259  -0.082182  -0.183209  -2.964545  -0.192662  -0.441229
    17  H   -0.000001  -0.000314   0.010573   0.075523  -0.085101   0.033762
    18  H    0.000031   0.062233   0.045886   0.492574   0.005818  -0.039585
    19  O   -0.002356   0.010454  -0.007486   0.011610  -0.055139   0.090479
    20  H    0.001253   0.028503   0.001142   0.001275  -0.003705   0.003367
              13         14         15         16         17         18
     1  C    0.008250  -0.001863   0.000938   0.002082   0.000064  -0.000189
     2  C    0.178360   0.004671   0.000378  -0.013935   0.000382   0.001186
     3  C   -0.033139  -0.052572   0.004710  -0.267991  -0.001238  -0.006654
     4  C    0.007323   0.000115  -0.000455  -0.003375  -0.000037   0.000046
     5  H    0.004485  -0.000156   0.000027  -0.000098   0.000002  -0.000030
     6  S   -0.000867   0.001148  -0.004601   0.029943  -0.000199   0.001207
     7  H    0.000092  -0.000021  -0.000002  -0.000259  -0.000001   0.000031
     8  C    0.561079  -0.344486   0.056256  -0.082182  -0.000314   0.062233
     9  S    0.019823   0.136901  -0.100573  -0.183209   0.010573   0.045886
    10  C   -0.098690   0.167868  -0.067253  -2.964545   0.075523   0.492574
    11  C    0.361195  -0.569990  -1.018009  -0.192662  -0.085101   0.005818
    12  C   -1.139648   0.156459   0.070271  -0.441229   0.033762  -0.039585
    13  H    1.705288  -0.056394   0.011286  -0.036934   0.001857   0.000790
    14  S   -0.056394  16.036691   0.232661  -0.103320  -0.137892   0.001155
    15  C    0.011286   0.232661   6.596988   0.241304   0.299109  -0.124743
    16  C   -0.036934  -0.103320   0.241304  10.110560  -0.035260  -0.417338
    17  H    0.001857  -0.137892   0.299109  -0.035260   1.254084  -0.061903
    18  H    0.000790   0.001155  -0.124743  -0.417338  -0.061903   1.331417
    19  O   -0.062964   0.000422   0.001110   0.001373   0.000053  -0.000005
    20  H   -0.001878  -0.000052  -0.000243   0.000855  -0.000016   0.000049
              19         20
     1  C    0.109395  -0.097494
     2  C   -0.906131   0.004354
     3  C    0.381604  -0.035579
     4  C   -0.067033  -0.012488
     5  H   -0.050856  -0.008352
     6  S    0.023108   0.007504
     7  H   -0.002356   0.001253
     8  C    0.010454   0.028503
     9  S   -0.007486   0.001142
    10  C    0.011610   0.001275
    11  C   -0.055139  -0.003705
    12  C    0.090479   0.003367
    13  H   -0.062964  -0.001878
    14  S    0.000422  -0.000052
    15  C    0.001110  -0.000243
    16  C    0.001373   0.000855
    17  H    0.000053  -0.000016
    18  H   -0.000005   0.000049
    19  O    9.175093   0.339063
    20  H    0.339063   0.550457
 Mulliken charges:
               1
     1  C    0.567430
     2  C    0.311806
     3  C    0.692388
     4  C   -0.363871
     5  H   -0.434701
     6  S    0.494505
     7  H   -0.337184
     8  C    0.141344
     9  S    0.478673
    10  C   -0.614231
    11  C    0.062802
    12  C    0.159830
    13  H   -0.429313
    14  S    0.528658
    15  C   -0.199158
    16  C    0.356220
    17  H   -0.353447
    18  H   -0.291944
    19  O   -0.991793
    20  H    0.221987
 Sum of Mulliken charges =  -0.00000
 Mulliken charges with hydrogens summed into heavy atoms:
               1
     1  C    0.132729
     2  C    0.311806
     3  C    0.692388
     4  C   -0.701056
     6  S    0.494505
     8  C    0.141344
     9  S    0.478673
    10  C   -0.614231
    11  C    0.062802
    12  C   -0.269482
    14  S    0.528658
    15  C   -0.552606
    16  C    0.064276
    19  O   -0.769806
 Electronic spatial extent (au):  <R**2>=           4334.9351
 Charge=             -0.0000 electrons
 Dipole moment (field-independent basis, Debye):
    X=              2.3606    Y=              1.1539    Z=              0.3153  Tot=              2.6464
 Quadrupole moment (field-independent basis, Debye-Ang):
   XX=            -77.9481   YY=            -94.6123   ZZ=           -110.8836
   XY=             10.6506   XZ=              0.6231   YZ=              0.5228
 Traceless Quadrupole moment (field-independent basis, Debye-Ang):
   XX=             16.5332   YY=             -0.1309   ZZ=            -16.4023
   XY=             10.6506   XZ=              0.6231   YZ=              0.5228
 Octapole moment (field-independent basis, Debye-Ang**2):
  XXX=             49.2759  YYY=             29.9634  ZZZ=              1.9059  XYY=             26.3051
  XXY=              6.5571  XXZ=              7.2038  XZZ=              5.0492  YZZ=              5.0266
  YYZ=              6.0331  XYZ=             11.2296
 Hexadecapole moment (field-independent basis, Debye-Ang**3):
 XXXX=          -4029.7457 YYYY=           -958.1212 ZZZZ=           -168.9855 XXXY=            125.0232
 XXXZ=              0.8901 YYYX=            133.4979 YYYZ=             15.3267 ZZZX=              6.1386
 ZZZY=              5.9625 XXYY=           -847.2236 XXZZ=           -926.3407 YYZZ=           -213.8254
 XXYZ=             21.9254 YYXZ=             13.3265 ZZXY=              7.3536
 N-N= 1.122137841418D+03 E-N=-6.150748054992D+03  KE= 1.648704359419D+03
 Unable to Open any file for archive entry.
 1\1\GINC-CX3-12-28\FOpt\RMP2-FC\Aug-CC-pVDZ\C10H6O1S3\NS5018\27-Oct-20
 21\0\\# opt=modredundant mp2/aug-cc-pvdz\\pBTTT_-160.pdb\\0,1\C,3.9442
 158911,0.8721167163,0.0896723293\C,2.5516747572,1.1563181061,0.1437612
 08\C,1.7375301792,0.0287657651,-0.0392701185\C,4.1975388547,-0.4771482
 136,-0.1329005103\H,4.7324144931,1.6202740417,0.2105738757\S,2.7325781
 35,-1.3839558761,-0.2945735208\H,5.1614993496,-0.9779242528,-0.2207890
 226\C,0.2894565623,-0.0395767309,-0.020969062\S,-0.5185337208,-1.58966
 49382,0.254384593\C,-2.0871957503,-0.8428241352,0.1228787076\C,-1.9611
 120958,0.5505264365,-0.0999708938\C,-0.6197169338,1.0116412859,-0.1845
 273005\H,-0.3006248553,2.0391358074,-0.3609264826\S,-3.5312954862,1.29
 69012957,-0.2161065653\C,-4.3237172375,-0.2429189042,0.0307209735\C,-3
 .434838979,-1.2986649722,0.1983931798\H,-5.4139059754,-0.2842761421,0.
 0385340593\H,-3.7535950032,-2.3293204414,0.3637823965\O,1.991038592,2.
 4002009875,0.3512508786\H,2.7045892231,3.0233941644,0.5510812753\\Vers
 ion=ES64L-G16RevC.01\State=1-A\HF=-1649.6307752\MP2=-1651.6235562\RMSD
 =9.200e-09\RMSF=7.963e-05\Dipole=0.7222799,0.395135,0.1114087\PG=C01 [
 X(C10H6O1S3)]\\@
 The archive entry for this job was punched.


 MEMORIES ARE LIKE AN ENGLISH GRAMMER LESSON -
 PRESENT TENSE, AND PAST PERFECT.
 Job cpu time:       0 days 12 hours 28 minutes 46.0 seconds.
 Elapsed time:       0 days  1 hours 43 minutes 13.3 seconds.
 File lengths (MBytes):  RWF=    106 Int=      0 D2E=      0 Chk=     16 Scr=      1
 Normal termination of Gaussian 16 at Wed Oct 27 05:40:34 2021.
