 Entering Gaussian System, Link 0=g16
 Input=pBTTT_70.gjf
 Output=pBTTT_70.log
 Initial command:
 /apps/gaussian/g16-c01-avx/g16/l1.exe "/tmp/pbs.4766300[245].pbs/Gau-556610.inp" -scrdir="/tmp/pbs.4766300[245].pbs/"
 Entering Link 1 = /apps/gaussian/g16-c01-avx/g16/l1.exe PID=    556611.
  
 Copyright (c) 1988-2019, Gaussian, Inc.  All Rights Reserved.
  
 This is part of the Gaussian(R) 16 program.  It is based on
 the Gaussian(R) 09 system (copyright 2009, Gaussian, Inc.),
 the Gaussian(R) 03 system (copyright 2003, Gaussian, Inc.),
 the Gaussian(R) 98 system (copyright 1998, Gaussian, Inc.),
 the Gaussian(R) 94 system (copyright 1995, Gaussian, Inc.),
 the Gaussian 92(TM) system (copyright 1992, Gaussian, Inc.),
 the Gaussian 90(TM) system (copyright 1990, Gaussian, Inc.),
 the Gaussian 88(TM) system (copyright 1988, Gaussian, Inc.),
 the Gaussian 86(TM) system (copyright 1986, Carnegie Mellon
 University), and the Gaussian 82(TM) system (copyright 1983,
 Carnegie Mellon University). Gaussian is a federally registered
 trademark of Gaussian, Inc.
  
 This software contains proprietary and confidential information,
 including trade secrets, belonging to Gaussian, Inc.
  
 This software is provided under written license and may be
 used, copied, transmitted, or stored only in accord with that
 written license.
  
 The following legend is applicable only to US Government
 contracts under FAR:
  
                    RESTRICTED RIGHTS LEGEND
  
 Use, reproduction and disclosure by the US Government is
 subject to restrictions as set forth in subparagraphs (a)
 and (c) of the Commercial Computer Software - Restricted
 Rights clause in FAR 52.227-19.
  
 Gaussian, Inc.
 340 Quinnipiac St., Bldg. 40, Wallingford CT 06492
  
  
 ---------------------------------------------------------------
 Warning -- This program may not be used in any manner that
 competes with the business of Gaussian, Inc. or will provide
 assistance to any competitor of Gaussian, Inc.  The licensee
 of this program is prohibited from giving any competitor of
 Gaussian, Inc. access to this program.  By using this program,
 the user acknowledges that Gaussian, Inc. is engaged in the
 business of creating and licensing software in the field of
 computational chemistry and represents and warrants to the
 licensee that it is not a competitor of Gaussian, Inc. and that
 it will not use this program in any manner prohibited above.
 ---------------------------------------------------------------
  

 Cite this work as:
 Gaussian 16, Revision C.01,
 M. J. Frisch, G. W. Trucks, H. B. Schlegel, G. E. Scuseria, 
 M. A. Robb, J. R. Cheeseman, G. Scalmani, V. Barone, 
 G. A. Petersson, H. Nakatsuji, X. Li, M. Caricato, A. V. Marenich, 
 J. Bloino, B. G. Janesko, R. Gomperts, B. Mennucci, H. P. Hratchian, 
 J. V. Ortiz, A. F. Izmaylov, J. L. Sonnenberg, D. Williams-Young, 
 F. Ding, F. Lipparini, F. Egidi, J. Goings, B. Peng, A. Petrone, 
 T. Henderson, D. Ranasinghe, V. G. Zakrzewski, J. Gao, N. Rega, 
 G. Zheng, W. Liang, M. Hada, M. Ehara, K. Toyota, R. Fukuda, 
 J. Hasegawa, M. Ishida, T. Nakajima, Y. Honda, O. Kitao, H. Nakai, 
 T. Vreven, K. Throssell, J. A. Montgomery, Jr., J. E. Peralta, 
 F. Ogliaro, M. J. Bearpark, J. J. Heyd, E. N. Brothers, K. N. Kudin, 
 V. N. Staroverov, T. A. Keith, R. Kobayashi, J. Normand, 
 K. Raghavachari, A. P. Rendell, J. C. Burant, S. S. Iyengar, 
 J. Tomasi, M. Cossi, J. M. Millam, M. Klene, C. Adamo, R. Cammi, 
 J. W. Ochterski, R. L. Martin, K. Morokuma, O. Farkas, 
 J. B. Foresman, and D. J. Fox, Gaussian, Inc., Wallingford CT, 2019.
 
 ******************************************
 Gaussian 16:  ES64L-G16RevC.01  3-Jul-2019
                27-Oct-2021 
 ******************************************
 %mem=100GB
 %nprocshared=8
 Will use up to    8 processors via shared memory.
 ----------------------------------
 # opt=modredundant mp2/aug-cc-pvdz
 ----------------------------------
 1/18=120,19=15,38=1/1,3;
 2/9=110,12=2,17=6,18=5,40=1/2;
 3/5=16,7=10,11=9,25=1,30=1,71=1/1,2,3;
 4//1;
 5/5=2,38=5/2;
 8/6=4,10=1/1;
 9/15=2,16=-3/6;
 10/5=1/2;
 6/7=2,8=2,9=2,10=2/1;
 7/12=2/1,2,3,16;
 1/18=20,19=15/3(2);
 2/9=110/2;
 99//99;
 2/9=110/2;
 3/5=16,7=10,11=9,25=1,30=1,71=1/1,2,3;
 4/5=5,16=3,69=1/1;
 5/5=2,38=5/2;
 8/6=4,10=1/1;
 9/15=2,16=-3/6;
 10/5=1/2;
 7/12=2/1,2,3,16;
 1/18=20,19=15/3(-8);
 2/9=110/2;
 6/7=2,8=2,9=2,10=2/1;
 99/9=10/99;
 ------------
 pBTTT_70.pdb
 ------------
 Symbolic Z-matrix:
 Charge =  0 Multiplicity = 1
 C                     3.997     0.344     0.451 
 C                     2.624     0.737     0.62 
 C                     1.743    -0.099     0.024 
 C                     4.117    -0.788    -0.273 
 H                     4.832     0.891     0.864 
 S                     2.59     -1.404    -0.773 
 H                     5.028    -1.296    -0.54 
 C                     0.274    -0.015     0.001 
 S                    -0.534     1.248    -0.916 
 C                    -2.088     0.618    -0.468 
 C                    -1.96     -0.49      0.318 
 C                    -0.603    -0.86      0.589 
 H                    -0.298    -1.699     1.192 
 S                    -3.515    -1.12      0.772 
 C                    -4.309     0.15     -0.123 
 C                    -3.449     0.996    -0.726 
 H                    -5.385     0.19     -0.148 
 H                    -3.754     1.84     -1.323 
 O                     2.235     1.826     1.316 
 H                     2.98      2.303     1.64 
 
 The following ModRedundant input section has been read:
 D       2       3       8       9 F                                           
 

 GradGradGradGradGradGradGradGradGradGradGradGradGradGradGradGradGradGrad
 Berny optimization.
 Initialization pass.
                           ----------------------------
                           !    Initial Parameters    !
                           ! (Angstroms and Degrees)  !
 --------------------------                            --------------------------
 ! Name  Definition              Value          Derivative Info.                !
 --------------------------------------------------------------------------------
 ! R1    R(1,2)                  1.4381         estimate D2E/DX2                !
 ! R2    R(1,4)                  1.3491         estimate D2E/DX2                !
 ! R3    R(1,5)                  1.0803         estimate D2E/DX2                !
 ! R4    R(2,3)                  1.3529         estimate D2E/DX2                !
 ! R5    R(2,19)                 1.3497         estimate D2E/DX2                !
 ! R6    R(3,6)                  1.748          estimate D2E/DX2                !
 ! R7    R(3,8)                  1.4716         estimate D2E/DX2                !
 ! R8    R(4,6)                  1.7208         estimate D2E/DX2                !
 ! R9    R(4,7)                  1.0767         estimate D2E/DX2                !
 ! R10   R(8,9)                  1.7575         estimate D2E/DX2                !
 ! R11   R(8,12)                 1.3524         estimate D2E/DX2                !
 ! R12   R(9,10)                 1.7357         estimate D2E/DX2                !
 ! R13   R(10,11)                1.3645         estimate D2E/DX2                !
 ! R14   R(10,16)                1.4359         estimate D2E/DX2                !
 ! R15   R(11,12)                1.4324         estimate D2E/DX2                !
 ! R16   R(11,14)                1.7381         estimate D2E/DX2                !
 ! R17   R(12,13)                1.0773         estimate D2E/DX2                !
 ! R18   R(14,15)                1.7448         estimate D2E/DX2                !
 ! R19   R(15,16)                1.3487         estimate D2E/DX2                !
 ! R20   R(15,17)                1.077          estimate D2E/DX2                !
 ! R21   R(16,18)                1.0779         estimate D2E/DX2                !
 ! R22   R(19,20)                0.9421         estimate D2E/DX2                !
 ! A1    A(2,1,4)              112.1662         estimate D2E/DX2                !
 ! A2    A(2,1,5)              123.687          estimate D2E/DX2                !
 ! A3    A(4,1,5)              124.1453         estimate D2E/DX2                !
 ! A4    A(1,2,3)              113.646          estimate D2E/DX2                !
 ! A5    A(1,2,19)             123.7976         estimate D2E/DX2                !
 ! A6    A(3,2,19)             122.553          estimate D2E/DX2                !
 ! A7    A(2,3,6)              110.2825         estimate D2E/DX2                !
 ! A8    A(2,3,8)              128.4386         estimate D2E/DX2                !
 ! A9    A(6,3,8)              121.2774         estimate D2E/DX2                !
 ! A10   A(1,4,6)              112.1711         estimate D2E/DX2                !
 ! A11   A(1,4,7)              127.1742         estimate D2E/DX2                !
 ! A12   A(6,4,7)              120.6547         estimate D2E/DX2                !
 ! A13   A(3,6,4)               91.7334         estimate D2E/DX2                !
 ! A14   A(3,8,9)              120.5376         estimate D2E/DX2                !
 ! A15   A(3,8,12)             127.2212         estimate D2E/DX2                !
 ! A16   A(9,8,12)             112.1935         estimate D2E/DX2                !
 ! A17   A(8,9,10)              90.9228         estimate D2E/DX2                !
 ! A18   A(9,10,11)            111.0657         estimate D2E/DX2                !
 ! A19   A(9,10,16)            134.9678         estimate D2E/DX2                !
 ! A20   A(11,10,16)           113.9654         estimate D2E/DX2                !
 ! A21   A(10,11,12)           114.0543         estimate D2E/DX2                !
 ! A22   A(10,11,14)           111.1533         estimate D2E/DX2                !
 ! A23   A(12,11,14)           134.7897         estimate D2E/DX2                !
 ! A24   A(8,12,11)            111.7586         estimate D2E/DX2                !
 ! A25   A(8,12,13)            123.1198         estimate D2E/DX2                !
 ! A26   A(11,12,13)           125.1194         estimate D2E/DX2                !
 ! A27   A(11,14,15)            90.5335         estimate D2E/DX2                !
 ! A28   A(14,15,16)           113.3126         estimate D2E/DX2                !
 ! A29   A(14,15,17)           119.5753         estimate D2E/DX2                !
 ! A30   A(16,15,17)           127.1121         estimate D2E/DX2                !
 ! A31   A(10,16,15)           111.0349         estimate D2E/DX2                !
 ! A32   A(10,16,18)           125.0205         estimate D2E/DX2                !
 ! A33   A(15,16,18)           123.9444         estimate D2E/DX2                !
 ! A34   A(2,19,20)            110.9748         estimate D2E/DX2                !
 ! D1    D(4,1,2,3)             -0.0518         estimate D2E/DX2                !
 ! D2    D(4,1,2,19)           179.2963         estimate D2E/DX2                !
 ! D3    D(5,1,2,3)           -179.6287         estimate D2E/DX2                !
 ! D4    D(5,1,2,19)            -0.2806         estimate D2E/DX2                !
 ! D5    D(2,1,4,6)              0.227          estimate D2E/DX2                !
 ! D6    D(2,1,4,7)           -179.7264         estimate D2E/DX2                !
 ! D7    D(5,1,4,6)            179.8015         estimate D2E/DX2                !
 ! D8    D(5,1,4,7)             -0.1518         estimate D2E/DX2                !
 ! D9    D(1,2,3,6)             -0.1431         estimate D2E/DX2                !
 ! D10   D(1,2,3,8)            179.4163         estimate D2E/DX2                !
 ! D11   D(19,2,3,6)          -179.5004         estimate D2E/DX2                !
 ! D12   D(19,2,3,8)             0.0591         estimate D2E/DX2                !
 ! D13   D(1,2,19,20)            2.2709         estimate D2E/DX2                !
 ! D14   D(3,2,19,20)         -178.4376         estimate D2E/DX2                !
 ! D15   D(2,3,6,4)              0.2277         estimate D2E/DX2                !
 ! D16   D(8,3,6,4)           -179.3685         estimate D2E/DX2                !
 ! D17   D(2,3,8,9)             70.0028         Frozen                          !
 ! D18   D(2,3,8,12)          -112.7118         estimate D2E/DX2                !
 ! D19   D(6,3,8,9)           -110.4807         estimate D2E/DX2                !
 ! D20   D(6,3,8,12)            66.8047         estimate D2E/DX2                !
 ! D21   D(1,4,6,3)             -0.2623         estimate D2E/DX2                !
 ! D22   D(7,4,6,3)            179.6946         estimate D2E/DX2                !
 ! D23   D(3,8,9,10)           178.3588         estimate D2E/DX2                !
 ! D24   D(12,8,9,10)            0.6932         estimate D2E/DX2                !
 ! D25   D(3,8,12,11)         -178.0986         estimate D2E/DX2                !
 ! D26   D(3,8,12,13)            2.4225         estimate D2E/DX2                !
 ! D27   D(9,8,12,11)           -0.6237         estimate D2E/DX2                !
 ! D28   D(9,8,12,13)          179.8975         estimate D2E/DX2                !
 ! D29   D(8,9,10,11)           -0.5714         estimate D2E/DX2                !
 ! D30   D(8,9,10,16)          179.0023         estimate D2E/DX2                !
 ! D31   D(9,10,11,12)           0.336          estimate D2E/DX2                !
 ! D32   D(9,10,11,14)         179.8271         estimate D2E/DX2                !
 ! D33   D(16,10,11,12)       -179.3339         estimate D2E/DX2                !
 ! D34   D(16,10,11,14)          0.1571         estimate D2E/DX2                !
 ! D35   D(9,10,16,15)        -179.7323         estimate D2E/DX2                !
 ! D36   D(9,10,16,18)           0.4288         estimate D2E/DX2                !
 ! D37   D(11,10,16,15)         -0.1677         estimate D2E/DX2                !
 ! D38   D(11,10,16,18)        179.9935         estimate D2E/DX2                !
 ! D39   D(10,11,12,8)           0.1901         estimate D2E/DX2                !
 ! D40   D(10,11,12,13)        179.6565         estimate D2E/DX2                !
 ! D41   D(14,11,12,8)        -179.1411         estimate D2E/DX2                !
 ! D42   D(14,11,12,13)          0.3253         estimate D2E/DX2                !
 ! D43   D(10,11,14,15)         -0.0831         estimate D2E/DX2                !
 ! D44   D(12,11,14,15)        179.2621         estimate D2E/DX2                !
 ! D45   D(11,14,15,16)         -0.0129         estimate D2E/DX2                !
 ! D46   D(11,14,15,17)        179.8893         estimate D2E/DX2                !
 ! D47   D(14,15,16,10)          0.1004         estimate D2E/DX2                !
 ! D48   D(14,15,16,18)        179.9413         estimate D2E/DX2                !
 ! D49   D(17,15,16,10)       -179.7929         estimate D2E/DX2                !
 ! D50   D(17,15,16,18)          0.048          estimate D2E/DX2                !
 --------------------------------------------------------------------------------
 Trust Radius=3.00D-01 FncErr=1.00D-07 GrdErr=1.00D-07 EigMax=2.50D+02 EigMin=1.00D-04
 Number of steps in this run=    116 maximum allowed number of steps=    120.
 GradGradGradGradGradGradGradGradGradGradGradGradGradGradGradGradGradGrad

                          Input orientation:                          
 ---------------------------------------------------------------------
 Center     Atomic      Atomic             Coordinates (Angstroms)
 Number     Number       Type             X           Y           Z
 ---------------------------------------------------------------------
      1          6           0        3.997000    0.344000    0.451000
      2          6           0        2.624000    0.737000    0.620000
      3          6           0        1.743000   -0.099000    0.024000
      4          6           0        4.117000   -0.788000   -0.273000
      5          1           0        4.832000    0.891000    0.864000
      6         16           0        2.590000   -1.404000   -0.773000
      7          1           0        5.028000   -1.296000   -0.540000
      8          6           0        0.274000   -0.015000    0.001000
      9         16           0       -0.534000    1.248000   -0.916000
     10          6           0       -2.088000    0.618000   -0.468000
     11          6           0       -1.960000   -0.490000    0.318000
     12          6           0       -0.603000   -0.860000    0.589000
     13          1           0       -0.298000   -1.699000    1.192000
     14         16           0       -3.515000   -1.120000    0.772000
     15          6           0       -4.309000    0.150000   -0.123000
     16          6           0       -3.449000    0.996000   -0.726000
     17          1           0       -5.385000    0.190000   -0.148000
     18          1           0       -3.754000    1.840000   -1.323000
     19          8           0        2.235000    1.826000    1.316000
     20          1           0        2.980000    2.303000    1.640000
 ---------------------------------------------------------------------
                    Distance matrix (angstroms):
                    1          2          3          4          5
     1  C    0.000000
     2  C    1.438103   0.000000
     3  C    2.336470   1.352876   0.000000
     4  C    1.349074   2.313466   2.489740   0.000000
     5  H    1.080279   2.226773   3.350764   2.150124   0.000000
     6  S    2.556038   2.554503   1.748040   1.720809   3.601855
     7  H    2.175923   3.355280   3.541487   1.076696   2.606262
     8  C    3.767242   2.543848   1.471579   3.929536   4.726623
     9  S    4.818285   3.548715   2.807621   5.117670   5.664786
    10  C    6.160102   4.837442   3.928449   6.365288   7.052315
    11  C    6.016568   4.754975   3.735174   6.112938   6.952449
    12  C    4.756959   3.600680   2.530230   4.798607   5.716717
    13  H    4.813518   3.846994   2.844276   4.740081   5.756091
    14  S    7.660058   6.415518   5.408189   7.710361   8.586326
    15  C    8.328070   6.997364   6.058904   8.479376   9.223943
    16  C    7.566594   6.225763   5.358954   7.786669   8.432917
    17  H    9.402364   8.064311   7.135929   9.553016  10.290901
    18  H    8.090927   6.758013   5.982570   8.364301   8.910834
    19  O    2.459511   1.349688   2.370011   3.591635   2.796952
    20  H    2.507128   1.902496   3.148210   3.808756   2.454755
                    6          7          8          9         10
     6  S    0.000000
     7  H    2.451489   0.000000
     8  C    2.809315   4.953197   0.000000
     9  S    4.100357   6.127737   1.757533   0.000000
    10  C    5.105408   7.369263   2.489918   1.735661   0.000000
    11  C    4.767408   7.086462   2.305834   2.564542   1.364494
    12  C    3.513720   5.759592   1.352368   2.591033   2.346691
    13  H    3.505538   5.615025   2.140449   3.631001   3.365738
    14  S    6.303864   8.644950   4.021441   4.164508   2.567990
    15  C    7.101663   9.457504   4.587645   4.010621   2.295842
    16  C    6.498594   8.783359   3.925733   2.932035   1.435886
    17  H    8.156720  10.525798   5.664672   5.024081   3.340029
    18  H    7.146494   9.357944   4.628043   3.299169   2.236038
    19  O    3.863010   4.581754   2.993998   3.603230   4.830140
    20  H    4.440329   4.679691   3.921974   4.471505   5.741734
                   11         12         13         14         15
    11  C    0.000000
    12  C    1.432407   0.000000
    13  H    2.233339   1.077291   0.000000
    14  S    1.738114   2.929306   3.295562   0.000000
    15  C    2.474244   3.906594   4.608269   1.744810   0.000000
    16  C    2.348458   3.643306   4.568430   2.593418   1.348675
    17  H    3.522809   4.951080   5.589409   2.461585   1.077033
    18  H    3.367524   4.568867   5.549206   3.634246   2.145722
    19  O    4.894679   3.974590   4.342475   6.483622   6.906782
    20  H    5.826846   4.893573   5.192494   7.392928   7.802121
                   16         17         18         19         20
    16  C    0.000000
    17  H    2.175274   0.000000
    18  H    1.077854   2.600632   0.000000
    19  O    6.096435   7.929955   6.544665   0.000000
    20  H    6.974113   8.811069   7.371601   0.942088   0.000000
 Stoichiometry    C10H6OS3
 Framework group  C1[X(C10H6OS3)]
 Deg. of freedom    54
 Full point group                 C1      NOp   1
 Largest Abelian subgroup         C1      NOp   1
 Largest concise Abelian subgroup C1      NOp   1
                         Standard orientation:                         
 ---------------------------------------------------------------------
 Center     Atomic      Atomic             Coordinates (Angstroms)
 Number     Number       Type             X           Y           Z
 ---------------------------------------------------------------------
      1          6           0        3.996873    0.344217    0.450844
      2          6           0        2.623869    0.737202    0.619844
      3          6           0        1.742878   -0.098808    0.023844
      4          6           0        4.116886   -0.787782   -0.273156
      5          1           0        4.831867    0.891227    0.863844
      6         16           0        2.589893   -1.403799   -0.773156
      7          1           0        5.027892   -1.295771   -0.540156
      8          6           0        0.273877   -0.014825    0.000844
      9         16           0       -0.534137    1.248166   -0.916156
     10          6           0       -2.088130    0.618149   -0.468156
     11          6           0       -1.960117   -0.489850    0.317844
     12          6           0       -0.603113   -0.859835    0.588844
     13          1           0       -0.298104   -1.698831    1.191844
     14         16           0       -3.515110   -1.119867    0.771844
     15          6           0       -4.309125    0.150124   -0.123156
     16          6           0       -3.449134    0.996133   -0.726156
     17          1           0       -5.385125    0.190112   -0.148156
     18          1           0       -3.754144    1.840130   -1.323156
     19          8           0        2.234856    1.826197    1.315844
     20          1           0        2.979851    2.303206    1.639844
 ---------------------------------------------------------------------
 Rotational constants (GHZ):           1.3076275           0.2652234           0.2467781
 Standard basis: Aug-CC-pVDZ (5D, 7F)
 There are   416 symmetry adapted cartesian basis functions of A   symmetry.
 There are   388 symmetry adapted basis functions of A   symmetry.
   388 basis functions,   782 primitive gaussians,   416 cartesian basis functions
    61 alpha electrons       61 beta electrons
       nuclear repulsion energy      1126.9650054810 Hartrees.
 NAtoms=   20 NActive=   20 NUniq=   20 SFac= 1.00D+00 NAtFMM=   60 NAOKFM=F Big=F
 Integral buffers will be    131072 words long.
 Raffenetti 1 integral format.
 Two-electron integral symmetry is turned on.
 One-electron integrals computed using PRISM.
 NBasis=   388 RedAO= T EigKep=  3.37D-06  NBF=   388
 NBsUse=   388 1.00D-06 EigRej= -1.00D+00 NBFU=   388
 ExpMin= 2.97D-02 ExpMax= 1.11D+05 ExpMxC= 1.07D+03 IAcc=3 IRadAn=         5 AccDes= 0.00D+00
 Harris functional with IExCor=  205 and IRadAn=       5 diagonalized for initial guess.
 HarFok:  IExCor=  205 AccDes= 0.00D+00 IRadAn=         5 IDoV= 1 UseB2=F ITyADJ=14
 ICtDFT=  3500011 ScaDFX=  1.000000  1.000000  1.000000  1.000000
 FoFCou: FMM=F IPFlag=           0 FMFlag=      100000 FMFlg1=           0
         NFxFlg=           0 DoJE=T BraDBF=F KetDBF=T FulRan=T
         wScrn=  0.000000 ICntrl=       500 IOpCl=  0 I1Cent=   200000004 NGrid=           0
         NMat0=    1 NMatS0=      1 NMatT0=    0 NMatD0=    1 NMtDS0=    0 NMtDT0=    0
 Petite list used in FoFCou.
 Requested convergence on RMS density matrix=1.00D-08 within 128 cycles.
 Requested convergence on MAX density matrix=1.00D-06.
 Requested convergence on             energy=1.00D-06.
 No special actions if energy rises.
 SCF Done:  E(RHF) =  -1649.64167578     A.U. after   17 cycles
            NFock= 17  Conv=0.62D-08     -V/T= 2.0000
 ExpMin= 2.97D-02 ExpMax= 1.11D+05 ExpMxC= 1.07D+03 IAcc=3 IRadAn=         5 AccDes= 0.00D+00
 HarFok:  IExCor=  205 AccDes= 0.00D+00 IRadAn=         5 IDoV=-2 UseB2=F ITyADJ=14
 ICtDFT= 12500011 ScaDFX=  1.000000  1.000000  1.000000  1.000000
 GSVD:  LWork=        -884 too small for GESVD, short by        3770 words or        3770 for optimal perf.
 Range of M.O.s used for correlation:    27   388
 NBasis=   388 NAE=    61 NBE=    61 NFC=    26 NFV=     0
 NROrb=    362 NOA=    35 NOB=    35 NVA=   327 NVB=   327

 **** Warning!!: The largest alpha MO coefficient is  0.84216767D+02

 Fully direct method using O(ONN) memory.
 JobTyp=1 Pass  1:  I=  27 to  61 NPSUse=  8 ParTrn=T ParDer=T DoDerP=T.
 Spin components of T(2) and E(2):
     alpha-alpha T2 =       0.1135110393D+00 E2=     -0.2737951892D+00
     alpha-beta  T2 =       0.5538892030D+00 E2=     -0.1420533780D+01
     beta-beta   T2 =       0.1135110393D+00 E2=     -0.2737951892D+00
 ANorm=    0.1334507880D+01
 E2 =    -0.1968124158D+01 EUMP2 =    -0.16516097999406D+04
          IDoAtm=11111111111111111111
          Differentiating once with respect to electric field.
                with respect to dipole field.
          Differentiating once with respect to nuclear coordinates.
 Keep R1 ints in memory in canonical form, NReq=2883857471.
          There are     1 degrees of freedom in the 1st order CPHF.  IDoFFX=0 NUNeed=     1.
 LinEq1:  Iter=  0 NonCon=     1 RMS=2.86D-03 Max=6.88D-02 NDo=     1
 AX will form     1 AO Fock derivatives at one time.
 LinEq1:  Iter=  1 NonCon=     1 RMS=6.77D-04 Max=9.70D-03 NDo=     1
 LinEq1:  Iter=  2 NonCon=     1 RMS=3.45D-04 Max=1.17D-02 NDo=     1
 LinEq1:  Iter=  3 NonCon=     1 RMS=8.92D-05 Max=2.01D-03 NDo=     1
 LinEq1:  Iter=  4 NonCon=     1 RMS=3.53D-05 Max=5.37D-04 NDo=     1
 LinEq1:  Iter=  5 NonCon=     1 RMS=1.43D-05 Max=3.83D-04 NDo=     1
 LinEq1:  Iter=  6 NonCon=     1 RMS=6.31D-06 Max=1.82D-04 NDo=     1
 LinEq1:  Iter=  7 NonCon=     1 RMS=2.70D-06 Max=6.84D-05 NDo=     1
 LinEq1:  Iter=  8 NonCon=     1 RMS=1.08D-06 Max=2.73D-05 NDo=     1
 LinEq1:  Iter=  9 NonCon=     1 RMS=4.16D-07 Max=9.62D-06 NDo=     1
 LinEq1:  Iter= 10 NonCon=     1 RMS=1.58D-07 Max=3.17D-06 NDo=     1
 LinEq1:  Iter= 11 NonCon=     1 RMS=6.42D-08 Max=2.56D-06 NDo=     1
 LinEq1:  Iter= 12 NonCon=     1 RMS=2.33D-08 Max=5.36D-07 NDo=     1
 LinEq1:  Iter= 13 NonCon=     1 RMS=9.58D-09 Max=1.75D-07 NDo=     1
 LinEq1:  Iter= 14 NonCon=     1 RMS=3.34D-09 Max=6.20D-08 NDo=     1
 LinEq1:  Iter= 15 NonCon=     1 RMS=1.27D-09 Max=2.78D-08 NDo=     1
 LinEq1:  Iter= 16 NonCon=     1 RMS=4.43D-10 Max=8.48D-09 NDo=     1
 LinEq1:  Iter= 17 NonCon=     1 RMS=1.99D-10 Max=7.04D-09 NDo=     1
 LinEq1:  Iter= 18 NonCon=     1 RMS=7.73D-11 Max=1.88D-09 NDo=     1
 LinEq1:  Iter= 19 NonCon=     0 RMS=2.85D-11 Max=4.64D-10 NDo=     1
 Linear equations converged to 1.000D-10 1.000D-09 after    19 iterations.
 End of Minotr F.D. properties file   721 does not exist.
 End of Minotr F.D. properties file   722 does not exist.
 End of Minotr F.D. properties file   788 does not exist.

 **********************************************************************

            Population analysis using the SCF Density.

 **********************************************************************

 Orbital symmetries:
       Occupied  (A) (A) (A) (A) (A) (A) (A) (A) (A) (A) (A) (A)
                 (A) (A) (A) (A) (A) (A) (A) (A) (A) (A) (A) (A)
                 (A) (A) (A) (A) (A) (A) (A) (A) (A) (A) (A) (A)
                 (A) (A) (A) (A) (A) (A) (A) (A) (A) (A) (A) (A)
                 (A) (A) (A) (A) (A) (A) (A) (A) (A) (A) (A) (A)
                 (A)
       Virtual   (A) (A) (A) (A) (A) (A) (A) (A) (A) (A) (A) (A)
                 (A) (A) (A) (A) (A) (A) (A) (A) (A) (A) (A) (A)
                 (A) (A) (A) (A) (A) (A) (A) (A) (A) (A) (A) (A)
                 (A) (A) (A) (A) (A) (A) (A) (A) (A) (A) (A) (A)
                 (A) (A) (A) (A) (A) (A) (A) (A) (A) (A) (A) (A)
                 (A) (A) (A) (A) (A) (A) (A) (A) (A) (A) (A) (A)
                 (A) (A) (A) (A) (A) (A) (A) (A) (A) (A) (A) (A)
                 (A) (A) (A) (A) (A) (A) (A) (A) (A) (A) (A) (A)
                 (A) (A) (A) (A) (A) (A) (A) (A) (A) (A) (A) (A)
                 (A) (A) (A) (A) (A) (A) (A) (A) (A) (A) (A) (A)
                 (A) (A) (A) (A) (A) (A) (A) (A) (A) (A) (A) (A)
                 (A) (A) (A) (A) (A) (A) (A) (A) (A) (A) (A) (A)
                 (A) (A) (A) (A) (A) (A) (A) (A) (A) (A) (A) (A)
                 (A) (A) (A) (A) (A) (A) (A) (A) (A) (A) (A) (A)
                 (A) (A) (A) (A) (A) (A) (A) (A) (A) (A) (A) (A)
                 (A) (A) (A) (A) (A) (A) (A) (A) (A) (A) (A) (A)
                 (A) (A) (A) (A) (A) (A) (A) (A) (A) (A) (A) (A)
                 (A) (A) (A) (A) (A) (A) (A) (A) (A) (A) (A) (A)
                 (A) (A) (A) (A) (A) (A) (A) (A) (A) (A) (A) (A)
                 (A) (A) (A) (A) (A) (A) (A) (A) (A) (A) (A) (A)
                 (A) (A) (A) (A) (A) (A) (A) (A) (A) (A) (A) (A)
                 (A) (A) (A) (A) (A) (A) (A) (A) (A) (A) (A) (A)
                 (A) (A) (A) (A) (A) (A) (A) (A) (A) (A) (A) (A)
                 (A) (A) (A) (A) (A) (A) (A) (A) (A) (A) (A) (A)
                 (A) (A) (A) (A) (A) (A) (A) (A) (A) (A) (A) (A)
                 (A) (A) (A) (A) (A) (A) (A) (A) (A) (A) (A) (A)
                 (A) (A) (A) (A) (A) (A) (A) (A) (A) (A) (A) (A)
                 (A) (A) (A)
 The electronic state is 1-A.
 Alpha  occ. eigenvalues --  -91.99027 -91.98635 -91.98375 -20.60935 -11.31766
 Alpha  occ. eigenvalues --  -11.28459 -11.28366 -11.27412 -11.26912 -11.26833
 Alpha  occ. eigenvalues --  -11.26680 -11.25506 -11.25416 -11.25320  -8.99216
 Alpha  occ. eigenvalues --   -8.98817  -8.98542  -6.67382  -6.67289  -6.67091
 Alpha  occ. eigenvalues --   -6.66984  -6.66906  -6.66705  -6.66699  -6.66623
 Alpha  occ. eigenvalues --   -6.66415  -1.42952  -1.21269  -1.18440  -1.12588
 Alpha  occ. eigenvalues --   -1.02847  -1.01995  -0.98655  -0.95689  -0.94189
 Alpha  occ. eigenvalues --   -0.82557  -0.81170  -0.77047  -0.75071  -0.71891
 Alpha  occ. eigenvalues --   -0.69811  -0.66801  -0.66486  -0.62009  -0.60999
 Alpha  occ. eigenvalues --   -0.58538  -0.56385  -0.56052  -0.53729  -0.53187
 Alpha  occ. eigenvalues --   -0.52660  -0.50761  -0.49349  -0.48544  -0.45988
 Alpha  occ. eigenvalues --   -0.45748  -0.38383  -0.35035  -0.32920  -0.31731
 Alpha  occ. eigenvalues --   -0.29491
 Alpha virt. eigenvalues --    0.02785   0.03710   0.03992   0.04936   0.05099
 Alpha virt. eigenvalues --    0.06245   0.07957   0.08469   0.08704   0.08925
 Alpha virt. eigenvalues --    0.10000   0.10323   0.10467   0.10826   0.11326
 Alpha virt. eigenvalues --    0.12334   0.12585   0.12765   0.13025   0.13407
 Alpha virt. eigenvalues --    0.13934   0.14191   0.14441   0.14651   0.14843
 Alpha virt. eigenvalues --    0.15306   0.15777   0.16302   0.16678   0.16954
 Alpha virt. eigenvalues --    0.17257   0.18149   0.18464   0.18617   0.19327
 Alpha virt. eigenvalues --    0.19376   0.19906   0.20583   0.21314   0.21703
 Alpha virt. eigenvalues --    0.21784   0.22343   0.22979   0.23051   0.23437
 Alpha virt. eigenvalues --    0.23852   0.24758   0.24799   0.25363   0.25775
 Alpha virt. eigenvalues --    0.26231   0.27298   0.27310   0.27776   0.28128
 Alpha virt. eigenvalues --    0.29033   0.29621   0.30706   0.31106   0.31630
 Alpha virt. eigenvalues --    0.31998   0.32112   0.32798   0.32852   0.33335
 Alpha virt. eigenvalues --    0.33936   0.34870   0.35071   0.35879   0.36092
 Alpha virt. eigenvalues --    0.36288   0.37364   0.37670   0.38826   0.39157
 Alpha virt. eigenvalues --    0.40312   0.40722   0.40850   0.41691   0.42474
 Alpha virt. eigenvalues --    0.43120   0.43920   0.44900   0.45386   0.45709
 Alpha virt. eigenvalues --    0.46113   0.46658   0.46795   0.47601   0.48761
 Alpha virt. eigenvalues --    0.49722   0.49908   0.50883   0.51520   0.52060
 Alpha virt. eigenvalues --    0.53197   0.53742   0.54190   0.54952   0.55350
 Alpha virt. eigenvalues --    0.55674   0.57255   0.58678   0.58893   0.59540
 Alpha virt. eigenvalues --    0.60113   0.60856   0.60978   0.61785   0.62329
 Alpha virt. eigenvalues --    0.62935   0.63572   0.64644   0.65280   0.65604
 Alpha virt. eigenvalues --    0.66438   0.67077   0.67797   0.68203   0.68346
 Alpha virt. eigenvalues --    0.69189   0.69708   0.70012   0.70554   0.71079
 Alpha virt. eigenvalues --    0.71695   0.72230   0.72992   0.73309   0.74134
 Alpha virt. eigenvalues --    0.74268   0.74924   0.75524   0.76088   0.76650
 Alpha virt. eigenvalues --    0.78206   0.78359   0.79177   0.79283   0.79907
 Alpha virt. eigenvalues --    0.80647   0.81724   0.83274   0.83850   0.84600
 Alpha virt. eigenvalues --    0.84946   0.85467   0.86876   0.87151   0.87533
 Alpha virt. eigenvalues --    0.87958   0.89061   0.89530   0.90460   0.90927
 Alpha virt. eigenvalues --    0.91246   0.92521   0.93312   0.94312   0.95402
 Alpha virt. eigenvalues --    0.95887   0.95898   0.96751   0.97819   0.98559
 Alpha virt. eigenvalues --    0.99705   1.00240   1.00442   1.01205   1.02461
 Alpha virt. eigenvalues --    1.03826   1.05091   1.05896   1.06673   1.07905
 Alpha virt. eigenvalues --    1.09383   1.10164   1.10711   1.11624   1.12214
 Alpha virt. eigenvalues --    1.14106   1.14674   1.16869   1.18084   1.18457
 Alpha virt. eigenvalues --    1.18816   1.22038   1.22736   1.23235   1.24059
 Alpha virt. eigenvalues --    1.24176   1.25398   1.25582   1.26326   1.27362
 Alpha virt. eigenvalues --    1.28464   1.29649   1.30122   1.31536   1.32618
 Alpha virt. eigenvalues --    1.33721   1.34481   1.35496   1.36196   1.36964
 Alpha virt. eigenvalues --    1.38340   1.39949   1.40140   1.41132   1.42467
 Alpha virt. eigenvalues --    1.44402   1.44792   1.45180   1.46974   1.48542
 Alpha virt. eigenvalues --    1.50161   1.52942   1.55363   1.55838   1.56272
 Alpha virt. eigenvalues --    1.58169   1.59014   1.59271   1.60430   1.61116
 Alpha virt. eigenvalues --    1.61940   1.63928   1.64869   1.66024   1.67191
 Alpha virt. eigenvalues --    1.68014   1.68811   1.69858   1.71200   1.71387
 Alpha virt. eigenvalues --    1.73860   1.74686   1.75345   1.76813   1.77500
 Alpha virt. eigenvalues --    1.78121   1.80346   1.81149   1.82863   1.83356
 Alpha virt. eigenvalues --    1.85399   1.87717   1.89264   1.89840   1.90858
 Alpha virt. eigenvalues --    1.91156   1.92079   1.94656   1.95496   1.97653
 Alpha virt. eigenvalues --    1.98091   2.00614   2.03377   2.04763   2.04975
 Alpha virt. eigenvalues --    2.05963   2.06273   2.07877   2.08626   2.09781
 Alpha virt. eigenvalues --    2.10776   2.12616   2.13460   2.14056   2.15391
 Alpha virt. eigenvalues --    2.16104   2.19931   2.21030   2.21697   2.22741
 Alpha virt. eigenvalues --    2.24443   2.25415   2.26654   2.28785   2.30309
 Alpha virt. eigenvalues --    2.32197   2.33730   2.34809   2.35760   2.37130
 Alpha virt. eigenvalues --    2.38366   2.41221   2.44278   2.44966   2.47815
 Alpha virt. eigenvalues --    2.48385   2.48857   2.49888   2.51477   2.53123
 Alpha virt. eigenvalues --    2.56539   2.57482   2.60485   2.61564   2.65811
 Alpha virt. eigenvalues --    2.75018   2.81784   2.84161   2.85965   2.88068
 Alpha virt. eigenvalues --    2.91673   2.94149   2.97523   3.00422   3.03556
 Alpha virt. eigenvalues --    3.11142   3.19362   3.24470   3.26195   3.34515
 Alpha virt. eigenvalues --    3.42903   3.52388   3.55341   3.66219   3.75888
 Alpha virt. eigenvalues --    3.77719   3.80471   3.88185   3.89581   4.24171
 Alpha virt. eigenvalues --    4.27185   4.48860
          Condensed to atoms (all electrons):
               1          2          3          4          5          6
     1  C    7.538283  -1.878271  -0.031860   0.099430  -0.164266  -0.474500
     2  C   -1.878271  10.433283  -2.299841   0.475967   0.188373  -0.376072
     3  C   -0.031860  -2.299841  10.791558  -1.173897  -0.042426   0.127904
     4  C    0.099430   0.475967  -1.173897   6.367757  -0.013576   0.376524
     5  H   -0.164266   0.188373  -0.042426  -0.013576   1.654570  -0.017291
     6  S   -0.474500  -0.376072   0.127904   0.376524  -0.017291  16.311854
     7  H    0.023238   0.027422   0.057315   0.195584  -0.066961  -0.161796
     8  C    0.405611  -0.081434  -1.453732   0.144802   0.007733  -0.631528
     9  S    0.006598   0.327654  -0.533562  -0.000450   0.002929  -0.091287
    10  C   -0.006246   0.067754  -0.334690   0.014303   0.000257   0.009212
    11  C   -0.028816   0.088081   0.332160  -0.001971   0.000058   0.052734
    12  C   -0.071061  -0.795879   0.200944  -0.121783  -0.009835   0.472011
    13  H   -0.014944   0.114928  -0.032357   0.011765  -0.000934   0.008589
    14  S    0.002150  -0.014621  -0.053542  -0.002539   0.000130  -0.000180
    15  C   -0.002205   0.006751   0.027713   0.000428  -0.000122  -0.002647
    16  C    0.003045   0.007292  -0.342981  -0.002552  -0.000038   0.003108
    17  H   -0.000100   0.000593  -0.000740   0.000006  -0.000006  -0.000060
    18  H    0.000531  -0.000233  -0.008769  -0.000278   0.000041   0.000089
    19  O    0.158668  -0.821876   0.348103  -0.106517  -0.072273   0.002304
    20  H   -0.122751   0.015695  -0.067024  -0.011552  -0.012593   0.017904
               7          8          9         10         11         12
     1  C    0.023238   0.405611   0.006598  -0.006246  -0.028816  -0.071061
     2  C    0.027422  -0.081434   0.327654   0.067754   0.088081  -0.795879
     3  C    0.057315  -1.453732  -0.533562  -0.334690   0.332160   0.200944
     4  C    0.195584   0.144802  -0.000450   0.014303  -0.001971  -0.121783
     5  H   -0.066961   0.007733   0.002929   0.000257   0.000058  -0.009835
     6  S   -0.161796  -0.631528  -0.091287   0.009212   0.052734   0.472011
     7  H    1.255497   0.000440  -0.001136   0.000068   0.000620   0.004197
     8  C    0.000440  12.681338   0.330986  -0.089357  -0.812737  -4.544560
     9  S   -0.001136   0.330986  16.555519   0.190764  -0.447090  -0.637242
    10  C    0.000068  -0.089357   0.190764  10.841510  -0.590974  -1.567584
    11  C    0.000620  -0.812737  -0.447090  -0.590974  12.347508  -3.095313
    12  C    0.004197  -4.544560  -0.637242  -1.567584  -3.095313  16.978974
    13  H    0.001346   0.303411   0.033383  -0.097154   0.722224  -1.232929
    14  S   -0.000162  -0.275648   0.101078   0.012452  -0.303782  -0.001969
    15  C    0.000038   0.062615  -0.087558  -0.095855  -0.990347  -0.141282
    16  C   -0.000135  -0.538932  -0.172399  -2.234540  -1.068724   0.382176
    17  H    0.000003   0.006152   0.008967   0.083936  -0.055562   0.024391
    18  H   -0.000019   0.107435   0.009275   0.537245   0.076586  -0.065788
    19  O   -0.001743  -0.022266   0.000562   0.013558  -0.021040   0.090855
    20  H    0.001155   0.028961  -0.003943   0.002509   0.001375  -0.008517
              13         14         15         16         17         18
     1  C   -0.014944   0.002150  -0.002205   0.003045  -0.000100   0.000531
     2  C    0.114928  -0.014621   0.006751   0.007292   0.000593  -0.000233
     3  C   -0.032357  -0.053542   0.027713  -0.342981  -0.000740  -0.008769
     4  C    0.011765  -0.002539   0.000428  -0.002552   0.000006  -0.000278
     5  H   -0.000934   0.000130  -0.000122  -0.000038  -0.000006   0.000041
     6  S    0.008589  -0.000180  -0.002647   0.003108  -0.000060   0.000089
     7  H    0.001346  -0.000162   0.000038  -0.000135   0.000003  -0.000019
     8  C    0.303411  -0.275648   0.062615  -0.538932   0.006152   0.107435
     9  S    0.033383   0.101078  -0.087558  -0.172399   0.008967   0.009275
    10  C   -0.097154   0.012452  -0.095855  -2.234540   0.083936   0.537245
    11  C    0.722224  -0.303782  -0.990347  -1.068724  -0.055562   0.076586
    12  C   -1.232929  -0.001969  -0.141282   0.382176   0.024391  -0.065788
    13  H    1.708738  -0.040562   0.018294  -0.041978   0.001629  -0.001458
    14  S   -0.040562  15.956196   0.190314  -0.036285  -0.157624  -0.005796
    15  C    0.018294   0.190314   6.917312   0.115166   0.197634  -0.126824
    16  C   -0.041978  -0.036285   0.115166   9.893097   0.043525  -0.563855
    17  H    0.001629  -0.157624   0.197634   0.043525   1.292769  -0.069062
    18  H   -0.001458  -0.005796  -0.126824  -0.563855  -0.069062   1.432110
    19  O   -0.003057   0.001079  -0.000139  -0.002271  -0.000025   0.000238
    20  H    0.001318  -0.000384   0.000285   0.001031   0.000014  -0.000033
              19         20
     1  C    0.158668  -0.122751
     2  C   -0.821876   0.015695
     3  C    0.348103  -0.067024
     4  C   -0.106517  -0.011552
     5  H   -0.072273  -0.012593
     6  S    0.002304   0.017904
     7  H   -0.001743   0.001155
     8  C   -0.022266   0.028961
     9  S    0.000562  -0.003943
    10  C    0.013558   0.002509
    11  C   -0.021040   0.001375
    12  C    0.090855  -0.008517
    13  H   -0.003057   0.001318
    14  S    0.001079  -0.000384
    15  C   -0.000139   0.000285
    16  C   -0.002271   0.001031
    17  H   -0.000025   0.000014
    18  H    0.000238  -0.000033
    19  O    9.026724   0.364811
    20  H    0.364811   0.624553
 Mulliken charges:
               1
     1  C    0.557466
     2  C    0.514433
     3  C    0.489724
     4  C   -0.251451
     5  H   -0.453770
     6  S    0.373129
     7  H   -0.334971
     8  C    0.370708
     9  S    0.406953
    10  C   -0.757168
    11  C   -0.204988
    12  C    0.140195
    13  H   -0.460250
    14  S    0.629695
    15  C   -0.089571
    16  C    0.556248
    17  H   -0.376439
    18  H   -0.321436
    19  O   -0.955697
    20  H    0.167188
 Sum of Mulliken charges =  -0.00000
 Mulliken charges with hydrogens summed into heavy atoms:
               1
     1  C    0.103697
     2  C    0.514433
     3  C    0.489724
     4  C   -0.586422
     6  S    0.373129
     8  C    0.370708
     9  S    0.406953
    10  C   -0.757168
    11  C   -0.204988
    12  C   -0.320055
    14  S    0.629695
    15  C   -0.466009
    16  C    0.234812
    19  O   -0.788510
 Electronic spatial extent (au):  <R**2>=           4301.7422
 Charge=             -0.0000 electrons
 Dipole moment (field-independent basis, Debye):
    X=              2.2590    Y=              0.8897    Z=              0.6644  Tot=              2.5171
 Quadrupole moment (field-independent basis, Debye-Ang):
   XX=            -76.4897   YY=           -100.4191   ZZ=           -105.7089
   XY=              0.7784   XZ=              6.5857   YZ=             -0.1192
 Traceless Quadrupole moment (field-independent basis, Debye-Ang):
   XX=             17.7162   YY=             -6.2132   ZZ=            -11.5030
   XY=              0.7784   XZ=              6.5857   YZ=             -0.1192
 Octapole moment (field-independent basis, Debye-Ang**2):
  XXX=             51.5637  YYY=             17.3612  ZZZ=              9.9364  XYY=             20.1649
  XXY=             32.4951  XXZ=              6.2808  XZZ=             10.8738  YZZ=              8.0085
  YYZ=              6.4235  XYZ=             25.9447
 Hexadecapole moment (field-independent basis, Debye-Ang**3):
 XXXX=          -3969.5138 YYYY=           -760.9012 ZZZZ=           -443.9295 XXXY=             -5.4961
 XXXZ=             98.7070 YYYX=             41.6223 YYYZ=             20.7178 ZZZX=             32.5889
 ZZZY=             16.3127 XXYY=           -860.2380 XXZZ=           -889.6668 YYZZ=           -178.6816
 XXYZ=             53.7746 YYXZ=             38.5975 ZZXY=             20.7927
 N-N= 1.126965005481D+03 E-N=-6.161392051780D+03  KE= 1.649564211934D+03
 Calling FoFJK, ICntrl=  10002127 FMM=F ISym2X=0 I1Cent= 0 IOpClX= 0 NMat=1 NMatS=1 NMatT=0.
 ***** Axes restored to original set *****
 -------------------------------------------------------------------
 Center     Atomic                   Forces (Hartrees/Bohr)
 Number     Number              X              Y              Z
 -------------------------------------------------------------------
      1        6          -0.013876900    0.026559911    0.016051453
      2        6           0.040072875    0.012162780    0.009187026
      3        6          -0.031350069   -0.022362401   -0.016455341
      4        6           0.001925484   -0.024461239   -0.015556471
      5        1           0.007535753    0.004761767    0.003637831
      6       16          -0.005515600   -0.004976069   -0.003656098
      7        1           0.007730032   -0.006042930   -0.003254468
      8        6           0.030026045    0.019318120   -0.015066689
      9       16           0.003731954    0.007558036   -0.004621382
     10        6          -0.008035345    0.034038423   -0.023915453
     11        6           0.008976038   -0.034111102    0.023872239
     12        6          -0.030284972   -0.018291917    0.012640630
     13        1           0.003683041   -0.008205861    0.005979832
     14       16          -0.002642308   -0.006156860    0.004463092
     15        6          -0.015060553   -0.020208178    0.014327332
     16        6           0.028342175    0.017440555   -0.012364519
     17        1          -0.010275227   -0.000691072    0.000480258
     18        1          -0.003037597    0.007777287   -0.005444942
     19        8          -0.034310605    0.004602565    0.001800713
     20        1           0.022365780    0.011288185    0.007894957
 -------------------------------------------------------------------
 Cartesian Forces:  Max     0.040072875 RMS     0.016760114

 GradGradGradGradGradGradGradGradGradGradGradGradGradGradGradGradGradGrad
 Berny optimization.
 FormGI is forming the generalized inverse of G from B-inverse, IUseBI=4.
 Internal  Forces:  Max     0.042919482 RMS     0.009837339
 Search for a local minimum.
 Step number   1 out of a maximum of  116
 All quantities printed in internal units (Hartrees-Bohrs-Radians)
 Mixed Optimization -- RFO/linear search
 Second derivative matrix not updated -- first step.
 ITU=  0
     Eigenvalues ---    0.01456   0.01582   0.01629   0.01698   0.01752
     Eigenvalues ---    0.01764   0.01982   0.02011   0.02062   0.02134
     Eigenvalues ---    0.02214   0.02283   0.02329   0.02357   0.02379
     Eigenvalues ---    0.02440   0.15999   0.15999   0.16000   0.16000
     Eigenvalues ---    0.16000   0.16000   0.22526   0.22566   0.23646
     Eigenvalues ---    0.24762   0.24783   0.24976   0.24996   0.24998
     Eigenvalues ---    0.24999   0.29257   0.30050   0.30317   0.30961
     Eigenvalues ---    0.31246   0.32681   0.35552   0.35961   0.36255
     Eigenvalues ---    0.36324   0.36355   0.36397   0.38838   0.39063
     Eigenvalues ---    0.39503   0.45821   0.50690   0.52492   0.53721
     Eigenvalues ---    0.54275   0.55088   0.595121000.000001000.00000
     Eigenvalues --- 1000.000001000.000001000.000001000.000001000.00000
     Eigenvalues --- 1000.000001000.000001000.000001000.000001000.00000
     Eigenvalues --- 1000.000001000.000001000.000001000.000001000.00000
     Eigenvalues --- 1000.000001000.000001000.000001000.000001000.00000
     Eigenvalues --- 1000.000001000.000001000.000001000.000001000.00000
     Eigenvalues --- 1000.000001000.000001000.000001000.000001000.00000
     Eigenvalues --- 1000.000001000.000001000.000001000.000001000.00000
     Eigenvalues --- 1000.000001000.000001000.000001000.000001000.00000
     Eigenvalues --- 1000.000001000.000001000.000001000.000001000.00000
     Eigenvalues --- 1000.000001000.000001000.000001000.000001000.00000
     Eigenvalues --- 1000.00000
 RFO step:  Lambda=-1.93014925D-02 EMin= 1.45610171D-02
 Linear search not attempted -- first point.
 Iteration  1 RMS(Cart)=  0.02528892 RMS(Int)=  0.00012407
 Iteration  2 RMS(Cart)=  0.00024434 RMS(Int)=  0.00004103
 Iteration  3 RMS(Cart)=  0.00000003 RMS(Int)=  0.00004103
 Iteration  1 RMS(Cart)=  0.00000069 RMS(Int)=  0.00000030
 Variable       Old X    -DE/DX   Delta X   Delta X   Delta X     New X
                                 (Linear)    (Quad)   (Total)
    R1        2.71762  -0.00269   0.00000  -0.00410  -0.00404   2.71358
    R2        2.54938   0.03922   0.00000   0.06940   0.06943   2.61881
    R3        2.04143   0.00963   0.00000   0.02541   0.02541   2.06684
    R4        2.55656   0.04010   0.00000   0.07174   0.07175   2.62832
    R5        2.55054   0.02126   0.00000   0.03729   0.03729   2.58783
    R6        3.30332   0.00313   0.00000   0.00726   0.00722   3.31053
    R7        2.78088  -0.00551   0.00000  -0.01469  -0.01469   2.76619
    R8        3.25186   0.00755   0.00000   0.01948   0.01944   3.27130
    R9        2.03466   0.01020   0.00000   0.02661   0.02661   2.06127
   R10        3.32126   0.00656   0.00000   0.01791   0.01785   3.33911
   R11        2.55560   0.03974   0.00000   0.07073   0.07074   2.62635
   R12        3.27992   0.00569   0.00000   0.01511   0.01507   3.29499
   R13        2.57852   0.04292   0.00000   0.08185   0.08192   2.66044
   R14        2.71343  -0.00245   0.00000  -0.00342  -0.00336   2.71007
   R15        2.70686  -0.00338   0.00000  -0.00552  -0.00545   2.70140
   R16        3.28456   0.00519   0.00000   0.01387   0.01384   3.29840
   R17        2.03578   0.01078   0.00000   0.02818   0.02818   2.06397
   R18        3.29721   0.00643   0.00000   0.01678   0.01673   3.31395
   R19        2.54863   0.03902   0.00000   0.06837   0.06838   2.61701
   R20        2.03530   0.01023   0.00000   0.02672   0.02672   2.06201
   R21        2.03685   0.00997   0.00000   0.02610   0.02610   2.06295
   R22        1.78029   0.02612   0.00000   0.04251   0.04251   1.82280
    A1        1.95767  -0.00191   0.00000  -0.00190  -0.00181   1.95586
    A2        2.15875   0.00111   0.00000   0.00181   0.00176   2.16051
    A3        2.16674   0.00080   0.00000   0.00008   0.00003   2.16678
    A4        1.98350  -0.00403   0.00000  -0.01008  -0.01000   1.97350
    A5        2.16068   0.00728   0.00000   0.02459   0.02455   2.18523
    A6        2.13895  -0.00325   0.00000  -0.01452  -0.01456   2.12439
    A7        1.92479   0.00269   0.00000   0.00900   0.00897   1.93376
    A8        2.24168  -0.00155   0.00000  -0.00527  -0.00526   2.23641
    A9        2.11669  -0.00114   0.00000  -0.00377  -0.00376   2.11293
   A10        1.95775   0.00037   0.00000   0.00139   0.00139   1.95915
   A11        2.21961   0.00153   0.00000   0.00886   0.00886   2.22847
   A12        2.10582  -0.00190   0.00000  -0.01025  -0.01025   2.09557
   A13        1.60105   0.00288   0.00000   0.00158   0.00144   1.60249
   A14        2.10378  -0.00360   0.00000  -0.01294  -0.01293   2.09085
   A15        2.22043   0.00008   0.00000   0.00071   0.00072   2.22115
   A16        1.95815   0.00354   0.00000   0.01233   0.01231   1.97045
   A17        1.58690   0.00157   0.00000  -0.00228  -0.00244   1.58446
   A18        1.93846   0.00184   0.00000   0.00504   0.00500   1.94346
   A19        2.35563   0.00139   0.00000   0.00085   0.00079   2.35642
   A20        1.98907  -0.00324   0.00000  -0.00588  -0.00579   1.98329
   A21        1.99062  -0.00280   0.00000  -0.00418  -0.00407   1.98655
   A22        1.93999   0.00136   0.00000   0.00326   0.00321   1.94321
   A23        2.35252   0.00144   0.00000   0.00090   0.00083   2.35335
   A24        1.95055  -0.00415   0.00000  -0.01092  -0.01082   1.93974
   A25        2.14885   0.00141   0.00000   0.00172   0.00167   2.15052
   A26        2.18374   0.00275   0.00000   0.00919   0.00914   2.19288
   A27        1.58011   0.00260   0.00000   0.00130   0.00117   1.58128
   A28        1.97768   0.00225   0.00000   0.00791   0.00789   1.98557
   A29        2.08698  -0.00244   0.00000  -0.01127  -0.01127   2.07571
   A30        2.21852   0.00019   0.00000   0.00337   0.00337   2.22190
   A31        1.93793  -0.00298   0.00000  -0.00658  -0.00650   1.93143
   A32        2.18202   0.00172   0.00000   0.00458   0.00454   2.18656
   A33        2.16324   0.00126   0.00000   0.00200   0.00196   2.16519
   A34        1.93688  -0.00499   0.00000  -0.02782  -0.02782   1.90906
    D1       -0.00090   0.00005   0.00000  -0.00110  -0.00110  -0.00201
    D2        3.12931  -0.00001   0.00000  -0.00190  -0.00190   3.12741
    D3       -3.13511   0.00009   0.00000   0.00112   0.00112  -3.13399
    D4       -0.00490   0.00003   0.00000   0.00032   0.00032  -0.00458
    D5        0.00396   0.00011   0.00000   0.00251   0.00251   0.00647
    D6       -3.13682   0.00005   0.00000   0.00225   0.00225  -3.13456
    D7        3.13813   0.00007   0.00000   0.00029   0.00029   3.13841
    D8       -0.00265   0.00001   0.00000   0.00003   0.00003  -0.00262
    D9       -0.00250  -0.00018   0.00000  -0.00079  -0.00078  -0.00328
   D10        3.13141  -0.00000   0.00000  -0.00662  -0.00662   3.12479
   D11       -3.13287  -0.00020   0.00000  -0.00030  -0.00030  -3.13317
   D12        0.00103  -0.00002   0.00000  -0.00612  -0.00614  -0.00510
   D13        0.03964  -0.00006   0.00000  -0.00169  -0.00169   0.03795
   D14       -3.11432  -0.00012   0.00000  -0.00249  -0.00249  -3.11682
   D15        0.00397   0.00022   0.00000   0.00188   0.00188   0.00585
   D16       -3.13057   0.00006   0.00000   0.00723   0.00725  -3.12332
   D17        1.22178  -0.00098   0.00000   0.00000  -0.00000   1.22178
   D18       -1.96719  -0.00038   0.00000   0.00316   0.00315  -1.96405
   D19       -1.92825  -0.00077   0.00000  -0.00635  -0.00633  -1.93458
   D20        1.16596  -0.00017   0.00000  -0.00318  -0.00318   1.16278
   D21       -0.00458  -0.00019   0.00000  -0.00253  -0.00252  -0.00710
   D22        3.13626  -0.00013   0.00000  -0.00228  -0.00227   3.13399
   D23        3.11295   0.00038   0.00000   0.00371   0.00371   3.11666
   D24        0.01210  -0.00008   0.00000   0.00117   0.00117   0.01327
   D25       -3.10841  -0.00025   0.00000  -0.00233  -0.00234  -3.11075
   D26        0.04228  -0.00025   0.00000  -0.00121  -0.00121   0.04107
   D27       -0.01089   0.00015   0.00000   0.00005   0.00007  -0.01082
   D28        3.13980   0.00015   0.00000   0.00118   0.00119   3.14099
   D29       -0.00997  -0.00000   0.00000  -0.00206  -0.00204  -0.01202
   D30        3.12418  -0.00004   0.00000  -0.00137  -0.00135   3.12283
   D31        0.00586   0.00006   0.00000   0.00250   0.00251   0.00837
   D32        3.13857  -0.00003   0.00000   0.00037   0.00038   3.13896
   D33       -3.12997   0.00007   0.00000   0.00195   0.00196  -3.12801
   D34        0.00274  -0.00002   0.00000  -0.00018  -0.00017   0.00257
   D35       -3.13692   0.00000   0.00000  -0.00150  -0.00150  -3.13842
   D36        0.00748   0.00001   0.00000  -0.00084  -0.00084   0.00664
   D37       -0.00293  -0.00002   0.00000  -0.00076  -0.00076  -0.00369
   D38        3.14148  -0.00000   0.00000  -0.00011  -0.00011   3.14137
   D39        0.00332  -0.00017   0.00000  -0.00174  -0.00173   0.00159
   D40        3.13560  -0.00017   0.00000  -0.00294  -0.00294   3.13266
   D41       -3.12660  -0.00004   0.00000   0.00105   0.00106  -3.12554
   D42        0.00568  -0.00005   0.00000  -0.00015  -0.00015   0.00553
   D43       -0.00145   0.00006   0.00000   0.00083   0.00083  -0.00062
   D44        3.12871  -0.00009   0.00000  -0.00194  -0.00194   3.12677
   D45       -0.00022  -0.00007   0.00000  -0.00130  -0.00130  -0.00153
   D46        3.13966  -0.00001   0.00000  -0.00062  -0.00062   3.13904
   D47        0.00175   0.00008   0.00000   0.00143   0.00144   0.00319
   D48        3.14057   0.00007   0.00000   0.00079   0.00080   3.14137
   D49       -3.13798   0.00003   0.00000   0.00070   0.00070  -3.13728
   D50        0.00084   0.00001   0.00000   0.00006   0.00006   0.00090
         Item               Value     Threshold  Converged?
 Maximum Force            0.042916     0.000450     NO 
 RMS     Force            0.009883     0.000300     NO 
 Maximum Displacement     0.090167     0.001800     NO 
 RMS     Displacement     0.025221     0.001200     NO 
 Predicted change in Energy=-1.001475D-02
 GradGradGradGradGradGradGradGradGradGradGradGradGradGradGradGradGradGrad

                          Input orientation:                          
 ---------------------------------------------------------------------
 Center     Atomic      Atomic             Coordinates (Angstroms)
 Number     Number       Type             X           Y           Z
 ---------------------------------------------------------------------
      1          6           0        4.009834    0.362433    0.457380
      2          6           0        2.640562    0.760171    0.627350
      3          6           0        1.741415   -0.104560    0.012351
      4          6           0        4.125257   -0.802621   -0.284111
      5          1           0        4.858962    0.911737    0.873886
      6         16           0        2.586028   -1.415169   -0.786362
      7          1           0        5.039514   -1.330314   -0.558828
      8          6           0        0.279859   -0.025597   -0.006190
      9         16           0       -0.518804    1.252297   -0.928873
     10          6           0       -2.084787    0.630240   -0.480542
     11          6           0       -1.968575   -0.516545    0.327793
     12          6           0       -0.617646   -0.896041    0.600742
     13          1           0       -0.306420   -1.746714    1.210990
     14         16           0       -3.536348   -1.136446    0.779855
     15          6           0       -4.323540    0.147888   -0.118007
     16          6           0       -3.441514    1.017612   -0.737240
     17          1           0       -5.413847    0.186533   -0.137761
     18          1           0       -3.749385    1.875076   -1.338658
     19          8           0        2.218772    1.859599    1.326400
     20          1           0        2.985662    2.342423    1.656823
 ---------------------------------------------------------------------
                    Distance matrix (angstroms):
                    1          2          3          4          5
     1  C    0.000000
     2  C    1.435963   0.000000
     3  C    2.358358   1.390845   0.000000
     4  C    1.385815   2.340384   2.501575   0.000000
     5  H    1.093724   2.237197   3.390310   2.195064   0.000000
     6  S    2.594993   2.594930   1.751859   1.731097   3.652006
     7  H    2.226726   3.395896   3.564572   1.090777   2.666844
     8  C    3.778647   2.567435   1.463805   3.932949   4.756187
     9  S    4.818933   3.556067   2.799206   5.119151   5.682102
    10  C    6.172181   4.855228   3.927174   6.376231   7.080210
    11  C    6.044069   4.792065   3.746100   6.131154   6.996676
    12  C    4.797694   3.655088   2.556915   4.825641   5.773725
    13  H    4.862764   3.912775   2.885660   4.771414   5.819121
    14  S    7.700356   6.463330   5.432185   7.742328   8.642056
    15  C    8.355968   7.030588   6.071606   8.503718   9.267451
    16  C    7.574890   6.238593   5.355737   7.795807   8.456054
    17  H    9.444093   8.110979   7.162755   9.591369  10.347945
    18  H    8.106745   6.777878   5.991082   8.384039   8.940190
    19  O    2.490904   1.369423   2.410916   3.649088   2.841446
    20  H    2.531393   1.918966   3.200026   3.867454   2.483768
                    6          7          8          9         10
     6  S    0.000000
     7  H    2.465475   0.000000
     8  C    2.803211   4.966086   0.000000
     9  S    4.095811   6.140172   1.766980   0.000000
    10  C    5.108203   7.389558   2.499337   1.743634   0.000000
    11  C    4.774230   7.110670   2.325518   2.609569   1.407844
    12  C    3.529459   5.791084   1.389804   2.639100   2.377228
    13  H    3.530664   5.646649   2.188035   3.690283   3.416692
    14  S    6.325678   8.681881   4.051579   4.210869   2.610902
    15  C    7.115614   9.489266   4.608024   4.043914   2.318644
    16  C    6.500162   8.801842   3.933363   2.938373   1.434106
    17  H    8.184384  10.571229   5.699176   5.071801   3.375947
    18  H    7.160181   9.387619   4.650036   3.315483   2.248747
    19  O    3.914428   4.656845   3.014820   3.598527   4.826695
    20  H    4.499818   4.755671   3.961628   4.489486   5.762756
                   11         12         13         14         15
    11  C    0.000000
    12  C    1.429521   0.000000
    13  H    2.248581   1.092204   0.000000
    14  S    1.745436   2.934058   3.315229   0.000000
    15  C    2.487180   3.916636   4.636055   1.753665   0.000000
    16  C    2.378547   3.664219   4.611499   2.636387   1.384861
    17  H    3.546965   4.972012   5.625157   2.473317   1.091171
    18  H    3.415873   4.609572   5.609998   3.688190   2.191534
    19  O    4.917027   4.020621   4.404021   6.511252   6.915064
    20  H    5.872350   4.958506   5.268549   7.443670   7.835205
                   16         17         18         19         20
    16  C    0.000000
    17  H    2.222648   0.000000
    18  H    1.091665   2.657775   0.000000
    19  O    6.083288   7.949830   6.536182   0.000000
    20  H    6.985360   8.855516   7.385945   0.964582   0.000000
 Stoichiometry    C10H6OS3
 Framework group  C1[X(C10H6OS3)]
 Deg. of freedom    54
 Full point group                 C1      NOp   1
 Largest Abelian subgroup         C1      NOp   1
 Largest concise Abelian subgroup C1      NOp   1
                         Standard orientation:                         
 ---------------------------------------------------------------------
 Center     Atomic      Atomic             Coordinates (Angstroms)
 Number     Number       Type             X           Y           Z
 ---------------------------------------------------------------------
      1          6           0        4.011442    0.354650    0.465558
      2          6           0        2.642909    0.755990    0.632982
      3          6           0        1.742569   -0.107011    0.017298
      4          6           0        4.125113   -0.811343   -0.274727
      5          1           0        4.861286    0.902176    0.882945
      6         16           0        2.585150   -1.420447   -0.778913
      7          1           0        5.038475   -1.341580   -0.547515
      8          6           0        0.281249   -0.024378   -0.003658
      9         16           0       -0.512707    1.254715   -0.928739
     10          6           0       -2.080972    0.637003   -0.482378
     11          6           0       -1.968950   -0.509360    0.327144
     12          6           0       -0.619422   -0.892022    0.602594
     13          1           0       -0.311322   -1.742941    1.214084
     14         16           0       -3.539005   -1.124908    0.777232
     15          6           0       -4.321513    0.160618   -0.123015
     16          6           0       -3.436304    1.027571   -0.741592
     17          1           0       -5.411687    0.201996   -0.144553
     18          1           0       -3.741045    1.885279   -1.344253
     19          8           0        2.222775    1.857091    1.330393
     20          1           0        2.990350    2.338270    1.661624
 ---------------------------------------------------------------------
 Rotational constants (GHZ):           1.2716289           0.2637206           0.2449367
 Standard basis: Aug-CC-pVDZ (5D, 7F)
 There are   416 symmetry adapted cartesian basis functions of A   symmetry.
 There are   388 symmetry adapted basis functions of A   symmetry.
   388 basis functions,   782 primitive gaussians,   416 cartesian basis functions
    61 alpha electrons       61 beta electrons
       nuclear repulsion energy      1118.2444387825 Hartrees.
 NAtoms=   20 NActive=   20 NUniq=   20 SFac= 1.00D+00 NAtFMM=   60 NAOKFM=F Big=F
 Integral buffers will be    131072 words long.
 Raffenetti 1 integral format.
 Two-electron integral symmetry is turned on.
 One-electron integrals computed using PRISM.
 NBasis=   388 RedAO= T EigKep=  3.88D-06  NBF=   388
 NBsUse=   388 1.00D-06 EigRej= -1.00D+00 NBFU=   388
 Initial guess from the checkpoint file:  "/tmp/pbs.4766300[245].pbs/Gau-556611.chk"
 B after Tr=    -0.000000    0.000000    0.000000
         Rot=    0.999999    0.000690    0.000740    0.001057 Ang=   0.17 deg.
 ExpMin= 2.97D-02 ExpMax= 1.11D+05 ExpMxC= 1.07D+03 IAcc=3 IRadAn=         5 AccDes= 0.00D+00
 Harris functional with IExCor=  205 and IRadAn=       5 diagonalized for initial guess.
 HarFok:  IExCor=  205 AccDes= 0.00D+00 IRadAn=         5 IDoV= 1 UseB2=F ITyADJ=14
 ICtDFT=  3500011 ScaDFX=  1.000000  1.000000  1.000000  1.000000
 FoFCou: FMM=F IPFlag=           0 FMFlag=      100000 FMFlg1=           0
         NFxFlg=           0 DoJE=T BraDBF=F KetDBF=T FulRan=T
         wScrn=  0.000000 ICntrl=       500 IOpCl=  0 I1Cent=   200000004 NGrid=           0
         NMat0=    1 NMatS0=      1 NMatT0=    0 NMatD0=    1 NMtDS0=    0 NMtDT0=    0
 Petite list used in FoFCou.
 Requested convergence on RMS density matrix=1.00D-08 within 128 cycles.
 Requested convergence on MAX density matrix=1.00D-06.
 Requested convergence on             energy=1.00D-06.
 No special actions if energy rises.
 SCF Done:  E(RHF) =  -1649.63242392     A.U. after   14 cycles
            NFock= 14  Conv=0.88D-08     -V/T= 2.0006
 ExpMin= 2.97D-02 ExpMax= 1.11D+05 ExpMxC= 1.07D+03 IAcc=3 IRadAn=         5 AccDes= 0.00D+00
 HarFok:  IExCor=  205 AccDes= 0.00D+00 IRadAn=         5 IDoV=-2 UseB2=F ITyADJ=14
 ICtDFT= 12500011 ScaDFX=  1.000000  1.000000  1.000000  1.000000
 GSVD:  LWork=        -884 too small for GESVD, short by        3770 words or        3770 for optimal perf.
 Range of M.O.s used for correlation:    27   388
 NBasis=   388 NAE=    61 NBE=    61 NFC=    26 NFV=     0
 NROrb=    362 NOA=    35 NOB=    35 NVA=   327 NVB=   327

 **** Warning!!: The largest alpha MO coefficient is  0.80791942D+02

 Fully direct method using O(ONN) memory.
 JobTyp=1 Pass  1:  I=  27 to  61 NPSUse=  8 ParTrn=T ParDer=T DoDerP=T.
 Spin components of T(2) and E(2):
     alpha-alpha T2 =       0.1168525404D+00 E2=     -0.2766127718D+00
     alpha-beta  T2 =       0.5695657068D+00 E2=     -0.1434347095D+01
     beta-beta   T2 =       0.1168525404D+00 E2=     -0.2766127718D+00
 ANorm=    0.1342859184D+01
 E2 =    -0.1987572639D+01 EUMP2 =    -0.16516199965629D+04
          IDoAtm=11111111111111111111
          Differentiating once with respect to electric field.
                with respect to dipole field.
          Differentiating once with respect to nuclear coordinates.
 Keep R1 ints in memory in canonical form, NReq=2883857471.
          There are     1 degrees of freedom in the 1st order CPHF.  IDoFFX=0 NUNeed=     1.
 LinEq1:  Iter=  0 NonCon=     1 RMS=2.90D-03 Max=7.37D-02 NDo=     1
 AX will form     1 AO Fock derivatives at one time.
 LinEq1:  Iter=  1 NonCon=     1 RMS=7.13D-04 Max=1.09D-02 NDo=     1
 LinEq1:  Iter=  2 NonCon=     1 RMS=3.66D-04 Max=1.31D-02 NDo=     1
 LinEq1:  Iter=  3 NonCon=     1 RMS=9.87D-05 Max=2.57D-03 NDo=     1
 LinEq1:  Iter=  4 NonCon=     1 RMS=4.08D-05 Max=9.11D-04 NDo=     1
 LinEq1:  Iter=  5 NonCon=     1 RMS=1.71D-05 Max=5.00D-04 NDo=     1
 LinEq1:  Iter=  6 NonCon=     1 RMS=7.91D-06 Max=3.66D-04 NDo=     1
 LinEq1:  Iter=  7 NonCon=     1 RMS=3.50D-06 Max=1.02D-04 NDo=     1
 LinEq1:  Iter=  8 NonCon=     1 RMS=1.41D-06 Max=3.89D-05 NDo=     1
 LinEq1:  Iter=  9 NonCon=     1 RMS=5.61D-07 Max=1.66D-05 NDo=     1
 LinEq1:  Iter= 10 NonCon=     1 RMS=2.10D-07 Max=4.80D-06 NDo=     1
 LinEq1:  Iter= 11 NonCon=     1 RMS=8.92D-08 Max=4.40D-06 NDo=     1
 LinEq1:  Iter= 12 NonCon=     1 RMS=3.34D-08 Max=7.77D-07 NDo=     1
 LinEq1:  Iter= 13 NonCon=     1 RMS=1.37D-08 Max=3.04D-07 NDo=     1
 LinEq1:  Iter= 14 NonCon=     1 RMS=4.88D-09 Max=1.11D-07 NDo=     1
 LinEq1:  Iter= 15 NonCon=     1 RMS=1.92D-09 Max=6.31D-08 NDo=     1
 LinEq1:  Iter= 16 NonCon=     1 RMS=7.34D-10 Max=2.07D-08 NDo=     1
 LinEq1:  Iter= 17 NonCon=     1 RMS=3.47D-10 Max=1.35D-08 NDo=     1
 LinEq1:  Iter= 18 NonCon=     1 RMS=1.31D-10 Max=2.84D-09 NDo=     1
 LinEq1:  Iter= 19 NonCon=     0 RMS=4.66D-11 Max=7.46D-10 NDo=     1
 Linear equations converged to 1.000D-10 1.000D-09 after    19 iterations.
 End of Minotr F.D. properties file   721 does not exist.
 End of Minotr F.D. properties file   722 does not exist.
 End of Minotr F.D. properties file   788 does not exist.
 Calling FoFJK, ICntrl=  10002127 FMM=F ISym2X=0 I1Cent= 0 IOpClX= 0 NMat=1 NMatS=1 NMatT=0.
 ***** Axes restored to original set *****
 -------------------------------------------------------------------
 Center     Atomic                   Forces (Hartrees/Bohr)
 Number     Number              X              Y              Z
 -------------------------------------------------------------------
      1        6          -0.007654193    0.004515335    0.002345411
      2        6           0.015167084   -0.002189324   -0.001667482
      3        6          -0.007400576   -0.004470815   -0.002086525
      4        6           0.002083115   -0.003831362   -0.002336784
      5        1           0.000587913   -0.000837163   -0.000475250
      6       16           0.000457351    0.004358347    0.003165125
      7        1          -0.000241461    0.000010538    0.000020459
      8        6           0.006864211    0.002201705   -0.002424287
      9       16          -0.001248168   -0.002676007    0.002942144
     10        6          -0.005916581    0.007257850   -0.004958805
     11        6           0.005642104   -0.007108983    0.004791751
     12        6          -0.008593100   -0.000973066    0.000385789
     13        1           0.001255063    0.000642212   -0.000315841
     14       16           0.001070932    0.003370155   -0.002391175
     15        6          -0.003440638   -0.002038185    0.001521087
     16        6           0.007134981    0.000052973   -0.000105153
     17        1          -0.000031066   -0.000135529    0.000071523
     18        1          -0.000927614   -0.000432804    0.000348818
     19        8          -0.007927230    0.002092705    0.000832362
     20        1           0.003117872    0.000191417    0.000336832
 -------------------------------------------------------------------
 Cartesian Forces:  Max     0.015167084 RMS     0.004067160

 GradGradGradGradGradGradGradGradGradGradGradGradGradGradGradGradGradGrad
 Berny optimization.
 Using GEDIIS/GDIIS optimizer.
 FormGI is forming the generalized inverse of G from B-inverse, IUseBI=4.
 Internal  Forces:  Max     0.005272418 RMS     0.001622940
 Search for a local minimum.
 Step number   2 out of a maximum of  116
 All quantities printed in internal units (Hartrees-Bohrs-Radians)
 Mixed Optimization -- RFO/linear search
 Update second derivatives using D2CorX and points    1    2
 DE= -1.02D-02 DEPred=-1.00D-02 R= 1.02D+00
 TightC=F SS=  1.41D+00  RLast= 1.95D-01 DXNew= 5.0454D-01 5.8490D-01
 Trust test= 1.02D+00 RLast= 1.95D-01 DXMaxT set to 5.05D-01
 ITU=  1  0
 Use linear search instead of GDIIS.
     Eigenvalues ---    0.01459   0.01581   0.01627   0.01702   0.01752
     Eigenvalues ---    0.01762   0.01982   0.02010   0.02067   0.02142
     Eigenvalues ---    0.02219   0.02282   0.02329   0.02357   0.02382
     Eigenvalues ---    0.02442   0.15769   0.15999   0.16000   0.16000
     Eigenvalues ---    0.16000   0.16033   0.22506   0.22595   0.23696
     Eigenvalues ---    0.24339   0.24769   0.24906   0.24981   0.24997
     Eigenvalues ---    0.25187   0.29314   0.30029   0.30331   0.31011
     Eigenvalues ---    0.31367   0.32764   0.35425   0.35998   0.36275
     Eigenvalues ---    0.36339   0.36378   0.36685   0.38706   0.39102
     Eigenvalues ---    0.39522   0.45305   0.50478   0.52032   0.53256
     Eigenvalues ---    0.54094   0.55260   0.593701000.000001000.00000
     Eigenvalues --- 1000.000001000.000001000.000001000.000001000.00000
     Eigenvalues --- 1000.000001000.000001000.000001000.000001000.00000
     Eigenvalues --- 1000.000001000.000001000.000001000.000001000.00000
     Eigenvalues --- 1000.000001000.000001000.000001000.000001000.00000
     Eigenvalues --- 1000.000001000.000001000.000001000.000001000.00000
     Eigenvalues --- 1000.000001000.000001000.000001000.000001000.00000
     Eigenvalues --- 1000.000001000.000001000.000001000.000001000.00000
     Eigenvalues --- 1000.000001000.000001000.000001000.000001000.00000
     Eigenvalues --- 1000.000001000.000001000.000001000.000001000.00000
     Eigenvalues --- 1000.000001000.000001000.000001000.000001000.00000
     Eigenvalues --- 1000.00000
 RFO step:  Lambda=-8.69530169D-04 EMin= 1.45932874D-02
 Quartic linear search produced a step of  0.10599.
 Iteration  1 RMS(Cart)=  0.01213569 RMS(Int)=  0.00008993
 Iteration  2 RMS(Cart)=  0.00011448 RMS(Int)=  0.00001586
 Iteration  3 RMS(Cart)=  0.00000001 RMS(Int)=  0.00001586
 Iteration  1 RMS(Cart)=  0.00000684 RMS(Int)=  0.00000298
 Iteration  2 RMS(Cart)=  0.00000374 RMS(Int)=  0.00000332
 Iteration  3 RMS(Cart)=  0.00000205 RMS(Int)=  0.00000376
 Iteration  4 RMS(Cart)=  0.00000112 RMS(Int)=  0.00000404
 Iteration  5 RMS(Cart)=  0.00000061 RMS(Int)=  0.00000421
 Variable       Old X    -DE/DX   Delta X   Delta X   Delta X     New X
                                 (Linear)    (Quad)   (Total)
    R1        2.71358  -0.00527  -0.00043  -0.01436  -0.01480   2.69878
    R2        2.61881   0.00288   0.00736   0.00186   0.00921   2.62802
    R3        2.06684  -0.00015   0.00269  -0.00179   0.00090   2.06774
    R4        2.62832   0.00430   0.00760   0.00470   0.01231   2.64063
    R5        2.58783   0.00391   0.00395   0.00575   0.00970   2.59754
    R6        3.31053  -0.00303   0.00076  -0.01125  -0.01048   3.30006
    R7        2.76619  -0.00180  -0.00156  -0.00480  -0.00636   2.75983
    R8        3.27130  -0.00093   0.00206  -0.00407  -0.00201   3.26929
    R9        2.06127  -0.00021   0.00282  -0.00206   0.00076   2.06203
   R10        3.33911  -0.00094   0.00189  -0.00475  -0.00286   3.33625
   R11        2.62635   0.00380   0.00750   0.00363   0.01113   2.63748
   R12        3.29499  -0.00134   0.00160  -0.00537  -0.00376   3.29123
   R13        2.66044   0.00527   0.00868   0.00704   0.01573   2.67617
   R14        2.71007  -0.00354  -0.00036  -0.00944  -0.00980   2.70027
   R15        2.70140  -0.00341  -0.00058  -0.00880  -0.00938   2.69202
   R16        3.29840  -0.00151   0.00147  -0.00585  -0.00438   3.29402
   R17        2.06397  -0.00032   0.00299  -0.00246   0.00052   2.06449
   R18        3.31395  -0.00134   0.00177  -0.00599  -0.00421   3.30973
   R19        2.61701   0.00257   0.00725   0.00116   0.00840   2.62541
   R20        2.06201   0.00002   0.00283  -0.00134   0.00149   2.06350
   R21        2.06295  -0.00027   0.00277  -0.00221   0.00056   2.06351
   R22        1.82280   0.00269   0.00451   0.00259   0.00709   1.82989
    A1        1.95586   0.00040  -0.00019   0.00225   0.00205   1.95790
    A2        2.16051   0.00096   0.00019   0.00677   0.00696   2.16747
    A3        2.16678  -0.00136   0.00000  -0.00905  -0.00904   2.15774
    A4        1.97350   0.00158  -0.00106   0.00760   0.00654   1.98004
    A5        2.18523   0.00265   0.00260   0.01038   0.01298   2.19822
    A6        2.12439  -0.00422  -0.00154  -0.01799  -0.01953   2.10486
    A7        1.93376  -0.00239   0.00095  -0.01089  -0.00997   1.92380
    A8        2.23641   0.00030  -0.00056   0.00144   0.00083   2.23724
    A9        2.11293   0.00209  -0.00040   0.00926   0.00881   2.12174
   A10        1.95915  -0.00183   0.00015  -0.00902  -0.00887   1.95027
   A11        2.22847   0.00103   0.00094   0.00491   0.00585   2.23433
   A12        2.09557   0.00080  -0.00109   0.00410   0.00302   2.09858
   A13        1.60249   0.00224   0.00015   0.01008   0.01025   1.61274
   A14        2.09085   0.00063  -0.00137   0.00365   0.00229   2.09313
   A15        2.22115   0.00127   0.00008   0.00581   0.00589   2.22704
   A16        1.97045  -0.00189   0.00130  -0.00953  -0.00823   1.96222
   A17        1.58446   0.00257  -0.00026   0.01090   0.01065   1.59511
   A18        1.94346  -0.00243   0.00053  -0.01079  -0.01026   1.93320
   A19        2.35642   0.00155   0.00008   0.00611   0.00619   2.36261
   A20        1.98329   0.00088  -0.00061   0.00469   0.00407   1.98736
   A21        1.98655   0.00099  -0.00043   0.00490   0.00446   1.99101
   A22        1.94321  -0.00246   0.00034  -0.01053  -0.01019   1.93302
   A23        2.35335   0.00146   0.00009   0.00559   0.00567   2.35903
   A24        1.93974   0.00076  -0.00115   0.00446   0.00330   1.94304
   A25        2.15052  -0.00183   0.00018  -0.01205  -0.01187   2.13864
   A26        2.19288   0.00107   0.00097   0.00757   0.00854   2.20143
   A27        1.58128   0.00229   0.00012   0.00992   0.01006   1.59134
   A28        1.98557  -0.00141   0.00084  -0.00793  -0.00710   1.97847
   A29        2.07571   0.00054  -0.00119   0.00319   0.00200   2.07771
   A30        2.22190   0.00086   0.00036   0.00475   0.00511   2.22700
   A31        1.93143   0.00069  -0.00069   0.00386   0.00316   1.93459
   A32        2.18656   0.00073   0.00048   0.00544   0.00593   2.19248
   A33        2.16519  -0.00143   0.00021  -0.00930  -0.00908   2.15611
   A34        1.90906  -0.00295  -0.00295  -0.01913  -0.02207   1.88698
    D1       -0.00201   0.00007  -0.00012  -0.00314  -0.00325  -0.00526
    D2        3.12741   0.00003  -0.00020  -0.00335  -0.00354   3.12386
    D3       -3.13399   0.00006   0.00012  -0.00069  -0.00056  -3.13455
    D4       -0.00458   0.00002   0.00003  -0.00090  -0.00085  -0.00542
    D5        0.00647   0.00001   0.00027   0.00001   0.00028   0.00675
    D6       -3.13456  -0.00001   0.00024   0.00221   0.00244  -3.13212
    D7        3.13841   0.00004   0.00003  -0.00235  -0.00230   3.13612
    D8       -0.00262   0.00001   0.00000  -0.00015  -0.00013  -0.00276
    D9       -0.00328  -0.00012  -0.00008   0.00475   0.00464   0.00136
   D10        3.12479   0.00010  -0.00070  -0.01167  -0.01231   3.11248
   D11       -3.13317  -0.00014  -0.00003   0.00474   0.00467  -3.12850
   D12       -0.00510   0.00009  -0.00065  -0.01169  -0.01227  -0.01738
   D13        0.03795  -0.00010  -0.00018  -0.00459  -0.00477   0.03317
   D14       -3.11682  -0.00010  -0.00026  -0.00463  -0.00489  -3.12171
   D15        0.00585   0.00011   0.00020  -0.00398  -0.00375   0.00210
   D16       -3.12332  -0.00008   0.00077   0.01115   0.01194  -3.11138
   D17        1.22178  -0.00105  -0.00000   0.00000   0.00000   1.22178
   D18       -1.96405  -0.00063   0.00033  -0.00220  -0.00185  -1.96590
   D19       -1.93458  -0.00084  -0.00067  -0.01807  -0.01879  -1.95337
   D20        1.16278  -0.00042  -0.00034  -0.02026  -0.02065   1.14213
   D21       -0.00710  -0.00008  -0.00027   0.00224   0.00198  -0.00512
   D22        3.13399  -0.00005  -0.00024   0.00024   0.00001   3.13400
   D23        3.11666   0.00029   0.00039   0.00173   0.00215   3.11880
   D24        0.01327  -0.00013   0.00012   0.00331   0.00343   0.01671
   D25       -3.11075  -0.00025  -0.00025   0.00034   0.00009  -3.11065
   D26        0.04107  -0.00025  -0.00013   0.00307   0.00292   0.04399
   D27       -0.01082   0.00020   0.00001  -0.00148  -0.00145  -0.01227
   D28        3.14099   0.00020   0.00013   0.00126   0.00138  -3.14081
   D29       -0.01202   0.00005  -0.00022  -0.00420  -0.00440  -0.01641
   D30        3.12283   0.00001  -0.00014  -0.00344  -0.00357   3.11925
   D31        0.00837   0.00004   0.00027   0.00419   0.00444   0.01282
   D32        3.13896  -0.00003   0.00004   0.00096   0.00100   3.13996
   D33       -3.12801   0.00007   0.00021   0.00359   0.00379  -3.12422
   D34        0.00257  -0.00000  -0.00002   0.00035   0.00034   0.00292
   D35       -3.13842   0.00004  -0.00016  -0.00094  -0.00111  -3.13952
   D36        0.00664   0.00003  -0.00009  -0.00119  -0.00128   0.00536
[...]
      2          6           0        2.651519    0.761759    0.616816
      3          6           0        1.742947   -0.100347   -0.006543
      4          6           0        4.130383   -0.823075   -0.254308
      5          1           0        4.864156    0.897050    0.889971
      6         16           0        2.592082   -1.420314   -0.766809
      7          1           0        5.042597   -1.360853   -0.513364
      8          6           0        0.286347   -0.018044   -0.011825
      9         16           0       -0.521693    1.268453   -0.907953
     10          6           0       -2.088060    0.646639   -0.473595
     11          6           0       -1.962234   -0.524770    0.316111
     12          6           0       -0.617412   -0.903983    0.577889
     13          1           0       -0.289351   -1.760358    1.170600
     14         16           0       -3.530249   -1.142713    0.757078
     15          6           0       -4.324620    0.155041   -0.105993
     16          6           0       -3.439020    1.037205   -0.712059
     17          1           0       -5.414869    0.193048   -0.120171
     18          1           0       -3.760356    1.904549   -1.291359
     19          8           0        2.201638    1.872293    1.295510
     20          1           0        2.967730    2.334021    1.665422
 ---------------------------------------------------------------------
 Rotational constants (GHZ):           1.2758621           0.2646022           0.2444463

 **********************************************************************

            Population analysis using the SCF Density.

 **********************************************************************

 Orbital symmetries:
       Occupied  (A) (A) (A) (A) (A) (A) (A) (A) (A) (A) (A) (A)
                 (A) (A) (A) (A) (A) (A) (A) (A) (A) (A) (A) (A)
                 (A) (A) (A) (A) (A) (A) (A) (A) (A) (A) (A) (A)
                 (A) (A) (A) (A) (A) (A) (A) (A) (A) (A) (A) (A)
                 (A) (A) (A) (A) (A) (A) (A) (A) (A) (A) (A) (A)
                 (A)
       Virtual   (A) (A) (A) (A) (A) (A) (A) (A) (A) (A) (A) (A)
                 (A) (A) (A) (A) (A) (A) (A) (A) (A) (A) (A) (A)
                 (A) (A) (A) (A) (A) (A) (A) (A) (A) (A) (A) (A)
                 (A) (A) (A) (A) (A) (A) (A) (A) (A) (A) (A) (A)
                 (A) (A) (A) (A) (A) (A) (A) (A) (A) (A) (A) (A)
                 (A) (A) (A) (A) (A) (A) (A) (A) (A) (A) (A) (A)
                 (A) (A) (A) (A) (A) (A) (A) (A) (A) (A) (A) (A)
                 (A) (A) (A) (A) (A) (A) (A) (A) (A) (A) (A) (A)
                 (A) (A) (A) (A) (A) (A) (A) (A) (A) (A) (A) (A)
                 (A) (A) (A) (A) (A) (A) (A) (A) (A) (A) (A) (A)
                 (A) (A) (A) (A) (A) (A) (A) (A) (A) (A) (A) (A)
                 (A) (A) (A) (A) (A) (A) (A) (A) (A) (A) (A) (A)
                 (A) (A) (A) (A) (A) (A) (A) (A) (A) (A) (A) (A)
                 (A) (A) (A) (A) (A) (A) (A) (A) (A) (A) (A) (A)
                 (A) (A) (A) (A) (A) (A) (A) (A) (A) (A) (A) (A)
                 (A) (A) (A) (A) (A) (A) (A) (A) (A) (A) (A) (A)
                 (A) (A) (A) (A) (A) (A) (A) (A) (A) (A) (A) (A)
                 (A) (A) (A) (A) (A) (A) (A) (A) (A) (A) (A) (A)
                 (A) (A) (A) (A) (A) (A) (A) (A) (A) (A) (A) (A)
                 (A) (A) (A) (A) (A) (A) (A) (A) (A) (A) (A) (A)
                 (A) (A) (A) (A) (A) (A) (A) (A) (A) (A) (A) (A)
                 (A) (A) (A) (A) (A) (A) (A) (A) (A) (A) (A) (A)
                 (A) (A) (A) (A) (A) (A) (A) (A) (A) (A) (A) (A)
                 (A) (A) (A) (A) (A) (A) (A) (A) (A) (A) (A) (A)
                 (A) (A) (A) (A) (A) (A) (A) (A) (A) (A) (A) (A)
                 (A) (A) (A) (A) (A) (A) (A) (A) (A) (A) (A) (A)
                 (A) (A) (A) (A) (A) (A) (A) (A) (A) (A) (A) (A)
                 (A) (A) (A)
 The electronic state is 1-A.
 Alpha  occ. eigenvalues --  -91.99652 -91.99078 -91.98799 -20.61293 -11.32445
 Alpha  occ. eigenvalues --  -11.29227 -11.28961 -11.28123 -11.27588 -11.27551
 Alpha  occ. eigenvalues --  -11.27458 -11.26347 -11.26139 -11.26108  -8.99770
 Alpha  occ. eigenvalues --   -8.99192  -8.98893  -6.67931  -6.67839  -6.67655
 Alpha  occ. eigenvalues --   -6.67358  -6.67277  -6.67081  -6.67054  -6.66969
 Alpha  occ. eigenvalues --   -6.66771  -1.41375  -1.20135  -1.17553  -1.11570
 Alpha  occ. eigenvalues --   -1.02323  -1.01776  -0.98738  -0.94484  -0.93808
 Alpha  occ. eigenvalues --   -0.82371  -0.80319  -0.76377  -0.73829  -0.71654
 Alpha  occ. eigenvalues --   -0.69391  -0.66297  -0.65839  -0.60885  -0.60199
 Alpha  occ. eigenvalues --   -0.58321  -0.56607  -0.55543  -0.53884  -0.52857
 Alpha  occ. eigenvalues --   -0.52716  -0.50613  -0.49345  -0.48606  -0.45810
 Alpha  occ. eigenvalues --   -0.45484  -0.38531  -0.34941  -0.32454  -0.31671
 Alpha  occ. eigenvalues --   -0.28114
 Alpha virt. eigenvalues --    0.02809   0.03727   0.03968   0.04911   0.05096
 Alpha virt. eigenvalues --    0.06226   0.07205   0.08160   0.08490   0.08922
 Alpha virt. eigenvalues --    0.09533   0.10270   0.10415   0.10730   0.11219
 Alpha virt. eigenvalues --    0.12286   0.12556   0.12782   0.12979   0.13316
 Alpha virt. eigenvalues --    0.13906   0.14189   0.14410   0.14517   0.14856
 Alpha virt. eigenvalues --    0.15299   0.15697   0.16315   0.16667   0.16902
 Alpha virt. eigenvalues --    0.17307   0.18078   0.18253   0.18539   0.19166
 Alpha virt. eigenvalues --    0.19311   0.19820   0.20431   0.21300   0.21588
 Alpha virt. eigenvalues --    0.21789   0.22204   0.22587   0.23000   0.23276
 Alpha virt. eigenvalues --    0.23718   0.24662   0.24749   0.25222   0.25615
 Alpha virt. eigenvalues --    0.26134   0.27127   0.27279   0.27690   0.28043
 Alpha virt. eigenvalues --    0.28964   0.29443   0.30529   0.31164   0.31459
 Alpha virt. eigenvalues --    0.31973   0.32177   0.32473   0.32817   0.33169
 Alpha virt. eigenvalues --    0.33729   0.34723   0.34864   0.35546   0.35663
 Alpha virt. eigenvalues --    0.36387   0.37055   0.37531   0.38484   0.38862
 Alpha virt. eigenvalues --    0.40016   0.40508   0.40747   0.41162   0.42124
 Alpha virt. eigenvalues --    0.42711   0.43676   0.44704   0.44943   0.45307
 Alpha virt. eigenvalues --    0.45819   0.46199   0.46614   0.47253   0.48352
 Alpha virt. eigenvalues --    0.49313   0.49537   0.50576   0.51041   0.51864
 Alpha virt. eigenvalues --    0.52721   0.53528   0.53974   0.54742   0.54847
 Alpha virt. eigenvalues --    0.55231   0.56526   0.58230   0.58597   0.59012
 Alpha virt. eigenvalues --    0.59422   0.60212   0.60725   0.61150   0.61942
 Alpha virt. eigenvalues --    0.62560   0.63119   0.64320   0.64749   0.65210
 Alpha virt. eigenvalues --    0.66181   0.66724   0.67113   0.67711   0.67889
 Alpha virt. eigenvalues --    0.68770   0.69095   0.69622   0.69980   0.70568
 Alpha virt. eigenvalues --    0.71268   0.71765   0.72224   0.72743   0.73611
 Alpha virt. eigenvalues --    0.73736   0.74499   0.74932   0.75526   0.76110
 Alpha virt. eigenvalues --    0.77155   0.77583   0.78085   0.78819   0.79387
 Alpha virt. eigenvalues --    0.80173   0.81483   0.82932   0.83578   0.84110
 Alpha virt. eigenvalues --    0.85027   0.85546   0.86520   0.86866   0.87334
 Alpha virt. eigenvalues --    0.87742   0.88998   0.89501   0.90190   0.90656
 Alpha virt. eigenvalues --    0.90924   0.92031   0.92885   0.93726   0.94308
 Alpha virt. eigenvalues --    0.95252   0.95550   0.96214   0.97402   0.97848
 Alpha virt. eigenvalues --    0.98758   1.00181   1.00508   1.00940   1.02003
 Alpha virt. eigenvalues --    1.03544   1.04861   1.05646   1.06171   1.06410
 Alpha virt. eigenvalues --    1.08959   1.10025   1.10032   1.10471   1.11656
 Alpha virt. eigenvalues --    1.13288   1.13621   1.16178   1.17353   1.17983
 Alpha virt. eigenvalues --    1.18426   1.21229   1.21963   1.22321   1.23487
 Alpha virt. eigenvalues --    1.23846   1.25246   1.25384   1.25737   1.26983
 Alpha virt. eigenvalues --    1.27654   1.28727   1.29663   1.31084   1.31825
 Alpha virt. eigenvalues --    1.33421   1.34033   1.34887   1.35548   1.36198
 Alpha virt. eigenvalues --    1.37803   1.38806   1.39297   1.40300   1.41982
 Alpha virt. eigenvalues --    1.43942   1.44345   1.45035   1.46817   1.47967
 Alpha virt. eigenvalues --    1.49582   1.52234   1.54559   1.55881   1.56122
 Alpha virt. eigenvalues --    1.57917   1.58674   1.59385   1.59931   1.61614
 Alpha virt. eigenvalues --    1.62212   1.63699   1.64725   1.65528   1.66878
 Alpha virt. eigenvalues --    1.67595   1.68558   1.69274   1.70454   1.70973
 Alpha virt. eigenvalues --    1.73457   1.73619   1.75191   1.75848   1.76984
 Alpha virt. eigenvalues --    1.77370   1.79645   1.80812   1.82496   1.82680
 Alpha virt. eigenvalues --    1.84478   1.86560   1.87814   1.89193   1.90083
 Alpha virt. eigenvalues --    1.90805   1.91647   1.93888   1.95049   1.97112
 Alpha virt. eigenvalues --    1.97696   1.99242   2.02611   2.03247   2.03899
 Alpha virt. eigenvalues --    2.05127   2.05508   2.06152   2.07797   2.08096
 Alpha virt. eigenvalues --    2.09472   2.11200   2.11928   2.12785   2.14197
 Alpha virt. eigenvalues --    2.14493   2.18103   2.18996   2.19335   2.20656
 Alpha virt. eigenvalues --    2.22398   2.23615   2.25124   2.26258   2.28038
 Alpha virt. eigenvalues --    2.30363   2.32014   2.32362   2.33760   2.35520
 Alpha virt. eigenvalues --    2.36042   2.40038   2.41811   2.42176   2.45044
 Alpha virt. eigenvalues --    2.45818   2.46424   2.48030   2.48868   2.50847
 Alpha virt. eigenvalues --    2.53710   2.55360   2.55746   2.58346   2.62866
 Alpha virt. eigenvalues --    2.70653   2.77713   2.79365   2.81160   2.83706
 Alpha virt. eigenvalues --    2.86980   2.88390   2.93605   2.95679   2.99834
 Alpha virt. eigenvalues --    3.11041   3.13944   3.20766   3.23344   3.30238
 Alpha virt. eigenvalues --    3.36528   3.44945   3.48576   3.61661   3.75552
 Alpha virt. eigenvalues --    3.77165   3.77498   3.86157   3.89637   4.22460
 Alpha virt. eigenvalues --    4.25694   4.44045
          Condensed to atoms (all electrons):
               1          2          3          4          5          6
     1  C    7.360055  -1.786808  -0.068115   0.258332  -0.036285  -0.404141
     2  C   -1.786808   9.703611  -1.558141   0.302759   0.152485  -0.365920
     3  C   -0.068115  -1.558141   9.969947  -0.998506  -0.035081   0.077454
     4  C    0.258332   0.302759  -0.998506   6.170532  -0.062202   0.352178
     5  H   -0.036285   0.152485  -0.035081  -0.062202   1.544356  -0.014783
     6  S   -0.404141  -0.365920   0.077454   0.352178  -0.014783  16.220640
     7  H   -0.043950   0.024107   0.049145   0.282140  -0.061944  -0.150550
     8  C    0.300540  -0.160939  -1.350350   0.158852   0.003718  -0.546596
     9  S   -0.007676   0.309094  -0.461962   0.000657   0.002572  -0.098918
    10  C   -0.012563   0.040114  -0.214213   0.015989  -0.000174   0.017720
    11  C   -0.022514   0.080244   0.331162  -0.006832   0.000381   0.040991
    12  C   -0.017913  -0.697057  -0.051129  -0.116641  -0.008171   0.458661
    13  H   -0.013096   0.090056   0.024361   0.010740  -0.000782   0.006414
    14  S    0.001933  -0.011211  -0.056942  -0.002284   0.000108  -0.000563
    15  C   -0.001891   0.005990   0.019874   0.000242  -0.000110  -0.002451
    16  C    0.001958  -0.001138  -0.313003  -0.001932  -0.000111   0.007094
    17  H   -0.000092   0.000550  -0.000958   0.000001  -0.000006  -0.000056
    18  H    0.000424  -0.000628  -0.007641  -0.000222   0.000033   0.000254
    19  O    0.132143  -0.758387   0.300410  -0.088543  -0.063523   0.004395
    20  H   -0.134812   0.030135  -0.039975  -0.012130  -0.010336   0.016682
               7          8          9         10         11         12
     1  C   -0.043950   0.300540  -0.007676  -0.012563  -0.022514  -0.017913
     2  C    0.024107  -0.160939   0.309094   0.040114   0.080244  -0.697057
     3  C    0.049145  -1.350350  -0.461962  -0.214213   0.331162  -0.051129
     4  C    0.282140   0.158852   0.000657   0.015989  -0.006832  -0.116641
     5  H   -0.061944   0.003718   0.002572  -0.000174   0.000381  -0.008171
     6  S   -0.150550  -0.546596  -0.098918   0.017720   0.040991   0.458661
     7  H    1.202681   0.005918  -0.000953   0.000381   0.000150   0.002726
     8  C    0.005918  11.505998   0.308549  -0.093118  -0.812223  -3.455711
     9  S   -0.000953   0.308549  16.443652   0.155341  -0.297388  -0.605926
    10  C    0.000381  -0.093118   0.155341   9.822207   0.114769  -1.245555
    11  C    0.000150  -0.812223  -0.297388   0.114769  11.035186  -2.927678
    12  C    0.002726  -3.455711  -0.605926  -1.245555  -2.927678  15.268383
    13  H    0.001256   0.241631   0.030813  -0.097316   0.592974  -0.988053
    14  S   -0.000147  -0.240154   0.091019   0.033081  -0.252268  -0.044643
    15  C    0.000028   0.061889  -0.080170  -0.171985  -0.791072  -0.108220
    16  C   -0.000091  -0.448327  -0.226900  -2.217677  -0.869967   0.466376
    17  H    0.000002   0.005993   0.006472   0.059717  -0.042336   0.022701
    18  H   -0.000015   0.094517   0.010172   0.473267   0.047269  -0.055874
    19  O   -0.001862   0.001904  -0.003995   0.015811  -0.020993   0.076285
    20  H    0.001046   0.016702  -0.002228   0.002208   0.000852  -0.006829
              13         14         15         16         17         18
     1  C   -0.013096   0.001933  -0.001891   0.001958  -0.000092   0.000424
     2  C    0.090056  -0.011211   0.005990  -0.001138   0.000550  -0.000628
     3  C    0.024361  -0.056942   0.019874  -0.313003  -0.000958  -0.007641
     4  C    0.010740  -0.002284   0.000242  -0.001932   0.000001  -0.000222
     5  H   -0.000782   0.000108  -0.000110  -0.000111  -0.000006   0.000033
     6  S    0.006414  -0.000563  -0.002451   0.007094  -0.000056   0.000254
     7  H    0.001256  -0.000147   0.000028  -0.000091   0.000002  -0.000015
     8  C    0.241631  -0.240154   0.061889  -0.448327   0.005993   0.094517
     9  S    0.030813   0.091019  -0.080170  -0.226900   0.006472   0.010172
    10  C   -0.097316   0.033081  -0.171985  -2.217677   0.059717   0.473267
    11  C    0.592974  -0.252268  -0.791072  -0.869967  -0.042336   0.047269
    12  C   -0.988053  -0.044643  -0.108220   0.466376   0.022701  -0.055874
    13  H    1.581328  -0.036654   0.016934  -0.040470   0.001448  -0.001554
    14  S   -0.036654  15.867779   0.189398  -0.024716  -0.148834  -0.002722
    15  C    0.016934   0.189398   6.537366   0.309558   0.287973  -0.136911
    16  C   -0.040470  -0.024716   0.309558   9.288759  -0.022834  -0.415896
    17  H    0.001448  -0.148834   0.287973  -0.022834   1.240729  -0.060940
    18  H   -0.001554  -0.002722  -0.136911  -0.415896  -0.060940   1.347119
    19  O   -0.001839   0.000962  -0.000039  -0.001806  -0.000016   0.000199
    20  H    0.001005  -0.000326   0.000263   0.000977   0.000014  -0.000026
              19         20
     1  C    0.132143  -0.134812
     2  C   -0.758387   0.030135
     3  C    0.300410  -0.039975
     4  C   -0.088543  -0.012130
     5  H   -0.063523  -0.010336
     6  S    0.004395   0.016682
     7  H   -0.001862   0.001046
     8  C    0.001904   0.016702
     9  S   -0.003995  -0.002228
    10  C    0.015811   0.002208
    11  C   -0.020993   0.000852
    12  C    0.076285  -0.006829
    13  H   -0.001839   0.001005
    14  S    0.000962  -0.000326
    15  C   -0.000039   0.000263
    16  C   -0.001806   0.000977
    17  H   -0.000016   0.000014
    18  H    0.000199  -0.000026
    19  O    9.041453   0.351925
    20  H    0.351925   0.593402
 Mulliken charges:
               1
     1  C    0.494472
     2  C    0.601082
     3  C    0.383662
     4  C   -0.263130
     5  H   -0.410143
     6  S    0.381492
     7  H   -0.310066
     8  C    0.401206
     9  S    0.427777
    10  C   -0.698004
    11  C   -0.200707
    12  C    0.034270
    13  H   -0.419195
    14  S    0.637186
    15  C   -0.136666
    16  C    0.510147
    17  H   -0.349528
    18  H   -0.290826
    19  O   -0.984483
    20  H    0.191454
 Sum of Mulliken charges =  -0.00000
 Mulliken charges with hydrogens summed into heavy atoms:
               1
     1  C    0.084329
     2  C    0.601082
     3  C    0.383662
     4  C   -0.573197
     6  S    0.381492
     8  C    0.401206
     9  S    0.427777
    10  C   -0.698004
    11  C   -0.200707
    12  C   -0.384925
    14  S    0.637186
    15  C   -0.486194
    16  C    0.219320
    19  O   -0.793029
 Electronic spatial extent (au):  <R**2>=           4334.8586
 Charge=             -0.0000 electrons
 Dipole moment (field-independent basis, Debye):
    X=              2.2794    Y=              0.7046    Z=              0.6874  Tot=              2.4829
 Quadrupole moment (field-independent basis, Debye-Ang):
   XX=            -76.8800   YY=           -100.2338   ZZ=           -106.0839
   XY=              0.3896   XZ=              6.4579   YZ=             -0.1335
 Traceless Quadrupole moment (field-independent basis, Debye-Ang):
   XX=             17.5192   YY=             -5.8345   ZZ=            -11.6847
   XY=              0.3896   XZ=              6.4579   YZ=             -0.1335
 Octapole moment (field-independent basis, Debye-Ang**2):
  XXX=             51.1893  YYY=             16.1404  ZZZ=              9.9957  XYY=             19.8420
  XXY=             30.5311  XXZ=              8.8232  XZZ=             11.5649  YZZ=              8.5031
  YYZ=              6.3551  XYZ=             27.5510
 Hexadecapole moment (field-independent basis, Debye-Ang**3):
 XXXX=          -4003.2484 YYYY=           -790.1285 ZZZZ=           -437.7833 XXXY=             -9.2801
 XXXZ=             97.3510 YYYX=             37.6332 YYYZ=             19.9888 ZZZX=             30.6895
 ZZZY=             17.9758 XXYY=           -866.4013 XXZZ=           -898.7199 YYZZ=           -181.8761
 XXYZ=             54.9269 YYXZ=             39.2103 ZZXY=             23.2937
 N-N= 1.119079066633D+03 E-N=-6.144758672634D+03  KE= 1.648680517354D+03
 Unable to Open any file for archive entry.
 1\1\GINC-CX3-11-3\FOpt\RMP2-FC\Aug-CC-pVDZ\C10H6O1S3\NS5018\27-Oct-202
 1\0\\# opt=modredundant mp2/aug-cc-pvdz\\pBTTT_70.pdb\\0,1\C,4.0084118
 739,0.3647184351,0.464713595\C,2.6501524514,0.7677125268,0.6072311116\
 C,1.7424677304,-0.0988394281,-0.011235386\C,4.1308154663,-0.8192686458
 ,-0.2568992473\H,4.8627571478,0.90763673,0.878303823\S,2.593079763,-1.
 4213336953,-0.7654342658\H,5.0436615286,-1.3569861253,-0.5138432217\C,
 0.2857442764,-0.0187161061,-0.0160050901\S,-0.52476126,1.2620909846,-0
 .9180391148\C,-2.0899333096,0.6401416039,-0.4795857784\C,-1.9618781513
 ,-0.5271180463,0.3158845026\C,-0.6163328704,-0.9030307473,0.5787010472
 \H,-0.2866326902,-1.7559468646,1.1754760657\S,-3.5286996642,-1.1451654
 699,0.7609270521\C,-4.3255323977,0.1470835012,-0.1081142451\C,-3.44161
 88634,1.0275147645,-0.7191425082\H,-5.4158447289,0.1834083516,-0.12179
 10481\H,-3.7646016748,1.891476823,-1.3025655927\O,2.1990530795,1.88095
 92598,1.2806520768\H,2.9646922929,2.3456621482,1.6477662242\\Version=E
 S64L-G16RevC.01\State=1-A\HF=-1649.6297984\MP2=-1651.6206615\RMSD=6.91
 7e-09\RMSF=5.205e-04\Dipole=0.7014499,0.2422183,0.2195008\PG=C01 [X(C1
 0H6O1S3)]\\@
 The archive entry for this job was punched.


 I DO NOT KNOW WHAT I MAY APPEAR TO THE WORLD; BUT TO MYSELF
 I SEEM TO HAVE BEEN ONLY LIKE A BOY PLAYING ON THE SEASHORE,
 AND DIVERTING MYSELF IN NOW AND THEN FINDING A SMOOTHER PEBBLE
 OR A PRETTIER SHELL THAN ORDINARY, WHILST THE GREAT OCEAN OF
 TRUTH LAY ALL UNDISCOVERED BEFORE ME.
                                          -- NEWTON (1642-1726)
 Job cpu time:       0 days 12 hours  9 minutes 39.9 seconds.
 Elapsed time:       0 days  1 hours 39 minutes 35.6 seconds.
 File lengths (MBytes):  RWF=    106 Int=      0 D2E=      0 Chk=     16 Scr=      1
 Normal termination of Gaussian 16 at Wed Oct 27 07:10:32 2021.
