 Entering Gaussian System, Link 0=g16
 Input=pBTTT_-80.gjf
 Output=pBTTT_-80.log
 Initial command:
 /apps/gaussian/g16-c01-avx/g16/l1.exe "/tmp/pbs.4766300[95].pbs/Gau-2890834.inp" -scrdir="/tmp/pbs.4766300[95].pbs/"
 Entering Link 1 = /apps/gaussian/g16-c01-avx/g16/l1.exe PID=   2890837.
  
 Copyright (c) 1988-2019, Gaussian, Inc.  All Rights Reserved.
  
 This is part of the Gaussian(R) 16 program.  It is based on
 the Gaussian(R) 09 system (copyright 2009, Gaussian, Inc.),
 the Gaussian(R) 03 system (copyright 2003, Gaussian, Inc.),
 the Gaussian(R) 98 system (copyright 1998, Gaussian, Inc.),
 the Gaussian(R) 94 system (copyright 1995, Gaussian, Inc.),
 the Gaussian 92(TM) system (copyright 1992, Gaussian, Inc.),
 the Gaussian 90(TM) system (copyright 1990, Gaussian, Inc.),
 the Gaussian 88(TM) system (copyright 1988, Gaussian, Inc.),
 the Gaussian 86(TM) system (copyright 1986, Carnegie Mellon
 University), and the Gaussian 82(TM) system (copyright 1983,
 Carnegie Mellon University). Gaussian is a federally registered
 trademark of Gaussian, Inc.
  
 This software contains proprietary and confidential information,
 including trade secrets, belonging to Gaussian, Inc.
  
 This software is provided under written license and may be
 used, copied, transmitted, or stored only in accord with that
 written license.
  
 The following legend is applicable only to US Government
 contracts under FAR:
  
                    RESTRICTED RIGHTS LEGEND
  
 Use, reproduction and disclosure by the US Government is
 subject to restrictions as set forth in subparagraphs (a)
 and (c) of the Commercial Computer Software - Restricted
 Rights clause in FAR 52.227-19.
  
 Gaussian, Inc.
 340 Quinnipiac St., Bldg. 40, Wallingford CT 06492
  
  
 ---------------------------------------------------------------
 Warning -- This program may not be used in any manner that
 competes with the business of Gaussian, Inc. or will provide
 assistance to any competitor of Gaussian, Inc.  The licensee
 of this program is prohibited from giving any competitor of
 Gaussian, Inc. access to this program.  By using this program,
 the user acknowledges that Gaussian, Inc. is engaged in the
 business of creating and licensing software in the field of
 computational chemistry and represents and warrants to the
 licensee that it is not a competitor of Gaussian, Inc. and that
 it will not use this program in any manner prohibited above.
 ---------------------------------------------------------------
  

 Cite this work as:
 Gaussian 16, Revision C.01,
 M. J. Frisch, G. W. Trucks, H. B. Schlegel, G. E. Scuseria, 
 M. A. Robb, J. R. Cheeseman, G. Scalmani, V. Barone, 
 G. A. Petersson, H. Nakatsuji, X. Li, M. Caricato, A. V. Marenich, 
 J. Bloino, B. G. Janesko, R. Gomperts, B. Mennucci, H. P. Hratchian, 
 J. V. Ortiz, A. F. Izmaylov, J. L. Sonnenberg, D. Williams-Young, 
 F. Ding, F. Lipparini, F. Egidi, J. Goings, B. Peng, A. Petrone, 
 T. Henderson, D. Ranasinghe, V. G. Zakrzewski, J. Gao, N. Rega, 
 G. Zheng, W. Liang, M. Hada, M. Ehara, K. Toyota, R. Fukuda, 
 J. Hasegawa, M. Ishida, T. Nakajima, Y. Honda, O. Kitao, H. Nakai, 
 T. Vreven, K. Throssell, J. A. Montgomery, Jr., J. E. Peralta, 
 F. Ogliaro, M. J. Bearpark, J. J. Heyd, E. N. Brothers, K. N. Kudin, 
 V. N. Staroverov, T. A. Keith, R. Kobayashi, J. Normand, 
 K. Raghavachari, A. P. Rendell, J. C. Burant, S. S. Iyengar, 
 J. Tomasi, M. Cossi, J. M. Millam, M. Klene, C. Adamo, R. Cammi, 
 J. W. Ochterski, R. L. Martin, K. Morokuma, O. Farkas, 
 J. B. Foresman, and D. J. Fox, Gaussian, Inc., Wallingford CT, 2019.
 
 ******************************************
 Gaussian 16:  ES64L-G16RevC.01  3-Jul-2019
                27-Oct-2021 
 ******************************************
 %mem=100GB
 %nprocshared=8
 Will use up to    8 processors via shared memory.
 ----------------------------------
 # opt=modredundant mp2/aug-cc-pvdz
 ----------------------------------
 1/18=120,19=15,38=1/1,3;
 2/9=110,12=2,17=6,18=5,40=1/2;
 3/5=16,7=10,11=9,25=1,30=1,71=1/1,2,3;
 4//1;
 5/5=2,38=5/2;
 8/6=4,10=1/1;
 9/15=2,16=-3/6;
 10/5=1/2;
 6/7=2,8=2,9=2,10=2/1;
 7/12=2/1,2,3,16;
 1/18=20,19=15/3(2);
 2/9=110/2;
 99//99;
 2/9=110/2;
 3/5=16,7=10,11=9,25=1,30=1,71=1/1,2,3;
 4/5=5,16=3,69=1/1;
 5/5=2,38=5/2;
 8/6=4,10=1/1;
 9/15=2,16=-3/6;
 10/5=1/2;
 7/12=2/1,2,3,16;
 1/18=20,19=15/3(-8);
 2/9=110/2;
 6/7=2,8=2,9=2,10=2/1;
 99/9=10/99;
 -------------
 pBTTT_-80.pdb
 -------------
 Symbolic Z-matrix:
 Charge =  0 Multiplicity = 1
 C                     3.984     0.353    -0.519 
 C                     2.602     0.707    -0.698 
 C                     1.744    -0.098    -0.03 
 C                     4.134    -0.719     0.286 
 H                     4.804     0.882    -0.982 
 S                     2.625    -1.326     0.85 
 H                     5.058    -1.19      0.578 
 C                     0.274    -0.026     0.01 
 S                    -0.533     1.13      1.061 
 C                    -2.087     0.559     0.542 
 C                    -1.961    -0.452    -0.366 
 C                    -0.604    -0.793    -0.674 
 H                    -0.299    -1.56     -1.367 
 S                    -3.516    -1.023    -0.89 
 C                    -4.309     0.135     0.146 
 C                    -3.448     0.905     0.843 
 H                    -5.385     0.173     0.175 
 H                    -3.753     1.675     1.532 
 O                     2.184     1.737    -1.462 
 H                     2.916     2.207    -1.823 
 
 The following ModRedundant input section has been read:
 D       2       3       8       9 F                                           
 

 GradGradGradGradGradGradGradGradGradGradGradGradGradGradGradGradGradGrad
 Berny optimization.
 Initialization pass.
                           ----------------------------
                           !    Initial Parameters    !
                           ! (Angstroms and Degrees)  !
 --------------------------                            --------------------------
 ! Name  Definition              Value          Derivative Info.                !
 --------------------------------------------------------------------------------
 ! R1    R(1,2)                  1.4378         estimate D2E/DX2                !
 ! R2    R(1,4)                  1.349          estimate D2E/DX2                !
 ! R3    R(1,5)                  1.0801         estimate D2E/DX2                !
 ! R4    R(2,3)                  1.3529         estimate D2E/DX2                !
 ! R5    R(2,19)                 1.3488         estimate D2E/DX2                !
 ! R6    R(3,6)                  1.7489         estimate D2E/DX2                !
 ! R7    R(3,8)                  1.4723         estimate D2E/DX2                !
 ! R8    R(4,6)                  1.7215         estimate D2E/DX2                !
 ! R9    R(4,7)                  1.0774         estimate D2E/DX2                !
 ! R10   R(8,9)                  1.7585         estimate D2E/DX2                !
 ! R11   R(8,12)                 1.3517         estimate D2E/DX2                !
 ! R12   R(9,10)                 1.735          estimate D2E/DX2                !
 ! R13   R(10,11)                1.3647         estimate D2E/DX2                !
 ! R14   R(10,16)                1.4362         estimate D2E/DX2                !
 ! R15   R(11,12)                1.4327         estimate D2E/DX2                !
 ! R16   R(11,14)                1.7374         estimate D2E/DX2                !
 ! R17   R(12,13)                1.0778         estimate D2E/DX2                !
 ! R18   R(14,15)                1.7445         estimate D2E/DX2                !
 ! R19   R(15,16)                1.3491         estimate D2E/DX2                !
 ! R20   R(15,17)                1.0771         estimate D2E/DX2                !
 ! R21   R(16,18)                1.0773         estimate D2E/DX2                !
 ! R22   R(19,20)                0.9418         estimate D2E/DX2                !
 ! A1    A(2,1,4)              112.1376         estimate D2E/DX2                !
 ! A2    A(2,1,5)              123.7639         estimate D2E/DX2                !
 ! A3    A(4,1,5)              124.0973         estimate D2E/DX2                !
 ! A4    A(1,2,3)              113.6784         estimate D2E/DX2                !
 ! A5    A(1,2,19)             123.8073         estimate D2E/DX2                !
 ! A6    A(3,2,19)             122.5135         estimate D2E/DX2                !
 ! A7    A(2,3,6)              110.2897         estimate D2E/DX2                !
 ! A8    A(2,3,8)              128.1341         estimate D2E/DX2                !
 ! A9    A(6,3,8)              121.5762         estimate D2E/DX2                !
 ! A10   A(1,4,6)              112.2247         estimate D2E/DX2                !
 ! A11   A(1,4,7)              127.1915         estimate D2E/DX2                !
 ! A12   A(6,4,7)              120.5836         estimate D2E/DX2                !
 ! A13   A(3,6,4)               91.6695         estimate D2E/DX2                !
 ! A14   A(3,8,9)              120.4371         estimate D2E/DX2                !
 ! A15   A(3,8,12)             127.3764         estimate D2E/DX2                !
 ! A16   A(9,8,12)             112.1717         estimate D2E/DX2                !
 ! A17   A(8,9,10)              90.9115         estimate D2E/DX2                !
 ! A18   A(9,10,11)            111.1083         estimate D2E/DX2                !
 ! A19   A(9,10,16)            134.9747         estimate D2E/DX2                !
 ! A20   A(11,10,16)           113.9168         estimate D2E/DX2                !
 ! A21   A(10,11,12)           114.0044         estimate D2E/DX2                !
 ! A22   A(10,11,14)           111.1921         estimate D2E/DX2                !
 ! A23   A(12,11,14)           134.8022         estimate D2E/DX2                !
 ! A24   A(8,12,11)            111.802          estimate D2E/DX2                !
 ! A25   A(8,12,13)            123.0512         estimate D2E/DX2                !
 ! A26   A(11,12,13)           125.1461         estimate D2E/DX2                !
 ! A27   A(11,14,15)            90.5489         estimate D2E/DX2                !
 ! A28   A(14,15,16)           113.3026         estimate D2E/DX2                !
 ! A29   A(14,15,17)           119.574          estimate D2E/DX2                !
 ! A30   A(16,15,17)           127.1234         estimate D2E/DX2                !
 ! A31   A(10,16,15)           111.0396         estimate D2E/DX2                !
 ! A32   A(10,16,18)           125.0654         estimate D2E/DX2                !
 ! A33   A(15,16,18)           123.895          estimate D2E/DX2                !
 ! A34   A(2,19,20)            110.9358         estimate D2E/DX2                !
 ! D1    D(4,1,2,3)              0.0091         estimate D2E/DX2                !
 ! D2    D(4,1,2,19)          -179.6591         estimate D2E/DX2                !
 ! D3    D(5,1,2,3)            179.6287         estimate D2E/DX2                !
 ! D4    D(5,1,2,19)            -0.0395         estimate D2E/DX2                !
 ! D5    D(2,1,4,6)             -0.1233         estimate D2E/DX2                !
 ! D6    D(2,1,4,7)            179.6937         estimate D2E/DX2                !
 ! D7    D(5,1,4,6)           -179.7415         estimate D2E/DX2                !
 ! D8    D(5,1,4,7)              0.0756         estimate D2E/DX2                !
 ! D9    D(1,2,3,6)              0.1062         estimate D2E/DX2                !
 ! D10   D(1,2,3,8)           -179.9551         estimate D2E/DX2                !
 ! D11   D(19,2,3,6)           179.7793         estimate D2E/DX2                !
 ! D12   D(19,2,3,8)            -0.282          estimate D2E/DX2                !
 ! D13   D(1,2,19,20)           -2.5735         estimate D2E/DX2                !
 ! D14   D(3,2,19,20)          177.7869         estimate D2E/DX2                !
 ! D15   D(2,3,6,4)             -0.1476         estimate D2E/DX2                !
 ! D16   D(8,3,6,4)            179.909          estimate D2E/DX2                !
 ! D17   D(2,3,8,9)            -79.994          Frozen                          !
 ! D18   D(2,3,8,12)           101.5232         estimate D2E/DX2                !
 ! D19   D(6,3,8,9)             99.9385         estimate D2E/DX2                !
 ! D20   D(6,3,8,12)           -78.5443         estimate D2E/DX2                !
 ! D21   D(1,4,6,3)              0.156          estimate D2E/DX2                !
 ! D22   D(7,4,6,3)           -179.6747         estimate D2E/DX2                !
 ! D23   D(3,8,9,10)          -179.1464         estimate D2E/DX2                !
 ! D24   D(12,8,9,10)           -0.4483         estimate D2E/DX2                !
 ! D25   D(3,8,12,11)          178.9898         estimate D2E/DX2                !
 ! D26   D(3,8,12,13)           -1.3109         estimate D2E/DX2                !
 ! D27   D(9,8,12,11)            0.4023         estimate D2E/DX2                !
 ! D28   D(9,8,12,13)         -179.8983         estimate D2E/DX2                !
 ! D29   D(8,9,10,11)            0.3706         estimate D2E/DX2                !
 ! D30   D(8,9,10,16)         -179.4304         estimate D2E/DX2                !
 ! D31   D(9,10,11,12)          -0.2193         estimate D2E/DX2                !
 ! D32   D(9,10,11,14)        -179.8686         estimate D2E/DX2                !
 ! D33   D(16,10,11,12)        179.6267         estimate D2E/DX2                !
 ! D34   D(16,10,11,14)         -0.0226         estimate D2E/DX2                !
 ! D35   D(9,10,16,15)         179.8522         estimate D2E/DX2                !
 ! D36   D(9,10,16,18)          -0.1544         estimate D2E/DX2                !
 ! D37   D(11,10,16,15)          0.0552         estimate D2E/DX2                !
 ! D38   D(11,10,16,18)       -179.9514         estimate D2E/DX2                !
 ! D39   D(10,11,12,8)          -0.1212         estimate D2E/DX2                !
 ! D40   D(10,11,12,13)       -179.8131         estimate D2E/DX2                !
 ! D41   D(14,11,12,8)         179.4179         estimate D2E/DX2                !
 ! D42   D(14,11,12,13)         -0.2739         estimate D2E/DX2                !
 ! D43   D(10,11,14,15)         -0.0106         estimate D2E/DX2                !
 ! D44   D(12,11,14,15)       -179.559          estimate D2E/DX2                !
 ! D45   D(11,14,15,16)          0.0435         estimate D2E/DX2                !
 ! D46   D(11,14,15,17)       -179.9044         estimate D2E/DX2                !
 ! D47   D(14,15,16,10)         -0.0627         estimate D2E/DX2                !
 ! D48   D(14,15,16,18)        179.9439         estimate D2E/DX2                !
 ! D49   D(17,15,16,10)        179.8804         estimate D2E/DX2                !
 ! D50   D(17,15,16,18)         -0.113          estimate D2E/DX2                !
 --------------------------------------------------------------------------------
 Trust Radius=3.00D-01 FncErr=1.00D-07 GrdErr=1.00D-07 EigMax=2.50D+02 EigMin=1.00D-04
 Number of steps in this run=    116 maximum allowed number of steps=    120.
 GradGradGradGradGradGradGradGradGradGradGradGradGradGradGradGradGradGrad

                          Input orientation:                          
 ---------------------------------------------------------------------
 Center     Atomic      Atomic             Coordinates (Angstroms)
 Number     Number       Type             X           Y           Z
 ---------------------------------------------------------------------
      1          6           0        3.984000    0.353000   -0.519000
      2          6           0        2.602000    0.707000   -0.698000
      3          6           0        1.744000   -0.098000   -0.030000
      4          6           0        4.134000   -0.719000    0.286000
      5          1           0        4.804000    0.882000   -0.982000
      6         16           0        2.625000   -1.326000    0.850000
      7          1           0        5.058000   -1.190000    0.578000
      8          6           0        0.274000   -0.026000    0.010000
      9         16           0       -0.533000    1.130000    1.061000
     10          6           0       -2.087000    0.559000    0.542000
     11          6           0       -1.961000   -0.452000   -0.366000
     12          6           0       -0.604000   -0.793000   -0.674000
     13          1           0       -0.299000   -1.560000   -1.367000
     14         16           0       -3.516000   -1.023000   -0.890000
     15          6           0       -4.309000    0.135000    0.146000
     16          6           0       -3.448000    0.905000    0.843000
     17          1           0       -5.385000    0.173000    0.175000
     18          1           0       -3.753000    1.675000    1.532000
     19          8           0        2.184000    1.737000   -1.462000
     20          1           0        2.916000    2.207000   -1.823000
 ---------------------------------------------------------------------
                    Distance matrix (angstroms):
                    1          2          3          4          5
     1  C    0.000000
     2  C    1.437804   0.000000
     3  C    2.336690   1.352928   0.000000
     4  C    1.348966   2.312738   2.489497   0.000000
     5  H    1.080097   2.227125   3.351165   2.149401   0.000000
     6  S    2.557359   2.555371   1.748870   1.721519   3.602711
     7  H    2.176634   3.355402   3.541853   1.077442   2.606012
     8  C    3.766641   2.541286   1.472306   3.931415   4.725402
     9  S    4.848032   3.619563   2.807667   5.079401   5.720046
    10  C    6.166457   4.852445   3.928790   6.356073   7.064898
    11  C    6.001205   4.719584   3.737009   6.135586   6.922733
    12  C    4.731499   3.539634   2.531969   4.834844   5.669828
    13  H    4.766840   3.742012   2.845850   4.805328   5.670291
    14  S    7.634200   6.360793   5.409512   7.745831   8.535800
    15  C    8.322475   6.985803   6.060039   8.487235   9.212880
    16  C    7.575907   6.246310   5.359571   7.773953   8.451429
    17  H    9.396393   8.052295   7.137094   9.561346  10.278962
    18  H    8.112672   6.804113   5.983342   8.335978   8.953842
    19  O    2.458598   1.348822   2.368850   3.590256   2.797468
    20  H    2.505665   1.901110   3.146658   3.806952   2.455087
                    6          7          8          9         10
     6  S    0.000000
     7  H    2.451932   0.000000
     8  C    2.814747   4.956226   0.000000
     9  S    4.006173   6.072476   1.758461   0.000000
    10  C    5.084391   7.356040   2.489894   1.735027   0.000000
    11  C    4.824306   7.120544   2.306096   2.564807   1.364720
    12  C    3.610139   5.812345   1.351676   2.590983   2.346455
    13  H    3.676904   5.711162   2.139536   3.631259   3.366212
    14  S    6.389937   8.700367   4.020959   4.164144   2.568149
    15  C    7.121130   9.470108   4.587843   4.010664   2.296492
    16  C    6.469833   8.764205   3.926058   2.931787   1.436189
    17  H    8.176963  10.539280   5.664901   5.024216   3.340732
    18  H    7.081667   9.314079   4.628889   3.299586   2.236317
    19  O    3.862874   4.581354   2.987148   3.757135   4.862627
    20  H    4.439786   4.678950   3.914887   4.623093   5.774005
                   11         12         13         14         15
    11  C    0.000000
    12  C    1.432688   0.000000
    13  H    2.234258   1.077758   0.000000
    14  S    1.737424   2.929044   3.296208   0.000000
    15  C    2.473826   3.906483   4.608936   1.744451   0.000000
    16  C    2.348254   3.643189   4.569084   2.593279   1.349085
    17  H    3.522369   4.950951   5.590031   2.461260   1.077061
    18  H    3.367165   4.568770   5.549734   3.633381   2.145165
    19  O    4.813934   3.846399   4.128501   6.358835   6.878308
    20  H    5.742670   4.765564   4.973374   7.257686   7.769863
                   16         17         18         19         20
    16  C    0.000000
    17  H    2.175780   0.000000
    18  H    1.077333   2.600169   0.000000
    19  O    6.142041   7.900356   6.649500   0.000000
    20  H    7.021628   8.777002   7.484291   0.941831   0.000000
 Stoichiometry    C10H6OS3
 Framework group  C1[X(C10H6OS3)]
 Deg. of freedom    54
 Full point group                 C1      NOp   1
 Largest Abelian subgroup         C1      NOp   1
 Largest concise Abelian subgroup C1      NOp   1
                         Standard orientation:                         
 ---------------------------------------------------------------------
 Center     Atomic      Atomic             Coordinates (Angstroms)
 Number     Number       Type             X           Y           Z
 ---------------------------------------------------------------------
      1          6           0       -3.983972    0.353007    0.518933
      2          6           0       -2.601979    0.707108    0.697780
      3          6           0       -1.743972   -0.098085    0.030021
      4          6           0       -4.133961   -0.719262   -0.285711
      5          1           0       -4.803976    0.882133    0.981782
      6         16           0       -2.624957   -1.326400   -0.849553
      7          1           0       -5.057954   -1.190386   -0.577532
      8          6           0       -0.273975   -0.026053   -0.010042
      9         16           0        0.532962    1.129628   -1.061442
     10          6           0        2.086993    0.558845   -0.542296
     11          6           0        1.961048   -0.451861    0.366038
     12          6           0        0.604067   -0.792801    0.674186
     13          1           0        0.299109   -1.559584    1.367446
     14         16           0        3.516080   -1.022641    0.890184
     15          6           0        4.309017    0.135043   -0.146217
     16          6           0        3.447974    0.904788   -0.843446
     17          1           0        5.385015    0.173067   -0.175258
     18          1           0        3.752932    1.674572   -1.532706
     19          8           0       -2.183990    1.737371    1.461431
     20          1           0       -2.915995    2.207467    1.822297
 ---------------------------------------------------------------------
 Rotational constants (GHZ):           1.3104819           0.2603133           0.2510119
 Standard basis: Aug-CC-pVDZ (5D, 7F)
 There are   416 symmetry adapted cartesian basis functions of A   symmetry.
 There are   388 symmetry adapted basis functions of A   symmetry.
   388 basis functions,   782 primitive gaussians,   416 cartesian basis functions
    61 alpha electrons       61 beta electrons
       nuclear repulsion energy      1126.4753942278 Hartrees.
 NAtoms=   20 NActive=   20 NUniq=   20 SFac= 1.00D+00 NAtFMM=   60 NAOKFM=F Big=F
 Integral buffers will be    131072 words long.
 Raffenetti 1 integral format.
 Two-electron integral symmetry is turned on.
 One-electron integrals computed using PRISM.
 NBasis=   388 RedAO= T EigKep=  3.46D-06  NBF=   388
 NBsUse=   388 1.00D-06 EigRej= -1.00D+00 NBFU=   388
 ExpMin= 2.97D-02 ExpMax= 1.11D+05 ExpMxC= 1.07D+03 IAcc=3 IRadAn=         5 AccDes= 0.00D+00
 Harris functional with IExCor=  205 and IRadAn=       5 diagonalized for initial guess.
 HarFok:  IExCor=  205 AccDes= 0.00D+00 IRadAn=         5 IDoV= 1 UseB2=F ITyADJ=14
 ICtDFT=  3500011 ScaDFX=  1.000000  1.000000  1.000000  1.000000
 FoFCou: FMM=F IPFlag=           0 FMFlag=      100000 FMFlg1=           0
         NFxFlg=           0 DoJE=T BraDBF=F KetDBF=T FulRan=T
         wScrn=  0.000000 ICntrl=       500 IOpCl=  0 I1Cent=   200000004 NGrid=           0
         NMat0=    1 NMatS0=      1 NMatT0=    0 NMatD0=    1 NMtDS0=    0 NMtDT0=    0
 Petite list used in FoFCou.
 Requested convergence on RMS density matrix=1.00D-08 within 128 cycles.
 Requested convergence on MAX density matrix=1.00D-06.
 Requested convergence on             energy=1.00D-06.
 No special actions if energy rises.
 SCF Done:  E(RHF) =  -1649.64151043     A.U. after   17 cycles
            NFock= 17  Conv=0.61D-08     -V/T= 2.0000
 ExpMin= 2.97D-02 ExpMax= 1.11D+05 ExpMxC= 1.07D+03 IAcc=3 IRadAn=         5 AccDes= 0.00D+00
 HarFok:  IExCor=  205 AccDes= 0.00D+00 IRadAn=         5 IDoV=-2 UseB2=F ITyADJ=14
 ICtDFT= 12500011 ScaDFX=  1.000000  1.000000  1.000000  1.000000
 GSVD:  LWork=        -884 too small for GESVD, short by        3770 words or        3770 for optimal perf.
 Range of M.O.s used for correlation:    27   388
 NBasis=   388 NAE=    61 NBE=    61 NFC=    26 NFV=     0
 NROrb=    362 NOA=    35 NOB=    35 NVA=   327 NVB=   327

 **** Warning!!: The largest alpha MO coefficient is  0.99161397D+02

 Fully direct method using O(ONN) memory.
 JobTyp=1 Pass  1:  I=  27 to  61 NPSUse=  8 ParTrn=T ParDer=T DoDerP=T.
 Spin components of T(2) and E(2):
     alpha-alpha T2 =       0.1134596142D+00 E2=     -0.2737245546D+00
     alpha-beta  T2 =       0.5538835774D+00 E2=     -0.1420484926D+01
     beta-beta   T2 =       0.1134596142D+00 E2=     -0.2737245546D+00
 ANorm=    0.1334467237D+01
 E2 =    -0.1967934035D+01 EUMP2 =    -0.16516094444692D+04
          IDoAtm=11111111111111111111
          Differentiating once with respect to electric field.
                with respect to dipole field.
          Differentiating once with respect to nuclear coordinates.
 Keep R1 ints in memory in canonical form, NReq=2883857471.
          There are     1 degrees of freedom in the 1st order CPHF.  IDoFFX=0 NUNeed=     1.
 LinEq1:  Iter=  0 NonCon=     1 RMS=2.86D-03 Max=7.88D-02 NDo=     1
 AX will form     1 AO Fock derivatives at one time.
 LinEq1:  Iter=  1 NonCon=     1 RMS=6.77D-04 Max=1.06D-02 NDo=     1
 LinEq1:  Iter=  2 NonCon=     1 RMS=3.46D-04 Max=1.23D-02 NDo=     1
 LinEq1:  Iter=  3 NonCon=     1 RMS=8.98D-05 Max=2.34D-03 NDo=     1
 LinEq1:  Iter=  4 NonCon=     1 RMS=3.65D-05 Max=8.61D-04 NDo=     1
 LinEq1:  Iter=  5 NonCon=     1 RMS=1.47D-05 Max=4.17D-04 NDo=     1
 LinEq1:  Iter=  6 NonCon=     1 RMS=6.53D-06 Max=2.77D-04 NDo=     1
 LinEq1:  Iter=  7 NonCon=     1 RMS=2.76D-06 Max=5.11D-05 NDo=     1
 LinEq1:  Iter=  8 NonCon=     1 RMS=1.09D-06 Max=3.28D-05 NDo=     1
 LinEq1:  Iter=  9 NonCon=     1 RMS=4.12D-07 Max=1.06D-05 NDo=     1
 LinEq1:  Iter= 10 NonCon=     1 RMS=1.59D-07 Max=3.52D-06 NDo=     1
 LinEq1:  Iter= 11 NonCon=     1 RMS=6.26D-08 Max=3.08D-06 NDo=     1
 LinEq1:  Iter= 12 NonCon=     1 RMS=2.29D-08 Max=6.75D-07 NDo=     1
 LinEq1:  Iter= 13 NonCon=     1 RMS=9.21D-09 Max=2.62D-07 NDo=     1
 LinEq1:  Iter= 14 NonCon=     1 RMS=3.12D-09 Max=5.88D-08 NDo=     1
 LinEq1:  Iter= 15 NonCon=     1 RMS=1.13D-09 Max=1.87D-08 NDo=     1
 LinEq1:  Iter= 16 NonCon=     1 RMS=3.80D-10 Max=6.65D-09 NDo=     1
 LinEq1:  Iter= 17 NonCon=     1 RMS=1.44D-10 Max=2.19D-09 NDo=     1
 LinEq1:  Iter= 18 NonCon=     1 RMS=5.30D-11 Max=1.27D-09 NDo=     1
 LinEq1:  Iter= 19 NonCon=     0 RMS=2.10D-11 Max=7.28D-10 NDo=     1
 Linear equations converged to 1.000D-10 1.000D-09 after    19 iterations.
 End of Minotr F.D. properties file   721 does not exist.
 End of Minotr F.D. properties file   722 does not exist.
 End of Minotr F.D. properties file   788 does not exist.

 **********************************************************************

            Population analysis using the SCF Density.

 **********************************************************************

 Orbital symmetries:
       Occupied  (A) (A) (A) (A) (A) (A) (A) (A) (A) (A) (A) (A)
                 (A) (A) (A) (A) (A) (A) (A) (A) (A) (A) (A) (A)
                 (A) (A) (A) (A) (A) (A) (A) (A) (A) (A) (A) (A)
                 (A) (A) (A) (A) (A) (A) (A) (A) (A) (A) (A) (A)
                 (A) (A) (A) (A) (A) (A) (A) (A) (A) (A) (A) (A)
                 (A)
       Virtual   (A) (A) (A) (A) (A) (A) (A) (A) (A) (A) (A) (A)
                 (A) (A) (A) (A) (A) (A) (A) (A) (A) (A) (A) (A)
                 (A) (A) (A) (A) (A) (A) (A) (A) (A) (A) (A) (A)
                 (A) (A) (A) (A) (A) (A) (A) (A) (A) (A) (A) (A)
                 (A) (A) (A) (A) (A) (A) (A) (A) (A) (A) (A) (A)
                 (A) (A) (A) (A) (A) (A) (A) (A) (A) (A) (A) (A)
                 (A) (A) (A) (A) (A) (A) (A) (A) (A) (A) (A) (A)
                 (A) (A) (A) (A) (A) (A) (A) (A) (A) (A) (A) (A)
                 (A) (A) (A) (A) (A) (A) (A) (A) (A) (A) (A) (A)
                 (A) (A) (A) (A) (A) (A) (A) (A) (A) (A) (A) (A)
                 (A) (A) (A) (A) (A) (A) (A) (A) (A) (A) (A) (A)
                 (A) (A) (A) (A) (A) (A) (A) (A) (A) (A) (A) (A)
                 (A) (A) (A) (A) (A) (A) (A) (A) (A) (A) (A) (A)
                 (A) (A) (A) (A) (A) (A) (A) (A) (A) (A) (A) (A)
                 (A) (A) (A) (A) (A) (A) (A) (A) (A) (A) (A) (A)
                 (A) (A) (A) (A) (A) (A) (A) (A) (A) (A) (A) (A)
                 (A) (A) (A) (A) (A) (A) (A) (A) (A) (A) (A) (A)
                 (A) (A) (A) (A) (A) (A) (A) (A) (A) (A) (A) (A)
                 (A) (A) (A) (A) (A) (A) (A) (A) (A) (A) (A) (A)
                 (A) (A) (A) (A) (A) (A) (A) (A) (A) (A) (A) (A)
                 (A) (A) (A) (A) (A) (A) (A) (A) (A) (A) (A) (A)
                 (A) (A) (A) (A) (A) (A) (A) (A) (A) (A) (A) (A)
                 (A) (A) (A) (A) (A) (A) (A) (A) (A) (A) (A) (A)
                 (A) (A) (A) (A) (A) (A) (A) (A) (A) (A) (A) (A)
                 (A) (A) (A) (A) (A) (A) (A) (A) (A) (A) (A) (A)
                 (A) (A) (A) (A) (A) (A) (A) (A) (A) (A) (A) (A)
                 (A) (A) (A) (A) (A) (A) (A) (A) (A) (A) (A) (A)
                 (A) (A) (A)
 The electronic state is 1-A.
 Alpha  occ. eigenvalues --  -91.98979 -91.98651 -91.98383 -20.60919 -11.31766
 Alpha  occ. eigenvalues --  -11.28393 -11.28372 -11.27439 -11.26856 -11.26842
 Alpha  occ. eigenvalues --  -11.26689 -11.25465 -11.25427 -11.25365  -8.99163
 Alpha  occ. eigenvalues --   -8.98835  -8.98548  -6.67329  -6.67237  -6.67039
 Alpha  occ. eigenvalues --   -6.67003  -6.66925  -6.66718  -6.66711  -6.66630
 Alpha  occ. eigenvalues --   -6.66422  -1.42974  -1.21265  -1.18388  -1.12577
 Alpha  occ. eigenvalues --   -1.02814  -1.01999  -0.98606  -0.95678  -0.94201
 Alpha  occ. eigenvalues --   -0.82530  -0.81131  -0.77040  -0.75031  -0.72016
 Alpha  occ. eigenvalues --   -0.69758  -0.66803  -0.66461  -0.62025  -0.60987
 Alpha  occ. eigenvalues --   -0.58448  -0.56379  -0.56048  -0.53672  -0.53295
 Alpha  occ. eigenvalues --   -0.52667  -0.50676  -0.49293  -0.48595  -0.45908
 Alpha  occ. eigenvalues --   -0.45779  -0.38353  -0.34919  -0.32474  -0.31736
 Alpha  occ. eigenvalues --   -0.30007
 Alpha virt. eigenvalues --    0.02779   0.03703   0.03994   0.04911   0.05097
 Alpha virt. eigenvalues --    0.06237   0.07989   0.08460   0.08817   0.08933
 Alpha virt. eigenvalues --    0.09758   0.10297   0.10426   0.10816   0.11427
 Alpha virt. eigenvalues --    0.12366   0.12559   0.12713   0.12999   0.13526
 Alpha virt. eigenvalues --    0.13966   0.14156   0.14454   0.14565   0.14968
 Alpha virt. eigenvalues --    0.15314   0.15883   0.16209   0.16321   0.16928
 Alpha virt. eigenvalues --    0.17038   0.18045   0.18536   0.18796   0.19276
 Alpha virt. eigenvalues --    0.19422   0.19892   0.20624   0.20954   0.21527
 Alpha virt. eigenvalues --    0.21806   0.22306   0.22989   0.23040   0.23459
 Alpha virt. eigenvalues --    0.23920   0.24492   0.24770   0.25184   0.25870
 Alpha virt. eigenvalues --    0.26187   0.27166   0.27398   0.27728   0.28304
 Alpha virt. eigenvalues --    0.29115   0.29615   0.30738   0.31284   0.31667
 Alpha virt. eigenvalues --    0.31939   0.32187   0.32808   0.32999   0.33386
 Alpha virt. eigenvalues --    0.33727   0.34785   0.35158   0.35855   0.36107
 Alpha virt. eigenvalues --    0.36277   0.37130   0.37427   0.38876   0.39617
 Alpha virt. eigenvalues --    0.40115   0.40648   0.40922   0.42242   0.42615
 Alpha virt. eigenvalues --    0.43017   0.43550   0.44865   0.45291   0.45773
 Alpha virt. eigenvalues --    0.46094   0.46732   0.46968   0.48053   0.48822
 Alpha virt. eigenvalues --    0.49536   0.49715   0.50916   0.51616   0.52351
 Alpha virt. eigenvalues --    0.53427   0.53656   0.54230   0.54684   0.55127
 Alpha virt. eigenvalues --    0.55757   0.57194   0.58261   0.58871   0.59274
 Alpha virt. eigenvalues --    0.60319   0.60590   0.61467   0.61653   0.62236
 Alpha virt. eigenvalues --    0.62752   0.63610   0.64449   0.65584   0.65959
 Alpha virt. eigenvalues --    0.66460   0.67229   0.67785   0.67860   0.68494
 Alpha virt. eigenvalues --    0.69334   0.69683   0.70257   0.70817   0.71116
 Alpha virt. eigenvalues --    0.71999   0.72101   0.73054   0.73760   0.74573
 Alpha virt. eigenvalues --    0.74651   0.75369   0.75999   0.76144   0.76723
 Alpha virt. eigenvalues --    0.78216   0.78271   0.78776   0.79160   0.80255
 Alpha virt. eigenvalues --    0.80500   0.81337   0.82580   0.83511   0.84409
 Alpha virt. eigenvalues --    0.84701   0.85140   0.86372   0.86868   0.87283
 Alpha virt. eigenvalues --    0.88413   0.88538   0.89690   0.90727   0.90986
 Alpha virt. eigenvalues --    0.91566   0.92317   0.93809   0.94371   0.95017
 Alpha virt. eigenvalues --    0.95722   0.96360   0.96494   0.97585   0.98868
 Alpha virt. eigenvalues --    0.99521   1.00002   1.00377   1.00802   1.02500
 Alpha virt. eigenvalues --    1.03894   1.05073   1.05993   1.06393   1.07621
 Alpha virt. eigenvalues --    1.09050   1.09236   1.10825   1.11513   1.12574
 Alpha virt. eigenvalues --    1.14034   1.14517   1.16938   1.17543   1.18544
 Alpha virt. eigenvalues --    1.18984   1.22298   1.22375   1.23447   1.23942
 Alpha virt. eigenvalues --    1.24822   1.25225   1.25820   1.26090   1.27870
 Alpha virt. eigenvalues --    1.28516   1.30126   1.31014   1.31243   1.32319
 Alpha virt. eigenvalues --    1.32782   1.34130   1.35122   1.36252   1.37116
 Alpha virt. eigenvalues --    1.38156   1.39235   1.40611   1.41999   1.42945
 Alpha virt. eigenvalues --    1.44170   1.44708   1.45903   1.46940   1.48821
 Alpha virt. eigenvalues --    1.49872   1.53282   1.55192   1.55750   1.56529
 Alpha virt. eigenvalues --    1.57783   1.59196   1.59275   1.60668   1.60882
 Alpha virt. eigenvalues --    1.61651   1.63983   1.64812   1.65650   1.66970
 Alpha virt. eigenvalues --    1.67829   1.68779   1.70155   1.70718   1.71722
 Alpha virt. eigenvalues --    1.73688   1.74538   1.75845   1.76987   1.77691
 Alpha virt. eigenvalues --    1.77838   1.80750   1.81035   1.82231   1.83180
 Alpha virt. eigenvalues --    1.85324   1.88153   1.88782   1.89974   1.90275
 Alpha virt. eigenvalues --    1.91175   1.91777   1.94591   1.95059   1.96846
 Alpha virt. eigenvalues --    1.97751   2.00579   2.03101   2.04035   2.05094
 Alpha virt. eigenvalues --    2.05616   2.06894   2.07980   2.08922   2.09323
 Alpha virt. eigenvalues --    2.10477   2.11949   2.13559   2.14202   2.15854
 Alpha virt. eigenvalues --    2.16468   2.19271   2.20717   2.21791   2.23005
 Alpha virt. eigenvalues --    2.25164   2.25376   2.27509   2.28590   2.29852
 Alpha virt. eigenvalues --    2.31826   2.33827   2.34458   2.35513   2.36770
 Alpha virt. eigenvalues --    2.38454   2.41452   2.43703   2.44257   2.47560
 Alpha virt. eigenvalues --    2.48585   2.48927   2.49374   2.51297   2.52306
 Alpha virt. eigenvalues --    2.55955   2.57527   2.60968   2.62356   2.65748
 Alpha virt. eigenvalues --    2.74983   2.81737   2.84543   2.85770   2.88156
 Alpha virt. eigenvalues --    2.91624   2.93767   2.96763   3.00355   3.03917
 Alpha virt. eigenvalues --    3.10650   3.19406   3.25108   3.25924   3.34095
 Alpha virt. eigenvalues --    3.43960   3.52694   3.56339   3.65455   3.75949
 Alpha virt. eigenvalues --    3.77896   3.80597   3.88083   3.89260   4.23973
 Alpha virt. eigenvalues --    4.26227   4.48587
          Condensed to atoms (all electrons):
               1          2          3          4          5          6
     1  C    7.444692  -1.819476  -0.148754   0.111346  -0.179085  -0.500710
     2  C   -1.819476   9.904980  -1.888379   0.506495   0.201697  -0.266542
     3  C   -0.148754  -1.888379  10.979208  -1.279084  -0.072907   0.136760
     4  C    0.111346   0.506495  -1.279084   6.412341   0.004624   0.380108
     5  H   -0.179085   0.201697  -0.072907   0.004624   1.659562  -0.015324
     6  S   -0.500710  -0.266542   0.136760   0.380108  -0.015324  16.337569
     7  H    0.030755   0.018309   0.079195   0.188897  -0.066485  -0.168290
     8  C    0.553069  -0.389129  -1.798871   0.228077   0.021626  -0.717730
     9  S   -0.004335   0.233801  -0.537812   0.003832   0.000199  -0.011806
    10  C    0.009192   0.036764  -0.394919   0.023235   0.001470  -0.010926
    11  C   -0.031135   0.053717   0.396199  -0.003749  -0.001015   0.088897
    12  C   -0.105764  -0.411913   0.225095  -0.157753  -0.009974   0.354564
    13  H   -0.009828   0.092915  -0.014972   0.008503  -0.000547   0.021683
    14  S    0.001817  -0.011530  -0.055105  -0.002615   0.000116   0.000770
    15  C   -0.002133   0.002616   0.030857   0.000505  -0.000121   0.000403
    16  C    0.004539   0.018146  -0.355615  -0.001988   0.000069  -0.006461
    17  H   -0.000086   0.000495  -0.000698   0.000014  -0.000004   0.000030
    18  H    0.000498  -0.000540  -0.010343  -0.000217   0.000039   0.000183
    19  O    0.132348  -0.762830   0.344815  -0.110475  -0.078251   0.002436
    20  H   -0.117201   0.012968  -0.076559  -0.014601  -0.013200   0.018981
               7          8          9         10         11         12
     1  C    0.030755   0.553069  -0.004335   0.009192  -0.031135  -0.105764
     2  C    0.018309  -0.389129   0.233801   0.036764   0.053717  -0.411913
     3  C    0.079195  -1.798871  -0.537812  -0.394919   0.396199   0.225095
     4  C    0.188897   0.228077   0.003832   0.023235  -0.003749  -0.157753
     5  H   -0.066485   0.021626   0.000199   0.001470  -0.001015  -0.009974
     6  S   -0.168290  -0.717730  -0.011806  -0.010926   0.088897   0.354564
     7  H    1.251756  -0.010121  -0.000291  -0.000268   0.000610   0.005361
     8  C   -0.010121  13.172882   0.241741   0.233768  -1.015140  -4.324156
     9  S   -0.000291   0.241741  16.503341   0.199154  -0.450755  -0.442304
    10  C   -0.000268   0.233768   0.199154  11.074081  -0.579093  -1.869788
    11  C    0.000610  -1.015140  -0.450755  -0.579093  12.169876  -2.847510
    12  C    0.005361  -4.324156  -0.442304  -1.869788  -2.847510  16.220186
    13  H    0.000827   0.111920   0.033886  -0.079718   0.747770  -1.102240
    14  S   -0.000165  -0.258454   0.093986  -0.035560  -0.249975  -0.024442
    15  C    0.000046   0.067912  -0.092058  -0.067196  -0.973735  -0.190319
    16  C   -0.000112  -0.706385  -0.195310  -2.414607  -1.078407   0.571881
    17  H    0.000003   0.006902   0.007367   0.075305  -0.043560   0.025502
    18  H   -0.000018   0.123222   0.010149   0.581115   0.056176  -0.069695
    19  O   -0.001174  -0.081191   0.012277   0.008592  -0.013127   0.106815
    20  H    0.001023   0.033900  -0.003388   0.002123   0.003505  -0.012961
              13         14         15         16         17         18
     1  C   -0.009828   0.001817  -0.002133   0.004539  -0.000086   0.000498
     2  C    0.092915  -0.011530   0.002616   0.018146   0.000495  -0.000540
     3  C   -0.014972  -0.055105   0.030857  -0.355615  -0.000698  -0.010343
     4  C    0.008503  -0.002615   0.000505  -0.001988   0.000014  -0.000217
     5  H   -0.000547   0.000116  -0.000121   0.000069  -0.000004   0.000039
     6  S    0.021683   0.000770   0.000403  -0.006461   0.000030   0.000183
     7  H    0.000827  -0.000165   0.000046  -0.000112   0.000003  -0.000018
     8  C    0.111920  -0.258454   0.067912  -0.706385   0.006902   0.123222
     9  S    0.033886   0.093986  -0.092058  -0.195310   0.007367   0.010149
    10  C   -0.079718  -0.035560  -0.067196  -2.414607   0.075305   0.581115
    11  C    0.747770  -0.249975  -0.973735  -1.078407  -0.043560   0.056176
    12  C   -1.102240  -0.024442  -0.190319   0.571881   0.025502  -0.069695
    13  H    1.699161  -0.038762   0.020520  -0.047345   0.001600  -0.001923
    14  S   -0.038762  15.938749   0.186556  -0.025235  -0.158921  -0.006884
    15  C    0.020520   0.186556   6.923785   0.108306   0.192867  -0.120490
    16  C   -0.047345  -0.025235   0.108306  10.075977   0.046571  -0.608063
    17  H    0.001600  -0.158921   0.192867   0.046571   1.292530  -0.068969
    18  H   -0.001923  -0.006884  -0.120490  -0.608063  -0.068969   1.441351
    19  O   -0.001850   0.000479  -0.000268  -0.003706  -0.000048   0.000211
    20  H    0.001439  -0.000303   0.000282   0.000824   0.000015  -0.000027
              19         20
     1  C    0.132348  -0.117201
     2  C   -0.762830   0.012968
     3  C    0.344815  -0.076559
     4  C   -0.110475  -0.014601
     5  H   -0.078251  -0.013200
     6  S    0.002436   0.018981
     7  H   -0.001174   0.001023
     8  C   -0.081191   0.033900
     9  S    0.012277  -0.003388
    10  C    0.008592   0.002123
    11  C   -0.013127   0.003505
    12  C    0.106815  -0.012961
    13  H   -0.001850   0.001439
    14  S    0.000479  -0.000303
    15  C   -0.000268   0.000282
    16  C   -0.003706   0.000824
    17  H   -0.000048   0.000015
    18  H    0.000211  -0.000027
    19  O    9.025426   0.369451
    20  H    0.369451   0.628903
 Mulliken charges:
               1
     1  C    0.630253
     2  C    0.467437
     3  C    0.441888
     4  C   -0.297497
     5  H   -0.452489
     6  S    0.355406
     7  H   -0.329856
     8  C    0.506159
     9  S    0.398326
    10  C   -0.792724
    11  C   -0.229549
    12  C    0.059414
    13  H   -0.443039
    14  S    0.645478
    15  C   -0.088334
    16  C    0.616921
    17  H   -0.376915
    18  H   -0.325775
    19  O   -0.949931
    20  H    0.164826
 Sum of Mulliken charges =  -0.00000
 Mulliken charges with hydrogens summed into heavy atoms:
               1
     1  C    0.177763
     2  C    0.467437
     3  C    0.441888
     4  C   -0.627352
     6  S    0.355406
     8  C    0.506159
     9  S    0.398326
    10  C   -0.792724
    11  C   -0.229549
    12  C   -0.383625
    14  S    0.645478
    15  C   -0.465248
    16  C    0.291146
    19  O   -0.785105
 Electronic spatial extent (au):  <R**2>=           4302.0040
 Charge=             -0.0000 electrons
 Dipole moment (field-independent basis, Debye):
    X=             -2.2003    Y=              0.8722    Z=              0.7574  Tot=              2.4851
 Quadrupole moment (field-independent basis, Debye-Ang):
   XX=            -76.7338   YY=           -101.6356   ZZ=           -104.2954
   XY=             -0.9945   XZ=             -7.4028   YZ=             -0.0631
 Traceless Quadrupole moment (field-independent basis, Debye-Ang):
   XX=             17.4878   YY=             -7.4140   ZZ=            -10.0738
   XY=             -0.9945   XZ=             -7.4028   YZ=             -0.0631
 Octapole moment (field-independent basis, Debye-Ang**2):
  XXX=            -49.5048  YYY=             16.3425  ZZZ=             11.7405  XYY=            -19.4090
  XXY=             30.1610  XXZ=              5.8820  XZZ=            -11.4872  YZZ=              8.9515
  YYZ=              7.2613  XYZ=            -27.3036
 Hexadecapole moment (field-independent basis, Debye-Ang**3):
 XXXX=          -3976.8242 YYYY=           -682.7354 ZZZZ=           -525.4483 XXXY=              7.4947
 XXXZ=           -106.2671 YYYX=            -41.5388 YYYZ=             24.1398 ZZZX=            -41.5795
 ZZZY=             16.6210 XXYY=           -866.2539 XXZZ=           -886.8942 YYZZ=           -173.4944
 XXYZ=             55.4578 YYXZ=            -39.3260 ZZXY=            -21.6991
 N-N= 1.126475394228D+03 E-N=-6.160421450315D+03  KE= 1.649560457439D+03
 Calling FoFJK, ICntrl=  10002127 FMM=F ISym2X=0 I1Cent= 0 IOpClX= 0 NMat=1 NMatS=1 NMatT=0.
 ***** Axes restored to original set *****
 -------------------------------------------------------------------
 Center     Atomic                   Forces (Hartrees/Bohr)
 Number     Number              X              Y              Z
 -------------------------------------------------------------------
      1        6          -0.014325381    0.024568880   -0.017798803
      2        6           0.039091306    0.011727918   -0.010233893
      3        6          -0.029956143   -0.021927462    0.018934357
      4        6           0.002738391   -0.023696529    0.017804363
      5        1           0.007447643    0.004734708   -0.004145692
      6       16          -0.005074562   -0.004232574    0.003711521
      7        1           0.007462053   -0.005331409    0.003432985
      8        6           0.029652246    0.018097593    0.017234357
      9       16           0.003951384    0.006543822    0.005456499
     10        6          -0.008589210    0.030984368    0.027713951
     11        6           0.009454613   -0.030730329   -0.027652052
     12        6          -0.030216360   -0.017032780   -0.015138896
     13        1           0.003564974   -0.007278512   -0.006569375
     14       16          -0.002826858   -0.005828615   -0.005227956
     15        6          -0.014761598   -0.018083836   -0.016309586
     16        6           0.028174892    0.015357472    0.013799615
     17        1          -0.010244870   -0.000580725   -0.000565905
     18        1          -0.003069162    0.007358442    0.006606743
     19        8          -0.034695399    0.003941105   -0.002085016
     20        1           0.022222044    0.011408463   -0.008967215
 -------------------------------------------------------------------
 Cartesian Forces:  Max     0.039091306 RMS     0.016704189

 GradGradGradGradGradGradGradGradGradGradGradGradGradGradGradGradGradGrad
 Berny optimization.
 FormGI is forming the generalized inverse of G from B-inverse, IUseBI=4.
 Internal  Forces:  Max     0.042827699 RMS     0.009811184
 Search for a local minimum.
 Step number   1 out of a maximum of  116
 All quantities printed in internal units (Hartrees-Bohrs-Radians)
 Mixed Optimization -- RFO/linear search
 Second derivative matrix not updated -- first step.
 ITU=  0
     Eigenvalues ---    0.01448   0.01583   0.01628   0.01692   0.01750
     Eigenvalues ---    0.01760   0.01982   0.02012   0.02060   0.02133
     Eigenvalues ---    0.02216   0.02285   0.02329   0.02369   0.02376
     Eigenvalues ---    0.02441   0.16000   0.16000   0.16000   0.16000
     Eigenvalues ---    0.16000   0.16000   0.22526   0.22566   0.23649
     Eigenvalues ---    0.24763   0.24784   0.24993   0.24999   0.24999
     Eigenvalues ---    0.25000   0.29183   0.29977   0.30346   0.31023
     Eigenvalues ---    0.31305   0.32612   0.35466   0.35983   0.36267
     Eigenvalues ---    0.36305   0.36319   0.36352   0.38875   0.39026
     Eigenvalues ---    0.39467   0.45795   0.50690   0.52566   0.53691
     Eigenvalues ---    0.54285   0.55273   0.595721000.000001000.00000
     Eigenvalues --- 1000.000001000.000001000.000001000.000001000.00000
     Eigenvalues --- 1000.000001000.000001000.000001000.000001000.00000
     Eigenvalues --- 1000.000001000.000001000.000001000.000001000.00000
     Eigenvalues --- 1000.000001000.000001000.000001000.000001000.00000
     Eigenvalues --- 1000.000001000.000001000.000001000.000001000.00000
     Eigenvalues --- 1000.000001000.000001000.000001000.000001000.00000
     Eigenvalues --- 1000.000001000.000001000.000001000.000001000.00000
     Eigenvalues --- 1000.000001000.000001000.000001000.000001000.00000
     Eigenvalues --- 1000.000001000.000001000.000001000.000001000.00000
     Eigenvalues --- 1000.000001000.000001000.000001000.000001000.00000
     Eigenvalues --- 1000.00000
 RFO step:  Lambda=-1.91745654D-02 EMin= 1.44830581D-02
 Linear search not attempted -- first point.
 Iteration  1 RMS(Cart)=  0.02514039 RMS(Int)=  0.00011985
 Iteration  2 RMS(Cart)=  0.00024783 RMS(Int)=  0.00004110
 Iteration  3 RMS(Cart)=  0.00000003 RMS(Int)=  0.00004110
 Iteration  1 RMS(Cart)=  0.00000022 RMS(Int)=  0.00000009
 Variable       Old X    -DE/DX   Delta X   Delta X   Delta X     New X
                                 (Linear)    (Quad)   (Total)
    R1        2.71706  -0.00229   0.00000  -0.00311  -0.00305   2.71401
    R2        2.54918   0.03921   0.00000   0.06941   0.06944   2.61861
    R3        2.04109   0.00975   0.00000   0.02573   0.02573   2.06681
    R4        2.55666   0.03969   0.00000   0.07102   0.07103   2.62770
    R5        2.54890   0.02185   0.00000   0.03820   0.03820   2.58710
    R6        3.30488   0.00286   0.00000   0.00641   0.00636   3.31125
    R7        2.78225  -0.00516   0.00000  -0.01380  -0.01380   2.76846
    R8        3.25320   0.00709   0.00000   0.01824   0.01820   3.27140
    R9        2.03607   0.00966   0.00000   0.02527   0.02527   2.06134
   R10        3.32301   0.00631   0.00000   0.01718   0.01713   3.34014
   R11        2.55430   0.03981   0.00000   0.07069   0.07070   2.62500
   R12        3.27873   0.00584   0.00000   0.01552   0.01548   3.29421
   R13        2.57895   0.04283   0.00000   0.08178   0.08185   2.66080
   R14        2.71400  -0.00259   0.00000  -0.00380  -0.00375   2.71026
   R15        2.70739  -0.00341   0.00000  -0.00559  -0.00552   2.70186
   R16        3.28326   0.00539   0.00000   0.01452   0.01449   3.29775
   R17        2.03667   0.01041   0.00000   0.02727   0.02727   2.06394
   R18        3.29653   0.00657   0.00000   0.01719   0.01714   3.31368
   R19        2.54940   0.03857   0.00000   0.06767   0.06768   2.61708
   R20        2.03535   0.01020   0.00000   0.02665   0.02665   2.06200
   R21        2.03586   0.01035   0.00000   0.02708   0.02708   2.06294
   R22        1.77980   0.02640   0.00000   0.04294   0.04294   1.82274
    A1        1.95717  -0.00188   0.00000  -0.00161  -0.00152   1.95565
    A2        2.16009   0.00101   0.00000   0.00120   0.00115   2.16124
    A3        2.16591   0.00087   0.00000   0.00041   0.00036   2.16627
    A4        1.98406  -0.00415   0.00000  -0.01052  -0.01045   1.97361
    A5        2.16084   0.00732   0.00000   0.02473   0.02469   2.18554
    A6        2.13826  -0.00317   0.00000  -0.01422  -0.01426   2.12401
    A7        1.92492   0.00271   0.00000   0.00897   0.00895   1.93386
    A8        2.23636  -0.00178   0.00000  -0.00607  -0.00606   2.23030
    A9        2.12191  -0.00093   0.00000  -0.00290  -0.00289   2.11902
   A10        1.95869   0.00019   0.00000   0.00076   0.00077   1.95946
   A11        2.21991   0.00153   0.00000   0.00872   0.00872   2.22863
   A12        2.10458  -0.00173   0.00000  -0.00948  -0.00948   2.09510
   A13        1.59993   0.00313   0.00000   0.00239   0.00225   1.60218
   A14        2.10202  -0.00341   0.00000  -0.01225  -0.01224   2.08978
   A15        2.22314  -0.00012   0.00000  -0.00005  -0.00004   2.22310
   A16        1.95776   0.00354   0.00000   0.01236   0.01234   1.97010
   A17        1.58670   0.00170   0.00000  -0.00184  -0.00199   1.58471
   A18        1.93921   0.00161   0.00000   0.00417   0.00414   1.94335
   A19        2.35575   0.00146   0.00000   0.00110   0.00103   2.35679
   A20        1.98822  -0.00307   0.00000  -0.00527  -0.00518   1.98305
   A21        1.98975  -0.00261   0.00000  -0.00350  -0.00339   1.98636
   A22        1.94067   0.00119   0.00000   0.00274   0.00270   1.94337
   A23        2.35274   0.00142   0.00000   0.00075   0.00068   2.35342
   A24        1.95131  -0.00424   0.00000  -0.01122  -0.01113   1.94019
   A25        2.14765   0.00146   0.00000   0.00195   0.00190   2.14955
   A26        2.18421   0.00277   0.00000   0.00927   0.00922   2.19343
   A27        1.58038   0.00250   0.00000   0.00111   0.00099   1.58136
   A28        1.97750   0.00234   0.00000   0.00817   0.00816   1.98566
   A29        2.08696  -0.00246   0.00000  -0.01126  -0.01125   2.07571
   A30        2.21872   0.00011   0.00000   0.00309   0.00309   2.22182
   A31        1.93801  -0.00297   0.00000  -0.00675  -0.00667   1.93134
   A32        2.18280   0.00163   0.00000   0.00419   0.00415   2.18696
   A33        2.16237   0.00134   0.00000   0.00256   0.00252   2.16489
   A34        1.93620  -0.00482   0.00000  -0.02690  -0.02690   1.90929
    D1        0.00016  -0.00011   0.00000  -0.00125  -0.00124  -0.00108
    D2       -3.13564   0.00001   0.00000   0.00146   0.00150  -3.13414
    D3        3.13511  -0.00010   0.00000  -0.00170  -0.00169   3.13342
    D4       -0.00069   0.00003   0.00000   0.00102   0.00105   0.00036
    D5       -0.00215  -0.00003   0.00000  -0.00078  -0.00076  -0.00292
    D6        3.13625  -0.00000   0.00000  -0.00076  -0.00076   3.13548
    D7       -3.13708  -0.00005   0.00000  -0.00034  -0.00031  -3.13739
    D8        0.00132  -0.00002   0.00000  -0.00032  -0.00031   0.00101
    D9        0.00185   0.00020   0.00000   0.00264   0.00264   0.00449
   D10       -3.14081   0.00006   0.00000   0.00556   0.00555  -3.13526
   D11        3.13774   0.00012   0.00000   0.00011   0.00015   3.13790
   D12       -0.00492  -0.00003   0.00000   0.00303   0.00306  -0.00186
   D13       -0.04492   0.00003   0.00000   0.00079   0.00078  -0.04413
   D14        3.10297   0.00016   0.00000   0.00371   0.00371   3.10668
   D15       -0.00258  -0.00020   0.00000  -0.00261  -0.00260  -0.00518
   D16        3.14000  -0.00006   0.00000  -0.00530  -0.00529   3.13471
   D17       -1.39616   0.00063   0.00000   0.00000  -0.00000  -1.39616
   D18        1.77191   0.00019   0.00000  -0.00351  -0.00349   1.76843
   D19        1.74426   0.00047   0.00000   0.00321   0.00319   1.74745
   D20       -1.37086   0.00003   0.00000  -0.00030  -0.00029  -1.37115
   D21        0.00272   0.00013   0.00000   0.00193   0.00192   0.00464
   D22       -3.13592   0.00010   0.00000   0.00187   0.00188  -3.13403
   D23       -3.12669  -0.00034   0.00000  -0.00495  -0.00494  -3.13164
   D24       -0.00782   0.00000   0.00000  -0.00205  -0.00205  -0.00988
   D25        3.12396   0.00029   0.00000   0.00462   0.00463   3.12859
   D26       -0.02288   0.00025   0.00000   0.00270   0.00272  -0.02016
   D27        0.00702  -0.00003   0.00000   0.00166   0.00165   0.00867
   D28       -3.13982  -0.00007   0.00000  -0.00026  -0.00026  -3.14008
   D29        0.00647   0.00002   0.00000   0.00184   0.00184   0.00831
   D30       -3.13165   0.00005   0.00000   0.00167   0.00167  -3.12998
   D31       -0.00383  -0.00002   0.00000  -0.00127  -0.00127  -0.00510
   D32       -3.13930   0.00000   0.00000  -0.00076  -0.00076  -3.14006
   D33        3.13508  -0.00004   0.00000  -0.00113  -0.00113   3.13394
   D34       -0.00039  -0.00001   0.00000  -0.00062  -0.00062  -0.00101
   D35        3.13901  -0.00000   0.00000   0.00089   0.00088   3.13990
   D36       -0.00270  -0.00003   0.00000   0.00010   0.00009  -0.00260
   D37        0.00096   0.00002   0.00000   0.00071   0.00070   0.00166
   D38       -3.14074  -0.00000   0.00000  -0.00009  -0.00009  -3.14084
   D39       -0.00212   0.00006   0.00000  -0.00021  -0.00020  -0.00231
   D40       -3.13833   0.00010   0.00000   0.00179   0.00180  -3.13653
   D41        3.13143   0.00002   0.00000  -0.00088  -0.00087   3.13056
   D42       -0.00478   0.00007   0.00000   0.00111   0.00112  -0.00366
   D43       -0.00018  -0.00001   0.00000   0.00028   0.00027   0.00009
   D44       -3.13390   0.00004   0.00000   0.00096   0.00095  -3.13294
   D45        0.00076   0.00002   0.00000   0.00013   0.00013   0.00089
   D46       -3.13992   0.00000   0.00000   0.00007   0.00006  -3.13986
   D47       -0.00109  -0.00003   0.00000  -0.00049  -0.00050  -0.00159
   D48        3.14061  -0.00001   0.00000   0.00029   0.00028   3.14089
   D49        3.13951  -0.00001   0.00000  -0.00043  -0.00043   3.13907
   D50       -0.00197   0.00001   0.00000   0.00035   0.00035  -0.00163
         Item               Value     Threshold  Converged?
 Maximum Force            0.042826     0.000450     NO 
 RMS     Force            0.009857     0.000300     NO 
 Maximum Displacement     0.083490     0.001800     NO 
 RMS     Displacement     0.025074     0.001200     NO 
 Predicted change in Energy=-9.945009D-03
 GradGradGradGradGradGradGradGradGradGradGradGradGradGradGradGradGradGrad

                          Input orientation:                          
 ---------------------------------------------------------------------
 Center     Atomic      Atomic             Coordinates (Angstroms)
 Number     Number       Type             X           Y           Z
 ---------------------------------------------------------------------
      1          6           0        3.996499    0.370099   -0.526174
      2          6           0        2.617525    0.728487   -0.706814
      3          6           0        1.743012   -0.104907   -0.018178
      4          6           0        4.143530   -0.732187    0.300590
      5          1           0        4.830132    0.902161   -0.993260
      6         16           0        2.622634   -1.336069    0.865470
      7          1           0        5.071109   -1.220165    0.602841
      8          6           0        0.280000   -0.037601    0.017928
      9         16           0       -0.517995    1.130618    1.077460
     10          6           0       -2.084224    0.569091    0.557435
     11          6           0       -1.969023   -0.476047   -0.379034
     12          6           0       -0.618115   -0.827094   -0.688936
     13          1           0       -0.306861   -1.604181   -1.390458
     14         16           0       -3.536898   -1.036536   -0.901502
     15          6           0       -4.323267    0.134894    0.139754
     16          6           0       -3.440817    0.924591    0.857810
     17          1           0       -5.413532    0.172917    0.162488
     18          1           0       -3.748584    1.706608    1.554556
     19          8           0        2.165873    1.767282   -1.475695
     20          1           0        2.919003    2.244040   -1.844283
 ---------------------------------------------------------------------
                    Distance matrix (angstroms):
                    1          2          3          4          5
     1  C    0.000000
     2  C    1.436190   0.000000
     3  C    2.358367   1.390518   0.000000
     4  C    1.385710   2.340326   2.501516   0.000000
     5  H    1.093711   2.237822   3.390470   2.194667   0.000000
     6  S    2.595224   2.595091   1.752236   1.731152   3.652067
     7  H    2.226747   3.395956   3.564505   1.090816   2.666435
     8  C    3.778178   2.564403   1.465004   3.935634   4.754930
     9  S    4.850844   3.629990   2.799838   5.079703   5.739559
    10  C    6.179725   4.871363   3.928529   6.367435   7.093935
    11  C    6.027028   4.753395   3.747955   6.155551   6.964571
    12  C    4.770159   3.590197   2.558591   4.864302   5.724188
    13  H    4.812865   3.802728   2.886686   4.840041   5.729591
    14  S    7.672780   6.405476   5.433750   7.779886   8.589189
    15  C    8.349688   7.017380   6.073070   8.512600   9.255114
    16  C    7.585284   6.260192   5.357173   7.783169   8.475586
    17  H    9.437256   8.097049   7.164212   9.600819  10.334418
    18  H    8.130314   6.826262   5.992721   8.354976   8.985148
    19  O    2.490963   1.369037   2.410033   3.648789   2.842439
    20  H    2.531810   1.918756   3.199245   3.867541   2.485417
                    6          7          8          9         10
     6  S    0.000000
     7  H    2.465245   0.000000
     8  C    2.809321   4.969437   0.000000
     9  S    3.999130   6.081901   1.767524   0.000000
    10  C    5.087145   7.375791   2.499740   1.743219   0.000000
    11  C    4.834434   7.147115   2.325494   2.609258   1.408034
    12  C    3.630108   5.847260   1.389088   2.638714   2.377446
    13  H    3.707160   5.748327   2.186808   3.689759   3.417078
    14  S    6.414963   8.740397   4.051164   4.210299   2.610899
    15  C    7.136942   9.502890   4.608109   4.043619   2.318684
    16  C    6.471173   8.781677   3.933916   2.938295   1.434206
    17  H    8.206777  10.585947   5.699256   5.071552   3.375978
    18  H    7.094023   9.341239   4.651127   3.316036   2.249064
    19  O    3.914138   4.656774   3.007496   3.758602   4.861338
    20  H    4.499753   4.756122   3.954498   4.646423   5.797067
                   11         12         13         14         15
    11  C    0.000000
    12  C    1.429765   0.000000
    13  H    2.249100   1.092189   0.000000
    14  S    1.745093   2.933998   3.315786   0.000000
    15  C    2.486936   3.916670   4.636534   1.753522   0.000000
    16  C    2.378602   3.664488   4.612058   2.636367   1.384899
    17  H    3.546694   4.972019   5.625638   2.473177   1.091164
    18  H    3.416078   4.610069   5.610694   3.688071   2.191394
    19  O    4.830379   3.885918   4.181918   6.380649   6.883553
    20  H    5.782614   4.824716   5.041920   7.302716   7.799703
                   16         17         18         19         20
    16  C    0.000000
    17  H    2.222632   0.000000
    18  H    1.091662   2.657464   0.000000
    19  O    6.131096   7.916629   6.645819   0.000000
    20  H    7.034881   8.817472   7.503176   0.964552   0.000000
 Stoichiometry    C10H6OS3
 Framework group  C1[X(C10H6OS3)]
 Deg. of freedom    54
 Full point group                 C1      NOp   1
 Largest Abelian subgroup         C1      NOp   1
 Largest concise Abelian subgroup C1      NOp   1
                         Standard orientation:                         
 ---------------------------------------------------------------------
 Center     Atomic      Atomic             Coordinates (Angstroms)
 Number     Number       Type             X           Y           Z
 ---------------------------------------------------------------------
      1          6           0       -3.997529    0.365044    0.535826
      2          6           0       -2.618918    0.726583    0.712923
      3          6           0       -1.744125   -0.106449    0.024203
      4          6           0       -4.144014   -0.739222   -0.288389
      5          1           0       -4.831285    0.896374    1.003527
      6         16           0       -2.623053   -1.341185   -0.855139
      7          1           0       -5.071217   -1.229687   -0.587754
      8          6           0       -0.281329   -0.036265   -0.015024
      9         16           0        0.512144    1.131397   -1.078558
     10          6           0        2.080561    0.574096   -0.560586
     11          6           0        1.969380   -0.469360    0.378242
     12          6           0        0.619817   -0.822499    0.691613
     13          1           0        0.311565   -1.598779    1.395351
     14         16           0        3.539445   -1.025616    0.898652
     15          6           0        4.321322    0.145271   -0.146590
     16          6           0        3.435817    0.931719   -0.864451
     17          1           0        5.411459    0.185447   -0.171624
     18          1           0        3.740584    1.712932   -1.563414
     19          8           0       -2.167804    1.767853    1.478764
     20          1           0       -2.921144    2.243842    1.847915
 ---------------------------------------------------------------------
 Rotational constants (GHZ):           1.2744416           0.2586611           0.2492775
 Standard basis: Aug-CC-pVDZ (5D, 7F)
 There are   416 symmetry adapted cartesian basis functions of A   symmetry.
 There are   388 symmetry adapted basis functions of A   symmetry.
   388 basis functions,   782 primitive gaussians,   416 cartesian basis functions
    61 alpha electrons       61 beta electrons
       nuclear repulsion energy      1117.7303639562 Hartrees.
 NAtoms=   20 NActive=   20 NUniq=   20 SFac= 1.00D+00 NAtFMM=   60 NAOKFM=F Big=F
 Integral buffers will be    131072 words long.
 Raffenetti 1 integral format.
 Two-electron integral symmetry is turned on.
 One-electron integrals computed using PRISM.
 NBasis=   388 RedAO= T EigKep=  3.97D-06  NBF=   388
 NBsUse=   388 1.00D-06 EigRej= -1.00D+00 NBFU=   388
 Initial guess from the checkpoint file:  "/tmp/pbs.4766300[95].pbs/Gau-2890837.chk"
 B after Tr=     0.000000    0.000000    0.000000
         Rot=    0.999998    0.001315   -0.000892   -0.000809 Ang=   0.20 deg.
 ExpMin= 2.97D-02 ExpMax= 1.11D+05 ExpMxC= 1.07D+03 IAcc=3 IRadAn=         5 AccDes= 0.00D+00
 Harris functional with IExCor=  205 and IRadAn=       5 diagonalized for initial guess.
 HarFok:  IExCor=  205 AccDes= 0.00D+00 IRadAn=         5 IDoV= 1 UseB2=F ITyADJ=14
 ICtDFT=  3500011 ScaDFX=  1.000000  1.000000  1.000000  1.000000
 FoFCou: FMM=F IPFlag=           0 FMFlag=      100000 FMFlg1=           0
         NFxFlg=           0 DoJE=T BraDBF=F KetDBF=T FulRan=T
         wScrn=  0.000000 ICntrl=       500 IOpCl=  0 I1Cent=   200000004 NGrid=           0
         NMat0=    1 NMatS0=      1 NMatT0=    0 NMatD0=    1 NMtDS0=    0 NMtDT0=    0
 Petite list used in FoFCou.
 Requested convergence on RMS density matrix=1.00D-08 within 128 cycles.
 Requested convergence on MAX density matrix=1.00D-06.
 Requested convergence on             energy=1.00D-06.
 No special actions if energy rises.
 SCF Done:  E(RHF) =  -1649.63222950     A.U. after   14 cycles
            NFock= 14  Conv=0.85D-08     -V/T= 2.0006
 ExpMin= 2.97D-02 ExpMax= 1.11D+05 ExpMxC= 1.07D+03 IAcc=3 IRadAn=         5 AccDes= 0.00D+00
 HarFok:  IExCor=  205 AccDes= 0.00D+00 IRadAn=         5 IDoV=-2 UseB2=F ITyADJ=14
 ICtDFT= 12500011 ScaDFX=  1.000000  1.000000  1.000000  1.000000
 GSVD:  LWork=        -884 too small for GESVD, short by        3770 words or        3770 for optimal perf.
 Range of M.O.s used for correlation:    27   388
 NBasis=   388 NAE=    61 NBE=    61 NFC=    26 NFV=     0
 NROrb=    362 NOA=    35 NOB=    35 NVA=   327 NVB=   327

 **** Warning!!: The largest alpha MO coefficient is  0.98506075D+02

 Fully direct method using O(ONN) memory.
 JobTyp=1 Pass  1:  I=  27 to  61 NPSUse=  8 ParTrn=T ParDer=T DoDerP=T.
 Spin components of T(2) and E(2):
     alpha-alpha T2 =       0.1167830588D+00 E2=     -0.2765271607D+00
     alpha-beta  T2 =       0.5695257077D+00 E2=     -0.1434281364D+01
     beta-beta   T2 =       0.1167830588D+00 E2=     -0.2765271607D+00
 ANorm=    0.1342792547D+01
 E2 =    -0.1987335685D+01 EUMP2 =    -0.16516195651846D+04
          IDoAtm=11111111111111111111
          Differentiating once with respect to electric field.
                with respect to dipole field.
          Differentiating once with respect to nuclear coordinates.
 Keep R1 ints in memory in canonical form, NReq=2883857471.
          There are     1 degrees of freedom in the 1st order CPHF.  IDoFFX=0 NUNeed=     1.
 LinEq1:  Iter=  0 NonCon=     1 RMS=2.90D-03 Max=6.40D-02 NDo=     1
 AX will form     1 AO Fock derivatives at one time.
 LinEq1:  Iter=  1 NonCon=     1 RMS=7.13D-04 Max=1.12D-02 NDo=     1
 LinEq1:  Iter=  2 NonCon=     1 RMS=3.67D-04 Max=1.32D-02 NDo=     1
 LinEq1:  Iter=  3 NonCon=     1 RMS=9.98D-05 Max=2.79D-03 NDo=     1
 LinEq1:  Iter=  4 NonCon=     1 RMS=4.27D-05 Max=1.33D-03 NDo=     1
 LinEq1:  Iter=  5 NonCon=     1 RMS=1.77D-05 Max=4.27D-04 NDo=     1
 LinEq1:  Iter=  6 NonCon=     1 RMS=8.30D-06 Max=4.23D-04 NDo=     1
 LinEq1:  Iter=  7 NonCon=     1 RMS=3.58D-06 Max=5.76D-05 NDo=     1
 LinEq1:  Iter=  8 NonCon=     1 RMS=1.42D-06 Max=4.30D-05 NDo=     1
 LinEq1:  Iter=  9 NonCon=     1 RMS=5.55D-07 Max=1.68D-05 NDo=     1
 LinEq1:  Iter= 10 NonCon=     1 RMS=2.11D-07 Max=5.18D-06 NDo=     1
 LinEq1:  Iter= 11 NonCon=     1 RMS=8.70D-08 Max=4.83D-06 NDo=     1
 LinEq1:  Iter= 12 NonCon=     1 RMS=3.31D-08 Max=8.81D-07 NDo=     1
 LinEq1:  Iter= 13 NonCon=     1 RMS=1.32D-08 Max=3.95D-07 NDo=     1
 LinEq1:  Iter= 14 NonCon=     1 RMS=4.58D-09 Max=9.21D-08 NDo=     1
 LinEq1:  Iter= 15 NonCon=     1 RMS=1.69D-09 Max=2.57D-08 NDo=     1
 LinEq1:  Iter= 16 NonCon=     1 RMS=6.50D-10 Max=1.92D-08 NDo=     1
 LinEq1:  Iter= 17 NonCon=     1 RMS=2.80D-10 Max=9.06D-09 NDo=     1
 LinEq1:  Iter= 18 NonCon=     1 RMS=1.15D-10 Max=3.24D-09 NDo=     1
 LinEq1:  Iter= 19 NonCon=     1 RMS=4.40D-11 Max=1.07D-09 NDo=     1
 LinEq1:  Iter= 20 NonCon=     0 RMS=1.33D-11 Max=3.04D-10 NDo=     1
 Linear equations converged to 1.000D-10 1.000D-09 after    20 iterations.
 End of Minotr F.D. properties file   721 does not exist.
 End of Minotr F.D. properties file   722 does not exist.
 End of Minotr F.D. properties file   788 does not exist.
 Calling FoFJK, ICntrl=  10002127 FMM=F ISym2X=0 I1Cent= 0 IOpClX= 0 NMat=1 NMatS=1 NMatT=0.
 ***** Axes restored to original set *****
 -------------------------------------------------------------------
 Center     Atomic                   Forces (Hartrees/Bohr)
 Number     Number              X              Y              Z
 -------------------------------------------------------------------
      1        6          -0.007623436    0.004138583   -0.002638818
      2        6           0.015123724   -0.002021484    0.001425495
      3        6          -0.006856027   -0.004359667    0.002958343
      4        6           0.001965449   -0.003646008    0.002679171
      5        1           0.000588229   -0.000742653    0.000533559
      6       16           0.000367864    0.004309297   -0.003525096
      7        1          -0.000226073    0.000045218   -0.000033523
      8        6           0.006507063    0.002181898    0.002493791
      9       16          -0.001120658   -0.002613744   -0.003152850
     10        6          -0.006028861    0.006578289    0.005793121
     11        6           0.005863621   -0.006320991   -0.005612356
     12        6          -0.008588277   -0.000831478   -0.000699779
     13        1           0.001235267    0.000569224    0.000449478
     14       16           0.000974993    0.003003145    0.002729498
     15        6          -0.003406704   -0.001815624   -0.001656786
     16        6           0.007032084   -0.000011428    0.000036776
     17        1          -0.000032680   -0.000109565   -0.000107986
     18        1          -0.000889471   -0.000409142   -0.000374884
     19        8          -0.008016178    0.001828178   -0.000946874
     20        1           0.003130069    0.000227953   -0.000350281
 -------------------------------------------------------------------
 Cartesian Forces:  Max     0.015123724 RMS     0.004041430

 GradGradGradGradGradGradGradGradGradGradGradGradGradGradGradGradGradGrad
 Berny optimization.
 Using GEDIIS/GDIIS optimizer.
 FormGI is forming the generalized inverse of G from B-inverse, IUseBI=4.
 Internal  Forces:  Max     0.005257248 RMS     0.001614114
 Search for a local minimum.
 Step number   2 out of a maximum of  116
 All quantities printed in internal units (Hartrees-Bohrs-Radians)
 Mixed Optimization -- RFO/linear search
 Update second derivatives using D2CorX and points    1    2
 DE= -1.01D-02 DEPred=-9.95D-03 R= 1.02D+00
 TightC=F SS=  1.41D+00  RLast= 1.94D-01 DXNew= 5.0454D-01 5.8175D-01
 Trust test= 1.02D+00 RLast= 1.94D-01 DXMaxT set to 5.05D-01
 ITU=  1  0
 Use linear search instead of GDIIS.
     Eigenvalues ---    0.01452   0.01582   0.01626   0.01696   0.01749
     Eigenvalues ---    0.01758   0.01981   0.02011   0.02065   0.02140
     Eigenvalues ---    0.02221   0.02285   0.02328   0.02369   0.02378
     Eigenvalues ---    0.02443   0.15775   0.15999   0.16000   0.16000
     Eigenvalues ---    0.16000   0.16033   0.22503   0.22598   0.23699
     Eigenvalues ---    0.24328   0.24771   0.24908   0.24995   0.25000
     Eigenvalues ---    0.25179   0.29238   0.29943   0.30362   0.31075
     Eigenvalues ---    0.31430   0.32689   0.35371   0.36018   0.36280
     Eigenvalues ---    0.36311   0.36340   0.36652   0.38745   0.39059
     Eigenvalues ---    0.39482   0.45290   0.50499   0.52136   0.53263
     Eigenvalues ---    0.54107   0.55381   0.594301000.000001000.00000
     Eigenvalues --- 1000.000001000.000001000.000001000.000001000.00000
     Eigenvalues --- 1000.000001000.000001000.000001000.000001000.00000
     Eigenvalues --- 1000.000001000.000001000.000001000.000001000.00000
     Eigenvalues --- 1000.000001000.000001000.000001000.000001000.00000
     Eigenvalues --- 1000.000001000.000001000.000001000.000001000.00000
     Eigenvalues --- 1000.000001000.000001000.000001000.000001000.00000
     Eigenvalues --- 1000.000001000.000001000.000001000.000001000.00000
     Eigenvalues --- 1000.000001000.000001000.000001000.000001000.00000
     Eigenvalues --- 1000.000001000.000001000.000001000.000001000.00000
     Eigenvalues --- 1000.000001000.000001000.000001000.000001000.00000
     Eigenvalues --- 1000.00000
 RFO step:  Lambda=-8.53369090D-04 EMin= 1.45150746D-02
 Quartic linear search produced a step of  0.10466.
 Iteration  1 RMS(Cart)=  0.00995896 RMS(Int)=  0.00006757
 Iteration  2 RMS(Cart)=  0.00009042 RMS(Int)=  0.00000906
 Iteration  3 RMS(Cart)=  0.00000000 RMS(Int)=  0.00000906
 Iteration  1 RMS(Cart)=  0.00000317 RMS(Int)=  0.00000135
 Iteration  2 RMS(Cart)=  0.00000174 RMS(Int)=  0.00000150
 Iteration  3 RMS(Cart)=  0.00000095 RMS(Int)=  0.00000170
 Variable       Old X    -DE/DX   Delta X   Delta X   Delta X     New X
                                 (Linear)    (Quad)   (Total)
    R1        2.71401  -0.00526  -0.00032  -0.01436  -0.01468   2.69932
    R2        2.61861   0.00287   0.00727   0.00192   0.00918   2.62780
    R3        2.06681  -0.00014   0.00269  -0.00177   0.00093   2.06774
    R4        2.62770   0.00420   0.00743   0.00460   0.01204   2.63974
    R5        2.58710   0.00390   0.00400   0.00568   0.00968   2.59678
    R6        3.31125  -0.00318   0.00067  -0.01178  -0.01111   3.30014
    R7        2.76846  -0.00154  -0.00144  -0.00406  -0.00550   2.76295
    R8        3.27140  -0.00104   0.00191  -0.00434  -0.00243   3.26897
    R9        2.06134  -0.00022   0.00265  -0.00199   0.00066   2.06200
   R10        3.34014  -0.00110   0.00179  -0.00531  -0.00351   3.33662
   R11        2.62500   0.00381   0.00740   0.00369   0.01108   2.63608
   R12        3.29421  -0.00127   0.00162  -0.00511  -0.00348   3.29072
   R13        2.66080   0.00521   0.00857   0.00702   0.01559   2.67639
   R14        2.71026  -0.00353  -0.00039  -0.00940  -0.00980   2.70046
   R15        2.70186  -0.00346  -0.00058  -0.00894  -0.00952   2.69234
   R16        3.29775  -0.00139   0.00152  -0.00543  -0.00391   3.29384
   R17        2.06394  -0.00034   0.00285  -0.00246   0.00040   2.06434
   R18        3.31368  -0.00132   0.00179  -0.00588  -0.00408   3.30959
   R19        2.61708   0.00250   0.00708   0.00113   0.00821   2.62529
   R20        2.06200   0.00003   0.00279  -0.00130   0.00148   2.06349
   R21        2.06294  -0.00028   0.00283  -0.00226   0.00057   2.06351
   R22        1.82274   0.00269   0.00449   0.00260   0.00710   1.82983
    A1        1.95565   0.00032  -0.00016   0.00186   0.00169   1.95734
    A2        2.16124   0.00096   0.00012   0.00671   0.00683   2.16807
    A3        2.16627  -0.00127   0.00004  -0.00857  -0.00852   2.15775
    A4        1.97361   0.00159  -0.00109   0.00765   0.00656   1.98016
    A5        2.18554   0.00264   0.00258   0.01036   0.01294   2.19848
    A6        2.12401  -0.00423  -0.00149  -0.01801  -0.01950   2.10450
    A7        1.93386  -0.00236   0.00094  -0.01072  -0.00979   1.92407
    A8        2.23030   0.00020  -0.00063   0.00112   0.00047   2.23077
    A9        2.11902   0.00216  -0.00030   0.00958   0.00926   2.12828
   A10        1.95946  -0.00178   0.00008  -0.00872  -0.00864   1.95082
   A11        2.22863   0.00096   0.00091   0.00448   0.00540   2.23402
   A12        2.09510   0.00082  -0.00099   0.00423   0.00324   2.09834
   A13        1.60218   0.00223   0.00024   0.00995   0.01020   1.61238
   A14        2.08978   0.00068  -0.00128   0.00387   0.00259   2.09237
   A15        2.22310   0.00119  -0.00000   0.00554   0.00554   2.22864
   A16        1.97010  -0.00187   0.00129  -0.00935  -0.00806   1.96204
   A17        1.58471   0.00259  -0.00021   0.01096   0.01077   1.59548
   A18        1.94335  -0.00250   0.00043  -0.01101  -0.01057   1.93278
   A19        2.35679   0.00160   0.00011   0.00627   0.00638   2.36317
   A20        1.98305   0.00090  -0.00054   0.00473   0.00419   1.98723
   A21        1.98636   0.00104  -0.00035   0.00507   0.00471   1.99108
   A22        1.94337  -0.00249   0.00028  -0.01063  -0.01033   1.93304
   A23        2.35342   0.00145   0.00007   0.00555   0.00561   2.35904
   A24        1.94019   0.00073  -0.00116   0.00431   0.00314   1.94333
   A25        2.14955  -0.00180   0.00020  -0.01186  -0.01166   2.13788
   A26        2.19343   0.00107   0.00096   0.00754   0.00851   2.20194
   A27        1.58136   0.00228   0.00010   0.00991   0.01002   1.59138
   A28        1.98566  -0.00141   0.00085  -0.00796  -0.00711   1.97855
   A29        2.07571   0.00054  -0.00118   0.00318   0.00200   2.07771
   A30        2.22182   0.00086   0.00032   0.00478   0.00511   2.22692
   A31        1.93134   0.00072  -0.00070   0.00394   0.00324   1.93457
   A32        2.18696   0.00068   0.00043   0.00515   0.00559   2.19254
   A33        2.16489  -0.00140   0.00026  -0.00909  -0.00882   2.15607
   A34        1.90929  -0.00301  -0.00282  -0.01956  -0.02237   1.88692
    D1       -0.00108  -0.00005  -0.00013   0.00143   0.00129   0.00022
    D2       -3.13414  -0.00001   0.00016   0.00215   0.00231  -3.13183
    D3        3.13342  -0.00003  -0.00018   0.00087   0.00069   3.13411
    D4        0.00036   0.00001   0.00011   0.00159   0.00170   0.00206
    D5       -0.00292   0.00001  -0.00008   0.00096   0.00088  -0.00204
    D6        3.13548   0.00002  -0.00008  -0.00091  -0.00099   3.13449
    D7       -3.13739  -0.00002  -0.00003   0.00144   0.00140  -3.13599
    D8        0.00101  -0.00001  -0.00003  -0.00043  -0.00046   0.00054
    D9        0.00449   0.00007   0.00028  -0.00311  -0.00282   0.00167
   D10       -3.13526  -0.00008   0.00058   0.00657   0.00710  -3.12816
   D11        3.13790   0.00007   0.00002  -0.00365  -0.00360   3.13429
   D12       -0.00186  -0.00008   0.00032   0.00603   0.00632   0.00446
   D13       -0.04413   0.00008   0.00008   0.00383   0.00391  -0.04022
   D14        3.10668   0.00009   0.00039   0.00447   0.00486   3.11154
   D15       -0.00518  -0.00006  -0.00027   0.00308   0.00279  -0.00239
   D16        3.13471   0.00008  -0.00055  -0.00589  -0.00646   3.12825
   D17       -1.39616   0.00069  -0.00000   0.00000  -0.00000  -1.39616
   D18        1.76843   0.00034  -0.00036  -0.00354  -0.00392   1.76451
   D19        1.74745   0.00053   0.00033   0.01062   0.01099   1.75844
   D20       -1.37115   0.00018  -0.00003   0.00708   0.00707  -1.36408
   D21        0.00464   0.00003   0.00020  -0.00229  -0.00209   0.00255
   D22       -3.13403   0.00003   0.00020  -0.00058  -0.00039  -3.13442
   D23       -3.13164  -0.00023  -0.00052  -0.00386  -0.00437  -3.13600
   D24       -0.00988   0.00011  -0.00021  -0.00064  -0.00086  -0.01074
   D25        3.12859   0.00022   0.00048   0.00336   0.00384   3.13243
   D26       -0.02016   0.00022   0.00028   0.00152   0.00182  -0.01834
   D27        0.00867  -0.00014   0.00017  -0.00011   0.00006   0.00873
   D28       -3.14008  -0.00014  -0.00003  -0.00195  -0.00197   3.14114
   D29        0.00831  -0.00005   0.00019   0.00120   0.00139   0.00970
   D30       -3.12998  -0.00002   0.00017   0.00127   0.00144  -3.12854
   D31       -0.00510  -0.00001  -0.00013  -0.00148  -0.00161  -0.00671
   D32       -3.14006   0.00002  -0.00008  -0.00040  -0.00047  -3.14053
   D33        3.13394  -0.00003  -0.00012  -0.00152  -0.00164   3.13230
   D34       -0.00101  -0.00000  -0.00006  -0.00044  -0.00050  -0.00151
   D35        3.13990  -0.00003   0.00009   0.00028   0.00038   3.14027
   D36       -0.00260  -0.00003   0.00001   0.00008   0.00008  -0.00252
[...]
 Number     Number       Type             X           Y           Z
 ---------------------------------------------------------------------
      1          6           0       -3.990940    0.376615    0.551831
      2          6           0       -2.619472    0.726407    0.710505
      3          6           0       -1.744977   -0.108149    0.007260
      4          6           0       -4.155956   -0.731214   -0.274497
      5          1           0       -4.824639    0.903411    1.024012
      6         16           0       -2.642744   -1.329899   -0.854191
      7          1           0       -5.087116   -1.217944   -0.565153
      8          6           0       -0.285981   -0.041203   -0.026786
      9         16           0        0.516939    1.133430   -1.068839
     10          6           0        2.085847    0.580169   -0.558830
     11          6           0        1.964270   -0.482491    0.373001
     12          6           0        0.620733   -0.836718    0.674485
     13          1           0        0.294829   -1.616301    1.365951
     14         16           0        3.534620   -1.035581    0.885605
     15          6           0        4.324300    0.143695   -0.136707
     16          6           0        3.435713    0.938981   -0.848918
     17          1           0        5.414340    0.184120   -0.155404
     18          1           0        3.754352    1.726466   -1.534009
     19          8           0       -2.127265    1.762696    1.471558
     20          1           0       -2.875900    2.234921    1.862872
 ---------------------------------------------------------------------
 Rotational constants (GHZ):           1.2818960           0.2589249           0.2491801

 **********************************************************************

            Population analysis using the SCF Density.

 **********************************************************************

 Orbital symmetries:
       Occupied  (A) (A) (A) (A) (A) (A) (A) (A) (A) (A) (A) (A)
                 (A) (A) (A) (A) (A) (A) (A) (A) (A) (A) (A) (A)
                 (A) (A) (A) (A) (A) (A) (A) (A) (A) (A) (A) (A)
                 (A) (A) (A) (A) (A) (A) (A) (A) (A) (A) (A) (A)
                 (A) (A) (A) (A) (A) (A) (A) (A) (A) (A) (A) (A)
                 (A)
       Virtual   (A) (A) (A) (A) (A) (A) (A) (A) (A) (A) (A) (A)
                 (A) (A) (A) (A) (A) (A) (A) (A) (A) (A) (A) (A)
                 (A) (A) (A) (A) (A) (A) (A) (A) (A) (A) (A) (A)
                 (A) (A) (A) (A) (A) (A) (A) (A) (A) (A) (A) (A)
                 (A) (A) (A) (A) (A) (A) (A) (A) (A) (A) (A) (A)
                 (A) (A) (A) (A) (A) (A) (A) (A) (A) (A) (A) (A)
                 (A) (A) (A) (A) (A) (A) (A) (A) (A) (A) (A) (A)
                 (A) (A) (A) (A) (A) (A) (A) (A) (A) (A) (A) (A)
                 (A) (A) (A) (A) (A) (A) (A) (A) (A) (A) (A) (A)
                 (A) (A) (A) (A) (A) (A) (A) (A) (A) (A) (A) (A)
                 (A) (A) (A) (A) (A) (A) (A) (A) (A) (A) (A) (A)
                 (A) (A) (A) (A) (A) (A) (A) (A) (A) (A) (A) (A)
                 (A) (A) (A) (A) (A) (A) (A) (A) (A) (A) (A) (A)
                 (A) (A) (A) (A) (A) (A) (A) (A) (A) (A) (A) (A)
                 (A) (A) (A) (A) (A) (A) (A) (A) (A) (A) (A) (A)
                 (A) (A) (A) (A) (A) (A) (A) (A) (A) (A) (A) (A)
                 (A) (A) (A) (A) (A) (A) (A) (A) (A) (A) (A) (A)
                 (A) (A) (A) (A) (A) (A) (A) (A) (A) (A) (A) (A)
                 (A) (A) (A) (A) (A) (A) (A) (A) (A) (A) (A) (A)
                 (A) (A) (A) (A) (A) (A) (A) (A) (A) (A) (A) (A)
                 (A) (A) (A) (A) (A) (A) (A) (A) (A) (A) (A) (A)
                 (A) (A) (A) (A) (A) (A) (A) (A) (A) (A) (A) (A)
                 (A) (A) (A) (A) (A) (A) (A) (A) (A) (A) (A) (A)
                 (A) (A) (A) (A) (A) (A) (A) (A) (A) (A) (A) (A)
                 (A) (A) (A) (A) (A) (A) (A) (A) (A) (A) (A) (A)
                 (A) (A) (A) (A) (A) (A) (A) (A) (A) (A) (A) (A)
                 (A) (A) (A) (A) (A) (A) (A) (A) (A) (A) (A) (A)
                 (A) (A) (A)
 The electronic state is 1-A.
 Alpha  occ. eigenvalues --  -91.99596 -91.99095 -91.98816 -20.61254 -11.32426
 Alpha  occ. eigenvalues --  -11.29214 -11.28866 -11.28160 -11.27625 -11.27467
 Alpha  occ. eigenvalues --  -11.27449 -11.26293 -11.26156 -11.26148  -8.99713
 Alpha  occ. eigenvalues --   -8.99210  -8.98909  -6.67874  -6.67782  -6.67599
 Alpha  occ. eigenvalues --   -6.67376  -6.67296  -6.67099  -6.67070  -6.66984
 Alpha  occ. eigenvalues --   -6.66788  -1.41343  -1.20131  -1.17513  -1.11567
 Alpha  occ. eigenvalues --   -1.02310  -1.01740  -0.98691  -0.94495  -0.93812
 Alpha  occ. eigenvalues --   -0.82326  -0.80243  -0.76380  -0.73765  -0.71777
 Alpha  occ. eigenvalues --   -0.69344  -0.66290  -0.65820  -0.60891  -0.60156
 Alpha  occ. eigenvalues --   -0.58209  -0.56610  -0.55573  -0.53818  -0.52965
 Alpha  occ. eigenvalues --   -0.52724  -0.50534  -0.49268  -0.48680  -0.45832
 Alpha  occ. eigenvalues --   -0.45405  -0.38488  -0.34846  -0.31847  -0.31716
 Alpha  occ. eigenvalues --   -0.28722
 Alpha virt. eigenvalues --    0.02808   0.03715   0.03972   0.04891   0.05087
 Alpha virt. eigenvalues --    0.06218   0.07654   0.08053   0.08444   0.08866
 Alpha virt. eigenvalues --    0.09111   0.10218   0.10382   0.10760   0.11358
 Alpha virt. eigenvalues --    0.12322   0.12505   0.12725   0.12953   0.13499
 Alpha virt. eigenvalues --    0.13868   0.14154   0.14431   0.14492   0.14946
 Alpha virt. eigenvalues --    0.15303   0.15810   0.16196   0.16315   0.16861
 Alpha virt. eigenvalues --    0.17024   0.17929   0.18471   0.18680   0.19120
 Alpha virt. eigenvalues --    0.19335   0.19818   0.20464   0.20937   0.21415
 Alpha virt. eigenvalues --    0.21749   0.22196   0.22573   0.22972   0.23266
 Alpha virt. eigenvalues --    0.23810   0.24403   0.24676   0.25012   0.25791
 Alpha virt. eigenvalues --    0.26110   0.27049   0.27216   0.27567   0.28308
 Alpha virt. eigenvalues --    0.29158   0.29390   0.30516   0.31290   0.31600
 Alpha virt. eigenvalues --    0.31815   0.32246   0.32600   0.32883   0.33284
 Alpha virt. eigenvalues --    0.33631   0.34633   0.34884   0.35483   0.35922
 Alpha virt. eigenvalues --    0.36223   0.36883   0.37218   0.38601   0.39274
 Alpha virt. eigenvalues --    0.39838   0.40567   0.40721   0.41993   0.42273
 Alpha virt. eigenvalues --    0.42479   0.43091   0.44628   0.44930   0.45388
 Alpha virt. eigenvalues --    0.45754   0.46310   0.46778   0.47758   0.48383
 Alpha virt. eigenvalues --    0.49197   0.49231   0.50611   0.51236   0.52284
 Alpha virt. eigenvalues --    0.53037   0.53377   0.53886   0.54410   0.54618
 Alpha virt. eigenvalues --    0.55408   0.56586   0.57841   0.58513   0.58919
 Alpha virt. eigenvalues --    0.59587   0.59893   0.60976   0.61194   0.61649
 Alpha virt. eigenvalues --    0.62497   0.63203   0.64103   0.65131   0.65743
 Alpha virt. eigenvalues --    0.66189   0.66863   0.67174   0.67510   0.67993
 Alpha virt. eigenvalues --    0.68796   0.69297   0.69602   0.70388   0.70636
 Alpha virt. eigenvalues --    0.71374   0.71875   0.72625   0.73078   0.73932
 Alpha virt. eigenvalues --    0.74089   0.74582   0.75441   0.75647   0.76271
 Alpha virt. eigenvalues --    0.77321   0.77628   0.78239   0.78481   0.79669
 Alpha virt. eigenvalues --    0.80005   0.80618   0.82306   0.83262   0.84379
 Alpha virt. eigenvalues --    0.84574   0.85006   0.85912   0.86656   0.87178
 Alpha virt. eigenvalues --    0.88109   0.88533   0.89503   0.90434   0.90555
 Alpha virt. eigenvalues --    0.91286   0.91895   0.93652   0.93825   0.94233
 Alpha virt. eigenvalues --    0.94834   0.95543   0.96022   0.97057   0.97996
 Alpha virt. eigenvalues --    0.99079   0.99657   1.00283   1.00741   1.02100
 Alpha virt. eigenvalues --    1.03409   1.04805   1.05592   1.05825   1.06247
 Alpha virt. eigenvalues --    1.08469   1.09112   1.10196   1.10361   1.11819
 Alpha virt. eigenvalues --    1.12816   1.13979   1.16365   1.16837   1.17822
 Alpha virt. eigenvalues --    1.18574   1.21422   1.21566   1.22776   1.23614
 Alpha virt. eigenvalues --    1.24257   1.24949   1.25167   1.25961   1.27360
 Alpha virt. eigenvalues --    1.28061   1.29246   1.30430   1.30715   1.31520
 Alpha virt. eigenvalues --    1.32520   1.33732   1.34881   1.35513   1.36497
 Alpha virt. eigenvalues --    1.37699   1.38252   1.40087   1.41114   1.42176
 Alpha virt. eigenvalues --    1.43645   1.44386   1.45796   1.46510   1.48281
 Alpha virt. eigenvalues --    1.49395   1.52375   1.54438   1.55734   1.56326
 Alpha virt. eigenvalues --    1.57710   1.58842   1.59634   1.60136   1.61373
 Alpha virt. eigenvalues --    1.61908   1.63534   1.64634   1.65429   1.66573
 Alpha virt. eigenvalues --    1.67275   1.68402   1.69557   1.70445   1.70956
 Alpha virt. eigenvalues --    1.73271   1.73580   1.75704   1.76010   1.76709
 Alpha virt. eigenvalues --    1.77508   1.80072   1.80740   1.81691   1.82553
 Alpha virt. eigenvalues --    1.84406   1.86946   1.87386   1.89053   1.89626
 Alpha virt. eigenvalues --    1.90565   1.91611   1.93534   1.94627   1.96235
 Alpha virt. eigenvalues --    1.97458   1.99235   2.01827   2.02659   2.04120
 Alpha virt. eigenvalues --    2.05005   2.05787   2.06473   2.07784   2.08400
 Alpha virt. eigenvalues --    2.09488   2.10694   2.12273   2.13201   2.14146
 Alpha virt. eigenvalues --    2.14570   2.17903   2.18747   2.19173   2.21122
 Alpha virt. eigenvalues --    2.22743   2.23603   2.25680   2.26672   2.27534
 Alpha virt. eigenvalues --    2.29907   2.31813   2.32297   2.33512   2.35318
 Alpha virt. eigenvalues --    2.35836   2.39952   2.41399   2.41676   2.44888
 Alpha virt. eigenvalues --    2.46032   2.46609   2.47178   2.48658   2.50220
 Alpha virt. eigenvalues --    2.52839   2.55550   2.56585   2.58760   2.62941
 Alpha virt. eigenvalues --    2.70711   2.77642   2.79707   2.81058   2.83786
 Alpha virt. eigenvalues --    2.86713   2.88247   2.92653   2.95475   3.00234
 Alpha virt. eigenvalues --    3.10533   3.13957   3.21180   3.23679   3.29770
 Alpha virt. eigenvalues --    3.37646   3.45218   3.49718   3.61109   3.75924
 Alpha virt. eigenvalues --    3.77287   3.77469   3.85950   3.89205   4.22269
 Alpha virt. eigenvalues --    4.24512   4.43479
          Condensed to atoms (all electrons):
               1          2          3          4          5          6
     1  C    7.239624  -1.673814  -0.231049   0.286346  -0.044469  -0.445467
     2  C   -1.673814   9.188475  -1.175085   0.313905   0.156819  -0.254433
     3  C   -0.231049  -1.175085  10.158654  -1.097902  -0.059902   0.109330
     4  C    0.286346   0.313905  -1.097902   6.214762  -0.046552   0.354428
     5  H   -0.044469   0.156819  -0.059902  -0.046552   1.547290  -0.013662
     6  S   -0.445467  -0.254433   0.109330   0.354428  -0.013662  16.258728
     7  H   -0.036813   0.018519   0.066879   0.275796  -0.061843  -0.157056
     8  C    0.458380  -0.426497  -1.683333   0.234275   0.018899  -0.658213
     9  S   -0.010083   0.210691  -0.474156   0.002118   0.000051  -0.014810
    10  C    0.003038   0.011433  -0.254839   0.024203   0.001024  -0.004529
    11  C   -0.025120   0.045331   0.337345  -0.006246  -0.000744   0.081855
    12  C   -0.066512  -0.351491   0.075459  -0.146054  -0.008459   0.333748
    13  H   -0.007698   0.074589   0.025141   0.008023  -0.000351   0.018965
    14  S    0.001587  -0.009185  -0.056387  -0.002463   0.000103   0.000652
    15  C   -0.001837   0.002422   0.025205   0.000398  -0.000110   0.000731
    16  C    0.003913   0.010182  -0.326014  -0.001686   0.000038  -0.003220
    17  H   -0.000078   0.000441  -0.000872   0.000010  -0.000005   0.000060
    18  H    0.000423  -0.000854  -0.009113  -0.000181   0.000033   0.000285
    19  O    0.102569  -0.697177   0.300807  -0.090790  -0.069332   0.003865
    20  H   -0.128048   0.028219  -0.050647  -0.015072  -0.011094   0.018327
               7          8          9         10         11         12
     1  C   -0.036813   0.458380  -0.010083   0.003038  -0.025120  -0.066512
     2  C    0.018519  -0.426497   0.210691   0.011433   0.045331  -0.351491
     3  C    0.066879  -1.683333  -0.474156  -0.254839   0.337345   0.075459
     4  C    0.275796   0.234275   0.002118   0.024203  -0.006246  -0.146054
     5  H   -0.061843   0.018899   0.000051   0.001024  -0.000744  -0.008459
     6  S   -0.157056  -0.658213  -0.014810  -0.004529   0.081855   0.333748
     7  H    1.199650  -0.004412  -0.000247   0.000043   0.000187   0.004022
     8  C   -0.004412  11.848459   0.224201   0.197427  -0.977030  -3.205807
     9  S   -0.000247   0.224201  16.393175   0.170133  -0.318306  -0.404953
    10  C    0.000043   0.197427   0.170133  10.023631   0.158425  -1.530676
    11  C    0.000187  -0.977030  -0.318306   0.158425  10.755706  -2.619384
    12  C    0.004022  -3.205807  -0.404953  -1.530676  -2.619384  14.440876
    13  H    0.000777   0.070606   0.031049  -0.079201   0.620098  -0.872982
    14  S   -0.000156  -0.219053   0.083953  -0.006922  -0.190697  -0.086491
    15  C    0.000039   0.063803  -0.086038  -0.151252  -0.761762  -0.158705
    16  C   -0.000095  -0.583200  -0.247671  -2.391204  -0.872564   0.600141
    17  H    0.000002   0.007362   0.005137   0.054965  -0.031209   0.022614
    18  H   -0.000016   0.108354   0.010506   0.510336   0.032811  -0.059458
    19  O   -0.001356  -0.059157   0.011976   0.011798  -0.014866   0.092245
    20  H    0.000952   0.020814  -0.002570   0.001563   0.003560  -0.011272
              13         14         15         16         17         18
     1  C   -0.007698   0.001587  -0.001837   0.003913  -0.000078   0.000423
     2  C    0.074589  -0.009185   0.002422   0.010182   0.000441  -0.000854
     3  C    0.025141  -0.056387   0.025205  -0.326014  -0.000872  -0.009113
     4  C    0.008023  -0.002463   0.000398  -0.001686   0.000010  -0.000181
     5  H   -0.000351   0.000103  -0.000110   0.000038  -0.000005   0.000033
     6  S    0.018965   0.000652   0.000731  -0.003220   0.000060   0.000285
     7  H    0.000777  -0.000156   0.000039  -0.000095   0.000002  -0.000016
     8  C    0.070606  -0.219053   0.063803  -0.583200   0.007362   0.108354
     9  S    0.031049   0.083953  -0.086038  -0.247671   0.005137   0.010506
    10  C   -0.079201  -0.006922  -0.151252  -2.391204   0.054965   0.510336
    11  C    0.620098  -0.190697  -0.761762  -0.872564  -0.031209   0.032811
    12  C   -0.872982  -0.086491  -0.158705   0.600141   0.022614  -0.059458
    13  H    1.574043  -0.034233   0.019436  -0.045224   0.001458  -0.002007
    14  S   -0.034233  15.848057   0.185268  -0.013524  -0.150738  -0.003805
    15  C    0.019436   0.185268   6.544758   0.302453   0.282453  -0.133233
    16  C   -0.045224  -0.013524   0.302453   9.464866  -0.021340  -0.454166
    17  H    0.001458  -0.150738   0.282453  -0.021340   1.240996  -0.060832
    18  H   -0.002007  -0.003805  -0.133233  -0.454166  -0.060832   1.354748
    19  O   -0.001426   0.000432  -0.000336  -0.003552  -0.000045   0.000184
    20  H    0.001115  -0.000276   0.000297   0.000718   0.000016  -0.000024
              19         20
     1  C    0.102569  -0.128048
     2  C   -0.697177   0.028219
     3  C    0.300807  -0.050647
     4  C   -0.090790  -0.015072
     5  H   -0.069332  -0.011094
     6  S    0.003865   0.018327
     7  H   -0.001356   0.000952
     8  C   -0.059157   0.020814
     9  S    0.011976  -0.002570
    10  C    0.011798   0.001563
    11  C   -0.014866   0.003560
    12  C    0.092245  -0.011272
    13  H   -0.001426   0.001115
    14  S    0.000432  -0.000276
    15  C   -0.000336   0.000297
    16  C   -0.003552   0.000718
    17  H   -0.000045   0.000016
    18  H    0.000184  -0.000024
    19  O    9.040705   0.356756
    20  H    0.356756   0.597741
 Mulliken charges:
               1
     1  C    0.575108
     2  C    0.527510
     3  C    0.320479
     4  C   -0.307317
     5  H   -0.407735
     6  S    0.370418
     7  H   -0.304871
     8  C    0.564121
     9  S    0.415844
    10  C   -0.749397
    11  C   -0.217391
    12  C   -0.046862
    13  H   -0.402178
    14  S    0.653876
    15  C   -0.133989
    16  C    0.581148
    17  H   -0.350397
    18  H   -0.293991
    19  O   -0.983299
    20  H    0.188926
 Sum of Mulliken charges =  -0.00000
 Mulliken charges with hydrogens summed into heavy atoms:
               1
     1  C    0.167372
     2  C    0.527510
     3  C    0.320479
     4  C   -0.612189
     6  S    0.370418
     8  C    0.564121
     9  S    0.415844
    10  C   -0.749397
    11  C   -0.217391
    12  C   -0.449040
    14  S    0.653876
    15  C   -0.484386
    16  C    0.287157
    19  O   -0.794374
 Electronic spatial extent (au):  <R**2>=           4335.0891
 Charge=              0.0000 electrons
 Dipole moment (field-independent basis, Debye):
    X=             -2.2028    Y=              0.7347    Z=              0.7365  Tot=              2.4361
 Quadrupole moment (field-independent basis, Debye-Ang):
   XX=            -77.1851   YY=           -101.5535   ZZ=           -104.4991
   XY=             -0.7105   XZ=             -7.1589   YZ=             -0.1540
 Traceless Quadrupole moment (field-independent basis, Debye-Ang):
   XX=             17.2275   YY=             -7.1410   ZZ=            -10.0865
   XY=             -0.7105   XZ=             -7.1589   YZ=             -0.1540
 Octapole moment (field-independent basis, Debye-Ang**2):
  XXX=            -48.5947  YYY=             15.6664  ZZZ=             11.7620  XYY=            -19.1385
  XXY=             28.5168  XXZ=              7.5406  XZZ=            -11.9095  YZZ=              9.4384
  YYZ=              7.3770  XYZ=            -29.1632
 Hexadecapole moment (field-independent basis, Debye-Ang**3):
 XXXX=          -4013.7526 YYYY=           -698.4055 ZZZZ=           -530.9678 XXXY=             12.8893
 XXXZ=           -101.5517 YYYX=            -39.7209 YYYZ=             23.7631 ZZZX=            -39.6766
 ZZZY=             17.9593 XXYY=           -874.3047 XXZZ=           -896.2472 YYZZ=           -175.3636
 XXYZ=             56.1726 YYXZ=            -40.1000 ZZXY=            -23.1591
 N-N= 1.118582416119D+03 E-N=-6.143781340635D+03  KE= 1.648679104156D+03
 Unable to Open any file for archive entry.
 1\1\GINC-CX3-12-21\FOpt\RMP2-FC\Aug-CC-pVDZ\C10H6O1S3\NS5018\27-Oct-20
 21\0\\# opt=modredundant mp2/aug-cc-pvdz\\pBTTT_-80.pdb\\0,1\C,3.99332
 4857,0.3750996569,-0.5333123279\C,2.6225409798,0.7266253141,-0.6940584
 977\C,1.7454444582,-0.111617822,0.0015200987\C,4.155207274,-0.73774629
 96,0.2868708435\H,4.8287506005,0.9042302813,-0.9997972989\S,2.63990524
 17,-1.3390155579,0.858370513\H,5.085207054,-1.2267423559,0.5774378796\
 C,0.2863893456,-0.0440357631,0.0315310888\S,-0.5190414784,1.1248060507
 ,1.0781478976\C,-2.0866989456,0.5755091856,0.5600729937\C,-1.962880454
 7,-0.4816280643,-0.3777256229\C,-0.6186306085,-0.8348200105,-0.6772383
 482\H,-0.2910585928,-1.6104413563,-1.3723631439\S,-3.5319718046,-1.030
 7381278,-0.8983994044\C,-4.3241005477,0.1428573404,0.1285448975\C,-3.4
 372411231,0.9333579826,0.8481979015\H,-5.4141694037,0.1837985572,0.144
 1700132\H,-3.7575232142,1.7169148521,1.537016444\O,2.1332308252,1.7677
 303215,-1.4503909287\H,2.8833155373,2.241855815,-1.8365949986\\Version
 =ES64L-G16RevC.01\State=1-A\HF=-1649.6296674\MP2=-1651.6202089\RMSD=6.
 706e-09\RMSF=2.841e-04\Dipole=0.6829524,0.2516915,-0.2316756\PG=C01 [X
 (C10H6O1S3)]\\@
 The archive entry for this job was punched.


 A COMPLEXITY IS MERELY A DISARRANGEMENT OF SIMPLICITIES.

                                    -- G. O. ABELL IN "EXPLORATION OF THE UNIVERSE"
 Job cpu time:       0 days  6 hours 22 minutes  9.3 seconds.
 Elapsed time:       0 days  0 hours 52 minutes 56.0 seconds.
 File lengths (MBytes):  RWF=    106 Int=      0 D2E=      0 Chk=     16 Scr=      1
 Normal termination of Gaussian 16 at Wed Oct 27 05:12:15 2021.
