 Entering Gaussian System, Link 0=g16
 Input=pBTTT_-20.gjf
 Output=pBTTT_-20.log
 Initial command:
 /apps/gaussian/g16-c01-avx/g16/l1.exe "/tmp/pbs.4766300[155].pbs/Gau-2901001.inp" -scrdir="/tmp/pbs.4766300[155].pbs/"
 Entering Link 1 = /apps/gaussian/g16-c01-avx/g16/l1.exe PID=   2901002.
  
 Copyright (c) 1988-2019, Gaussian, Inc.  All Rights Reserved.
  
 This is part of the Gaussian(R) 16 program.  It is based on
 the Gaussian(R) 09 system (copyright 2009, Gaussian, Inc.),
 the Gaussian(R) 03 system (copyright 2003, Gaussian, Inc.),
 the Gaussian(R) 98 system (copyright 1998, Gaussian, Inc.),
 the Gaussian(R) 94 system (copyright 1995, Gaussian, Inc.),
 the Gaussian 92(TM) system (copyright 1992, Gaussian, Inc.),
 the Gaussian 90(TM) system (copyright 1990, Gaussian, Inc.),
 the Gaussian 88(TM) system (copyright 1988, Gaussian, Inc.),
 the Gaussian 86(TM) system (copyright 1986, Carnegie Mellon
 University), and the Gaussian 82(TM) system (copyright 1983,
 Carnegie Mellon University). Gaussian is a federally registered
 trademark of Gaussian, Inc.
  
 This software contains proprietary and confidential information,
 including trade secrets, belonging to Gaussian, Inc.
  
 This software is provided under written license and may be
 used, copied, transmitted, or stored only in accord with that
 written license.
  
 The following legend is applicable only to US Government
 contracts under FAR:
  
                    RESTRICTED RIGHTS LEGEND
  
 Use, reproduction and disclosure by the US Government is
 subject to restrictions as set forth in subparagraphs (a)
 and (c) of the Commercial Computer Software - Restricted
 Rights clause in FAR 52.227-19.
  
 Gaussian, Inc.
 340 Quinnipiac St., Bldg. 40, Wallingford CT 06492
  
  
 ---------------------------------------------------------------
 Warning -- This program may not be used in any manner that
 competes with the business of Gaussian, Inc. or will provide
 assistance to any competitor of Gaussian, Inc.  The licensee
 of this program is prohibited from giving any competitor of
 Gaussian, Inc. access to this program.  By using this program,
 the user acknowledges that Gaussian, Inc. is engaged in the
 business of creating and licensing software in the field of
 computational chemistry and represents and warrants to the
 licensee that it is not a competitor of Gaussian, Inc. and that
 it will not use this program in any manner prohibited above.
 ---------------------------------------------------------------
  

 Cite this work as:
 Gaussian 16, Revision C.01,
 M. J. Frisch, G. W. Trucks, H. B. Schlegel, G. E. Scuseria, 
 M. A. Robb, J. R. Cheeseman, G. Scalmani, V. Barone, 
 G. A. Petersson, H. Nakatsuji, X. Li, M. Caricato, A. V. Marenich, 
 J. Bloino, B. G. Janesko, R. Gomperts, B. Mennucci, H. P. Hratchian, 
 J. V. Ortiz, A. F. Izmaylov, J. L. Sonnenberg, D. Williams-Young, 
 F. Ding, F. Lipparini, F. Egidi, J. Goings, B. Peng, A. Petrone, 
 T. Henderson, D. Ranasinghe, V. G. Zakrzewski, J. Gao, N. Rega, 
 G. Zheng, W. Liang, M. Hada, M. Ehara, K. Toyota, R. Fukuda, 
 J. Hasegawa, M. Ishida, T. Nakajima, Y. Honda, O. Kitao, H. Nakai, 
 T. Vreven, K. Throssell, J. A. Montgomery, Jr., J. E. Peralta, 
 F. Ogliaro, M. J. Bearpark, J. J. Heyd, E. N. Brothers, K. N. Kudin, 
 V. N. Staroverov, T. A. Keith, R. Kobayashi, J. Normand, 
 K. Raghavachari, A. P. Rendell, J. C. Burant, S. S. Iyengar, 
 J. Tomasi, M. Cossi, J. M. Millam, M. Klene, C. Adamo, R. Cammi, 
 J. W. Ochterski, R. L. Martin, K. Morokuma, O. Farkas, 
 J. B. Foresman, and D. J. Fox, Gaussian, Inc., Wallingford CT, 2019.
 
 ******************************************
 Gaussian 16:  ES64L-G16RevC.01  3-Jul-2019
                27-Oct-2021 
 ******************************************
 %mem=100GB
 %nprocshared=8
 Will use up to    8 processors via shared memory.
 ----------------------------------
 # opt=modredundant mp2/aug-cc-pvdz
 ----------------------------------
 1/18=120,19=15,38=1/1,3;
 2/9=110,12=2,17=6,18=5,40=1/2;
 3/5=16,7=10,11=9,25=1,30=1,71=1/1,2,3;
 4//1;
 5/5=2,38=5/2;
 8/6=4,10=1/1;
 9/15=2,16=-3/6;
 10/5=1/2;
 6/7=2,8=2,9=2,10=2/1;
 7/12=2/1,2,3,16;
 1/18=20,19=15/3(2);
 2/9=110/2;
 99//99;
 2/9=110/2;
 3/5=16,7=10,11=9,25=1,30=1,71=1/1,2,3;
 4/5=5,16=3,69=1/1;
 5/5=2,38=5/2;
 8/6=4,10=1/1;
 9/15=2,16=-3/6;
 10/5=1/2;
 7/12=2/1,2,3,16;
 1/18=20,19=15/3(-8);
 2/9=110/2;
 6/7=2,8=2,9=2,10=2/1;
 99/9=10/99;
 -------------
 pBTTT_-20.pdb
 -------------
 Symbolic Z-matrix:
 Charge =  0 Multiplicity = 1
 C                    -4.027     0.356     0.122 
 C                    -2.677     0.845     0.173 
 C                    -1.736    -0.117     0.007 
 C                    -4.081    -0.974    -0.084 
 H                    -4.896     0.987     0.239 
 S                    -2.511    -1.669    -0.233 
 H                    -4.96     -1.59     -0.163 
 C                    -0.276    -0.008     0.02 
 S                     0.537     1.533    -0.244 
 C                     2.089     0.762    -0.136 
 C                     1.962    -0.576     0.09 
 C                     0.608    -1.025     0.182 
 H                     0.315    -2.046     0.363 
 S                     3.517    -1.341     0.217 
 C                     4.311     0.191    -0.04 
 C                     3.449     1.215    -0.21 
 H                     5.387     0.237    -0.052 
 H                     3.754     2.235    -0.38 
 O                    -2.362     2.143     0.369 
 H                    -3.138     2.671     0.456 
 
 The following ModRedundant input section has been read:
 D       2       3       8       9 F                                           
 

 GradGradGradGradGradGradGradGradGradGradGradGradGradGradGradGradGradGrad
 Berny optimization.
 Initialization pass.
                           ----------------------------
                           !    Initial Parameters    !
                           ! (Angstroms and Degrees)  !
 --------------------------                            --------------------------
 ! Name  Definition              Value          Derivative Info.                !
 --------------------------------------------------------------------------------
 ! R1    R(1,2)                  1.4367         estimate D2E/DX2                !
 ! R2    R(1,4)                  1.3469         estimate D2E/DX2                !
 ! R3    R(1,5)                  1.0803         estimate D2E/DX2                !
 ! R4    R(2,3)                  1.3559         estimate D2E/DX2                !
 ! R5    R(2,19)                 1.35           estimate D2E/DX2                !
 ! R6    R(3,6)                  1.7513         estimate D2E/DX2                !
 ! R7    R(3,8)                  1.4641         estimate D2E/DX2                !
 ! R8    R(4,6)                  1.7234         estimate D2E/DX2                !
 ! R9    R(4,7)                  1.0763         estimate D2E/DX2                !
 ! R10   R(8,9)                  1.7622         estimate D2E/DX2                !
 ! R11   R(8,12)                 1.3572         estimate D2E/DX2                !
 ! R12   R(9,10)                 1.7363         estimate D2E/DX2                !
 ! R13   R(10,11)                1.3629         estimate D2E/DX2                !
 ! R14   R(10,16)                1.4354         estimate D2E/DX2                !
 ! R15   R(11,12)                1.4295         estimate D2E/DX2                !
 ! R16   R(11,14)                1.7376         estimate D2E/DX2                !
 ! R17   R(12,13)                1.0775         estimate D2E/DX2                !
 ! R18   R(14,15)                1.7446         estimate D2E/DX2                !
 ! R19   R(15,16)                1.3493         estimate D2E/DX2                !
 ! R20   R(15,17)                1.077          estimate D2E/DX2                !
 ! R21   R(16,18)                1.0781         estimate D2E/DX2                !
 ! R22   R(19,20)                0.9426         estimate D2E/DX2                !
 ! A1    A(2,1,4)              112.2824         estimate D2E/DX2                !
 ! A2    A(2,1,5)              123.5873         estimate D2E/DX2                !
 ! A3    A(4,1,5)              124.1301         estimate D2E/DX2                !
 ! A4    A(1,2,3)              113.9713         estimate D2E/DX2                !
 ! A5    A(1,2,19)             123.4804         estimate D2E/DX2                !
 ! A6    A(3,2,19)             122.5482         estimate D2E/DX2                !
 ! A7    A(2,3,6)              109.7805         estimate D2E/DX2                !
 ! A8    A(2,3,8)              129.6533         estimate D2E/DX2                !
 ! A9    A(6,3,8)              120.563          estimate D2E/DX2                !
 ! A10   A(1,4,6)              112.0181         estimate D2E/DX2                !
 ! A11   A(1,4,7)              127.526          estimate D2E/DX2                !
 ! A12   A(6,4,7)              120.4548         estimate D2E/DX2                !
 ! A13   A(3,6,4)               91.9434         estimate D2E/DX2                !
 ! A14   A(3,8,9)              121.5894         estimate D2E/DX2                !
 ! A15   A(3,8,12)             126.4971         estimate D2E/DX2                !
 ! A16   A(9,8,12)             111.8797         estimate D2E/DX2                !
 ! A17   A(8,9,10)              90.8456         estimate D2E/DX2                !
 ! A18   A(9,10,11)            111.2819         estimate D2E/DX2                !
 ! A19   A(9,10,16)            134.7136         estimate D2E/DX2                !
 ! A20   A(11,10,16)           113.9963         estimate D2E/DX2                !
 ! A21   A(10,11,12)           114.0357         estimate D2E/DX2                !
 ! A22   A(10,11,14)           111.1582         estimate D2E/DX2                !
 ! A23   A(12,11,14)           134.802          estimate D2E/DX2                !
 ! A24   A(8,12,11)            111.9565         estimate D2E/DX2                !
 ! A25   A(8,12,13)            123.5709         estimate D2E/DX2                !
 ! A26   A(11,12,13)           124.4719         estimate D2E/DX2                !
 ! A27   A(11,14,15)            90.568          estimate D2E/DX2                !
 ! A28   A(14,15,16)           113.2195         estimate D2E/DX2                !
 ! A29   A(14,15,17)           119.5927         estimate D2E/DX2                !
 ! A30   A(16,15,17)           127.1875         estimate D2E/DX2                !
 ! A31   A(10,16,15)           111.0576         estimate D2E/DX2                !
 ! A32   A(10,16,18)           125.0831         estimate D2E/DX2                !
 ! A33   A(15,16,18)           123.8592         estimate D2E/DX2                !
 ! A34   A(2,19,20)            111.093          estimate D2E/DX2                !
 ! D1    D(4,1,2,3)             -0.0562         estimate D2E/DX2                !
 ! D2    D(4,1,2,19)           179.9917         estimate D2E/DX2                !
 ! D3    D(5,1,2,3)            179.7786         estimate D2E/DX2                !
 ! D4    D(5,1,2,19)            -0.1735         estimate D2E/DX2                !
 ! D5    D(2,1,4,6)             -0.412          estimate D2E/DX2                !
 ! D6    D(2,1,4,7)            179.9651         estimate D2E/DX2                !
 ! D7    D(5,1,4,6)            179.7543         estimate D2E/DX2                !
 ! D8    D(5,1,4,7)              0.1313         estimate D2E/DX2                !
 ! D9    D(1,2,3,6)              0.4829         estimate D2E/DX2                !
 ! D10   D(1,2,3,8)           -178.8552         estimate D2E/DX2                !
 ! D11   D(19,2,3,6)          -179.5645         estimate D2E/DX2                !
 ! D12   D(19,2,3,8)             1.0974         estimate D2E/DX2                !
 ! D13   D(1,2,19,20)           -0.6114         estimate D2E/DX2                !
 ! D14   D(3,2,19,20)          179.4405         estimate D2E/DX2                !
 ! D15   D(2,3,6,4)             -0.6003         estimate D2E/DX2                !
 ! D16   D(8,3,6,4)            178.8079         estimate D2E/DX2                !
 ! D17   D(2,3,8,9)            -20.0252         Frozen                          !
 ! D18   D(2,3,8,12)           162.2637         estimate D2E/DX2                !
 ! D19   D(6,3,8,9)            160.6981         estimate D2E/DX2                !
 ! D20   D(6,3,8,12)           -17.0129         estimate D2E/DX2                !
 ! D21   D(1,4,6,3)              0.5832         estimate D2E/DX2                !
 ! D22   D(7,4,6,3)           -179.7636         estimate D2E/DX2                !
 ! D23   D(3,8,9,10)          -177.7822         estimate D2E/DX2                !
 ! D24   D(12,8,9,10)            0.2351         estimate D2E/DX2                !
 ! D25   D(3,8,12,11)          177.6662         estimate D2E/DX2                !
 ! D26   D(3,8,12,13)           -2.6172         estimate D2E/DX2                !
 ! D27   D(9,8,12,11)           -0.2328         estimate D2E/DX2                !
 ! D28   D(9,8,12,13)          179.4838         estimate D2E/DX2                !
 ! D29   D(8,9,10,11)           -0.1734         estimate D2E/DX2                !
 ! D30   D(8,9,10,16)         -179.0362         estimate D2E/DX2                !
 ! D31   D(9,10,11,12)           0.0769         estimate D2E/DX2                !
 ! D32   D(9,10,11,14)        -179.301          estimate D2E/DX2                !
 ! D33   D(16,10,11,12)        179.1923         estimate D2E/DX2                !
 ! D34   D(16,10,11,14)         -0.1856         estimate D2E/DX2                !
 ! D35   D(9,10,16,15)         179.0552         estimate D2E/DX2                !
 ! D36   D(9,10,16,18)          -1.039          estimate D2E/DX2                !
 ! D37   D(11,10,16,15)          0.2151         estimate D2E/DX2                !
 ! D38   D(11,10,16,18)       -179.879          estimate D2E/DX2                !
 ! D39   D(10,11,12,8)           0.1034         estimate D2E/DX2                !
 ! D40   D(10,11,12,13)       -179.6102         estimate D2E/DX2                !
 ! D41   D(14,11,12,8)         179.2857         estimate D2E/DX2                !
 ! D42   D(14,11,12,13)         -0.4279         estimate D2E/DX2                !
 ! D43   D(10,11,14,15)          0.0859         estimate D2E/DX2                !
 ! D44   D(12,11,14,15)       -179.1134         estimate D2E/DX2                !
 ! D45   D(11,14,15,16)          0.0378         estimate D2E/DX2                !
 ! D46   D(11,14,15,17)       -179.7849         estimate D2E/DX2                !
 ! D47   D(14,15,16,10)         -0.1448         estimate D2E/DX2                !
 ! D48   D(14,15,16,18)        179.948          estimate D2E/DX2                !
 ! D49   D(17,15,16,10)        179.6617         estimate D2E/DX2                !
 ! D50   D(17,15,16,18)         -0.2455         estimate D2E/DX2                !
 --------------------------------------------------------------------------------
 Trust Radius=3.00D-01 FncErr=1.00D-07 GrdErr=1.00D-07 EigMax=2.50D+02 EigMin=1.00D-04
 Number of steps in this run=    116 maximum allowed number of steps=    120.
 GradGradGradGradGradGradGradGradGradGradGradGradGradGradGradGradGradGrad

                          Input orientation:                          
 ---------------------------------------------------------------------
 Center     Atomic      Atomic             Coordinates (Angstroms)
 Number     Number       Type             X           Y           Z
 ---------------------------------------------------------------------
      1          6           0       -4.027000    0.356000    0.122000
      2          6           0       -2.677000    0.845000    0.173000
      3          6           0       -1.736000   -0.117000    0.007000
      4          6           0       -4.081000   -0.974000   -0.084000
      5          1           0       -4.896000    0.987000    0.239000
      6         16           0       -2.511000   -1.669000   -0.233000
      7          1           0       -4.960000   -1.590000   -0.163000
      8          6           0       -0.276000   -0.008000    0.020000
      9         16           0        0.537000    1.533000   -0.244000
     10          6           0        2.089000    0.762000   -0.136000
     11          6           0        1.962000   -0.576000    0.090000
     12          6           0        0.608000   -1.025000    0.182000
     13          1           0        0.315000   -2.046000    0.363000
     14         16           0        3.517000   -1.341000    0.217000
     15          6           0        4.311000    0.191000   -0.040000
     16          6           0        3.449000    1.215000   -0.210000
     17          1           0        5.387000    0.237000   -0.052000
     18          1           0        3.754000    2.235000   -0.380000
     19          8           0       -2.362000    2.143000    0.369000
     20          1           0       -3.138000    2.671000    0.456000
 ---------------------------------------------------------------------
                    Distance matrix (angstroms):
                    1          2          3          4          5
     1  C    0.000000
     2  C    1.436740   0.000000
     3  C    2.342143   1.355906   0.000000
     4  C    1.346942   2.312147   2.498350   0.000000
     5  H    1.080283   2.224518   3.355330   2.148040   0.000000
     6  S    2.554390   2.551977   1.751265   1.723405   3.600742
     7  H    2.176839   3.354729   3.548634   1.076261   2.608952
     8  C    3.770000   2.552610   1.464121   3.927085   4.731003
     9  S    4.727513   3.313160   2.819934   5.257050   5.481687
    10  C    6.134888   4.776728   3.927304   6.409782   6.998677
    11  C    6.061169   4.852469   3.727301   6.058591   7.035434
    12  C    4.836733   3.779974   2.519807   4.696816   5.860496
    13  H    4.967962   4.164858   2.838024   4.546846   6.030670
    14  S    7.733096   6.568574   5.397804   7.612811   8.729183
    15  C    8.341206   7.021768   6.055021   8.472593   9.245556
    16  C    7.532508   6.149103   5.357755   7.842735   8.360180
    17  H    9.416360   8.090018   7.132035   9.545186  10.314420
    18  H    8.020387   6.602702   5.985129   8.471867   8.761459
    19  O    2.454914   1.349980   2.372872   3.588295   2.788260
    20  H    2.502219   1.904438   3.152800   3.803534   2.444076
                    6          7          8          9         10
     6  S    0.000000
     7  H    2.451274   0.000000
     8  C    2.796096   4.947329   0.000000
     9  S    4.420772   6.322713   1.762199   0.000000
    10  C    5.203765   7.431086   2.492080   1.736321   0.000000
    11  C    4.615919   7.000449   2.310015   2.567112   1.362883
    12  C    3.211716   5.607216   1.357199   2.594201   2.342617
    13  H    2.912666   5.320737   2.149506   3.636891   3.358711
    14  S    6.053666   8.489165   4.025239   4.165669   2.566399
    15  C    7.073651   9.441320   4.591707   4.010693   2.296201
    16  C    6.621147   8.864622   3.927372   2.929509   1.435369
    17  H    8.126746  10.507648   5.668755   5.023841   3.340582
    18  H    7.383295   9.519008   4.629465   3.295510   2.236401
    19  O    3.862117   4.579074   3.016620   3.025239   4.687599
    20  H    4.438857   4.675357   3.944386   3.910329   5.596095
                   11         12         13         14         15
    11  C    0.000000
    12  C    1.429469   0.000000
    13  H    2.224419   1.077521   0.000000
    14  S    1.737636   2.926322   3.281942   0.000000
    15  C    2.474468   3.903863   4.597238   1.744566   0.000000
    16  C    2.347094   3.639031   4.558992   2.592313   1.349266
    17  H    3.523033   4.948357   5.577589   2.461574   1.077050
    18  H    3.366584   4.565168   5.541275   3.633229   2.145643
    19  O    5.115445   4.346504   4.971326   6.835496   6.964662
    20  H    6.056977   5.269536   5.846533   7.774464   7.866639
                   16         17         18         19         20
    16  C    0.000000
    17  H    2.176532   0.000000
    18  H    1.078112   2.601207   0.000000
    19  O    5.913049   7.991062   6.162379   0.000000
    20  H    6.778795   8.880205   6.956196   0.942618   0.000000
 Stoichiometry    C10H6OS3
 Framework group  C1[X(C10H6OS3)]
 Deg. of freedom    54
 Full point group                 C1      NOp   1
 Largest Abelian subgroup         C1      NOp   1
 Largest concise Abelian subgroup C1      NOp   1
                         Standard orientation:                         
 ---------------------------------------------------------------------
 Center     Atomic      Atomic             Coordinates (Angstroms)
 Number     Number       Type             X           Y           Z
 ---------------------------------------------------------------------
      1          6           0       -4.026891    0.355766    0.122008
      2          6           0       -2.676900    0.844790    0.173008
      3          6           0       -1.735883   -0.117194    0.007008
      4          6           0       -4.080868   -0.974234   -0.083992
      5          1           0       -4.895902    0.986751    0.239008
      6         16           0       -2.510856   -1.669207   -0.232992
      7          1           0       -4.959858   -1.590250   -0.162992
      8          6           0       -0.275885   -0.008169    0.020008
      9         16           0        0.537088    1.532845   -0.243992
     10          6           0        2.089102    0.761872   -0.135992
     11          6           0        1.962125   -0.576130    0.090008
     12          6           0        0.608132   -1.025153    0.182008
     13          1           0        0.315150   -2.046158    0.363008
     14         16           0        3.517138   -1.341103    0.217008
     15          6           0        4.311111    0.190911   -0.039992
     16          6           0        3.449094    1.214896   -0.209992
     17          1           0        5.387111    0.236929   -0.051992
     18          1           0        3.754076    2.234901   -0.379992
     19          8           0       -2.361922    2.142795    0.369008
     20          1           0       -3.137931    2.670782    0.456008
 ---------------------------------------------------------------------
 Rotational constants (GHZ):           1.3016022           0.2817081           0.2336809
 Standard basis: Aug-CC-pVDZ (5D, 7F)
 There are   416 symmetry adapted cartesian basis functions of A   symmetry.
 There are   388 symmetry adapted basis functions of A   symmetry.
   388 basis functions,   782 primitive gaussians,   416 cartesian basis functions
    61 alpha electrons       61 beta electrons
       nuclear repulsion energy      1130.3326635233 Hartrees.
 NAtoms=   20 NActive=   20 NUniq=   20 SFac= 1.00D+00 NAtFMM=   60 NAOKFM=F Big=F
 Integral buffers will be    131072 words long.
 Raffenetti 1 integral format.
 Two-electron integral symmetry is turned on.
 One-electron integrals computed using PRISM.
 NBasis=   388 RedAO= T EigKep=  2.72D-06  NBF=   388
 NBsUse=   388 1.00D-06 EigRej= -1.00D+00 NBFU=   388
 ExpMin= 2.97D-02 ExpMax= 1.11D+05 ExpMxC= 1.07D+03 IAcc=3 IRadAn=         5 AccDes= 0.00D+00
 Harris functional with IExCor=  205 and IRadAn=       5 diagonalized for initial guess.
 HarFok:  IExCor=  205 AccDes= 0.00D+00 IRadAn=         5 IDoV= 1 UseB2=F ITyADJ=14
 ICtDFT=  3500011 ScaDFX=  1.000000  1.000000  1.000000  1.000000
 FoFCou: FMM=F IPFlag=           0 FMFlag=      100000 FMFlg1=           0
         NFxFlg=           0 DoJE=T BraDBF=F KetDBF=T FulRan=T
         wScrn=  0.000000 ICntrl=       500 IOpCl=  0 I1Cent=   200000004 NGrid=           0
         NMat0=    1 NMatS0=      1 NMatT0=    0 NMatD0=    1 NMtDS0=    0 NMtDT0=    0
 Petite list used in FoFCou.
 Requested convergence on RMS density matrix=1.00D-08 within 128 cycles.
 Requested convergence on MAX density matrix=1.00D-06.
 Requested convergence on             energy=1.00D-06.
 No special actions if energy rises.
 SCF Done:  E(RHF) =  -1649.64252273     A.U. after   17 cycles
            NFock= 17  Conv=0.81D-08     -V/T= 2.0000
 ExpMin= 2.97D-02 ExpMax= 1.11D+05 ExpMxC= 1.07D+03 IAcc=3 IRadAn=         5 AccDes= 0.00D+00
 HarFok:  IExCor=  205 AccDes= 0.00D+00 IRadAn=         5 IDoV=-2 UseB2=F ITyADJ=14
 ICtDFT= 12500011 ScaDFX=  1.000000  1.000000  1.000000  1.000000
 GSVD:  LWork=        -884 too small for GESVD, short by        3770 words or        3770 for optimal perf.
 Range of M.O.s used for correlation:    27   388
 NBasis=   388 NAE=    61 NBE=    61 NFC=    26 NFV=     0
 NROrb=    362 NOA=    35 NOB=    35 NVA=   327 NVB=   327

 **** Warning!!: The largest alpha MO coefficient is  0.85968136D+02

 Fully direct method using O(ONN) memory.
 JobTyp=1 Pass  1:  I=  27 to  61 NPSUse=  8 ParTrn=T ParDer=T DoDerP=T.
 Spin components of T(2) and E(2):
     alpha-alpha T2 =       0.1139135681D+00 E2=     -0.2743101675D+00
     alpha-beta  T2 =       0.5545107111D+00 E2=     -0.1421224485D+01
     beta-beta   T2 =       0.1139135681D+00 E2=     -0.2743101675D+00
 ANorm=    0.1335042264D+01
 E2 =    -0.1969844820D+01 EUMP2 =    -0.16516123675462D+04
          IDoAtm=11111111111111111111
          Differentiating once with respect to electric field.
                with respect to dipole field.
          Differentiating once with respect to nuclear coordinates.
 Keep R1 ints in memory in canonical form, NReq=2883857471.
          There are     1 degrees of freedom in the 1st order CPHF.  IDoFFX=0 NUNeed=     1.
 LinEq1:  Iter=  0 NonCon=     1 RMS=2.87D-03 Max=6.59D-02 NDo=     1
 AX will form     1 AO Fock derivatives at one time.
 LinEq1:  Iter=  1 NonCon=     1 RMS=6.84D-04 Max=1.75D-02 NDo=     1
 LinEq1:  Iter=  2 NonCon=     1 RMS=3.48D-04 Max=1.02D-02 NDo=     1
 LinEq1:  Iter=  3 NonCon=     1 RMS=9.14D-05 Max=2.94D-03 NDo=     1
 LinEq1:  Iter=  4 NonCon=     1 RMS=3.45D-05 Max=6.28D-04 NDo=     1
 LinEq1:  Iter=  5 NonCon=     1 RMS=1.48D-05 Max=7.91D-04 NDo=     1
 LinEq1:  Iter=  6 NonCon=     1 RMS=5.98D-06 Max=2.08D-04 NDo=     1
 LinEq1:  Iter=  7 NonCon=     1 RMS=2.74D-06 Max=1.21D-04 NDo=     1
 LinEq1:  Iter=  8 NonCon=     1 RMS=1.02D-06 Max=3.13D-05 NDo=     1
 LinEq1:  Iter=  9 NonCon=     1 RMS=4.57D-07 Max=1.68D-05 NDo=     1
 LinEq1:  Iter= 10 NonCon=     1 RMS=1.77D-07 Max=3.80D-06 NDo=     1
 LinEq1:  Iter= 11 NonCon=     1 RMS=7.99D-08 Max=3.60D-06 NDo=     1
 LinEq1:  Iter= 12 NonCon=     1 RMS=2.95D-08 Max=5.96D-07 NDo=     1
 LinEq1:  Iter= 13 NonCon=     1 RMS=1.34D-08 Max=3.13D-07 NDo=     1
 LinEq1:  Iter= 14 NonCon=     1 RMS=4.79D-09 Max=1.14D-07 NDo=     1
 LinEq1:  Iter= 15 NonCon=     1 RMS=1.96D-09 Max=6.45D-08 NDo=     1
 LinEq1:  Iter= 16 NonCon=     1 RMS=6.34D-10 Max=1.66D-08 NDo=     1
 LinEq1:  Iter= 17 NonCon=     1 RMS=2.40D-10 Max=6.37D-09 NDo=     1
 LinEq1:  Iter= 18 NonCon=     1 RMS=8.79D-11 Max=1.72D-09 NDo=     1
 LinEq1:  Iter= 19 NonCon=     0 RMS=3.02D-11 Max=6.09D-10 NDo=     1
 Linear equations converged to 1.000D-10 1.000D-09 after    19 iterations.
 End of Minotr F.D. properties file   721 does not exist.
 End of Minotr F.D. properties file   722 does not exist.
 End of Minotr F.D. properties file   788 does not exist.

 **********************************************************************

            Population analysis using the SCF Density.

 **********************************************************************

 Orbital symmetries:
       Occupied  (A) (A) (A) (A) (A) (A) (A) (A) (A) (A) (A) (A)
                 (A) (A) (A) (A) (A) (A) (A) (A) (A) (A) (A) (A)
                 (A) (A) (A) (A) (A) (A) (A) (A) (A) (A) (A) (A)
                 (A) (A) (A) (A) (A) (A) (A) (A) (A) (A) (A) (A)
                 (A) (A) (A) (A) (A) (A) (A) (A) (A) (A) (A) (A)
                 (A)
       Virtual   (A) (A) (A) (A) (A) (A) (A) (A) (A) (A) (A) (A)
                 (A) (A) (A) (A) (A) (A) (A) (A) (A) (A) (A) (A)
                 (A) (A) (A) (A) (A) (A) (A) (A) (A) (A) (A) (A)
                 (A) (A) (A) (A) (A) (A) (A) (A) (A) (A) (A) (A)
                 (A) (A) (A) (A) (A) (A) (A) (A) (A) (A) (A) (A)
                 (A) (A) (A) (A) (A) (A) (A) (A) (A) (A) (A) (A)
                 (A) (A) (A) (A) (A) (A) (A) (A) (A) (A) (A) (A)
                 (A) (A) (A) (A) (A) (A) (A) (A) (A) (A) (A) (A)
                 (A) (A) (A) (A) (A) (A) (A) (A) (A) (A) (A) (A)
                 (A) (A) (A) (A) (A) (A) (A) (A) (A) (A) (A) (A)
                 (A) (A) (A) (A) (A) (A) (A) (A) (A) (A) (A) (A)
                 (A) (A) (A) (A) (A) (A) (A) (A) (A) (A) (A) (A)
                 (A) (A) (A) (A) (A) (A) (A) (A) (A) (A) (A) (A)
                 (A) (A) (A) (A) (A) (A) (A) (A) (A) (A) (A) (A)
                 (A) (A) (A) (A) (A) (A) (A) (A) (A) (A) (A) (A)
                 (A) (A) (A) (A) (A) (A) (A) (A) (A) (A) (A) (A)
                 (A) (A) (A) (A) (A) (A) (A) (A) (A) (A) (A) (A)
                 (A) (A) (A) (A) (A) (A) (A) (A) (A) (A) (A) (A)
                 (A) (A) (A) (A) (A) (A) (A) (A) (A) (A) (A) (A)
                 (A) (A) (A) (A) (A) (A) (A) (A) (A) (A) (A) (A)
                 (A) (A) (A) (A) (A) (A) (A) (A) (A) (A) (A) (A)
                 (A) (A) (A) (A) (A) (A) (A) (A) (A) (A) (A) (A)
                 (A) (A) (A) (A) (A) (A) (A) (A) (A) (A) (A) (A)
                 (A) (A) (A) (A) (A) (A) (A) (A) (A) (A) (A) (A)
                 (A) (A) (A) (A) (A) (A) (A) (A) (A) (A) (A) (A)
                 (A) (A) (A) (A) (A) (A) (A) (A) (A) (A) (A) (A)
                 (A) (A) (A) (A) (A) (A) (A) (A) (A) (A) (A) (A)
                 (A) (A) (A)
 The electronic state is 1-A.
 Alpha  occ. eigenvalues --  -91.99164 -91.98470 -91.98337 -20.61382 -11.31969
 Alpha  occ. eigenvalues --  -11.28875 -11.28594 -11.27472 -11.27177 -11.26651
 Alpha  occ. eigenvalues --  -11.26399 -11.25769 -11.25282 -11.24965  -8.99385
 Alpha  occ. eigenvalues --   -8.98655  -8.98487  -6.67558  -6.67465  -6.67262
 Alpha  occ. eigenvalues --   -6.66823  -6.66746  -6.66646  -6.66565  -6.66539
 Alpha  occ. eigenvalues --   -6.66354  -1.43434  -1.21209  -1.18658  -1.12541
 Alpha  occ. eigenvalues --   -1.03134  -1.01941  -0.98929  -0.95632  -0.94072
 Alpha  occ. eigenvalues --   -0.82836  -0.81625  -0.77091  -0.75349  -0.71253
 Alpha  occ. eigenvalues --   -0.70168  -0.67242  -0.66332  -0.62074  -0.61545
 Alpha  occ. eigenvalues --   -0.58785  -0.56356  -0.56134  -0.53966  -0.52732
 Alpha  occ. eigenvalues --   -0.52440  -0.51473  -0.49613  -0.47911  -0.46703
 Alpha  occ. eigenvalues --   -0.45405  -0.38851  -0.35910  -0.34141  -0.31655
 Alpha  occ. eigenvalues --   -0.27345
 Alpha virt. eigenvalues --    0.02713   0.03708   0.03916   0.05017   0.05143
 Alpha virt. eigenvalues --    0.06283   0.06842   0.08564   0.09284   0.09517
 Alpha virt. eigenvalues --    0.10391   0.10629   0.10730   0.11010   0.11582
 Alpha virt. eigenvalues --    0.12364   0.12763   0.13044   0.13120   0.13588
 Alpha virt. eigenvalues --    0.13853   0.14059   0.14646   0.14969   0.15318
 Alpha virt. eigenvalues --    0.15439   0.15859   0.16523   0.16760   0.17268
 Alpha virt. eigenvalues --    0.17728   0.18515   0.18778   0.19134   0.19497
 Alpha virt. eigenvalues --    0.19614   0.20310   0.20874   0.21397   0.22073
 Alpha virt. eigenvalues --    0.22402   0.22761   0.22963   0.23328   0.23575
 Alpha virt. eigenvalues --    0.24207   0.24406   0.25356   0.25874   0.26222
 Alpha virt. eigenvalues --    0.26581   0.26990   0.27336   0.27836   0.28105
 Alpha virt. eigenvalues --    0.28865   0.29637   0.29938   0.31351   0.31655
 Alpha virt. eigenvalues --    0.31963   0.32264   0.32629   0.32901   0.33680
 Alpha virt. eigenvalues --    0.34192   0.34336   0.35206   0.35577   0.35944
 Alpha virt. eigenvalues --    0.36547   0.37101   0.38223   0.39198   0.39481
 Alpha virt. eigenvalues --    0.40141   0.40614   0.41653   0.41784   0.42355
 Alpha virt. eigenvalues --    0.42702   0.43215   0.44775   0.45503   0.45672
 Alpha virt. eigenvalues --    0.45862   0.46788   0.47774   0.47895   0.48689
 Alpha virt. eigenvalues --    0.49196   0.49692   0.50631   0.51480   0.52192
 Alpha virt. eigenvalues --    0.52314   0.54120   0.54199   0.54427   0.55490
 Alpha virt. eigenvalues --    0.56404   0.56779   0.58754   0.59143   0.59458
 Alpha virt. eigenvalues --    0.60733   0.61659   0.62520   0.62898   0.63183
 Alpha virt. eigenvalues --    0.63436   0.64142   0.65001   0.66041   0.66424
 Alpha virt. eigenvalues --    0.66787   0.67125   0.67802   0.68379   0.68725
 Alpha virt. eigenvalues --    0.69034   0.69381   0.69734   0.70516   0.71076
 Alpha virt. eigenvalues --    0.71343   0.72227   0.72888   0.73165   0.74294
 Alpha virt. eigenvalues --    0.74628   0.75104   0.75319   0.76384   0.77295
 Alpha virt. eigenvalues --    0.78113   0.78559   0.78942   0.79791   0.80280
 Alpha virt. eigenvalues --    0.81484   0.82575   0.83709   0.84040   0.84697
 Alpha virt. eigenvalues --    0.85740   0.86111   0.86512   0.87412   0.87627
 Alpha virt. eigenvalues --    0.89592   0.89744   0.90868   0.91218   0.92094
 Alpha virt. eigenvalues --    0.92409   0.93103   0.93380   0.94588   0.95874
 Alpha virt. eigenvalues --    0.96294   0.96747   0.97789   0.98067   0.99024
 Alpha virt. eigenvalues --    0.99507   1.00611   1.01496   1.01882   1.03654
 Alpha virt. eigenvalues --    1.04467   1.05137   1.06849   1.07732   1.08783
 Alpha virt. eigenvalues --    1.09554   1.10440   1.11567   1.12185   1.13408
 Alpha virt. eigenvalues --    1.13677   1.15822   1.16929   1.17962   1.19255
 Alpha virt. eigenvalues --    1.20958   1.21392   1.22838   1.23250   1.23640
 Alpha virt. eigenvalues --    1.24670   1.25406   1.26077   1.28083   1.28974
 Alpha virt. eigenvalues --    1.29295   1.30219   1.30917   1.31109   1.33204
 Alpha virt. eigenvalues --    1.34454   1.35559   1.35784   1.36488   1.38044
 Alpha virt. eigenvalues --    1.38680   1.39739   1.40689   1.42194   1.44464
 Alpha virt. eigenvalues --    1.45119   1.45610   1.48321   1.49686   1.50965
 Alpha virt. eigenvalues --    1.51715   1.54267   1.55497   1.56414   1.57368
 Alpha virt. eigenvalues --    1.57907   1.59353   1.60247   1.61765   1.62952
 Alpha virt. eigenvalues --    1.63366   1.64553   1.65850   1.66967   1.68939
 Alpha virt. eigenvalues --    1.69741   1.70131   1.72021   1.72351   1.73244
 Alpha virt. eigenvalues --    1.74437   1.75013   1.76421   1.76998   1.77896
 Alpha virt. eigenvalues --    1.80453   1.80966   1.82154   1.83850   1.84222
 Alpha virt. eigenvalues --    1.85161   1.86493   1.87684   1.89611   1.90068
 Alpha virt. eigenvalues --    1.91115   1.93297   1.94028   1.95559   1.96609
 Alpha virt. eigenvalues --    1.97914   2.00857   2.01268   2.02509   2.03350
 Alpha virt. eigenvalues --    2.04074   2.07767   2.09288   2.10648   2.10910
 Alpha virt. eigenvalues --    2.11245   2.12210   2.14274   2.15955   2.17250
 Alpha virt. eigenvalues --    2.17554   2.20933   2.21504   2.21591   2.22639
 Alpha virt. eigenvalues --    2.25831   2.27572   2.27980   2.29028   2.30877
 Alpha virt. eigenvalues --    2.33637   2.34971   2.35706   2.36534   2.38531
 Alpha virt. eigenvalues --    2.40199   2.41993   2.42975   2.46043   2.46304
 Alpha virt. eigenvalues --    2.48527   2.49838   2.50759   2.52373   2.56526
 Alpha virt. eigenvalues --    2.57871   2.59793   2.61589   2.63125   2.65823
 Alpha virt. eigenvalues --    2.76497   2.80857   2.83833   2.85885   2.88237
 Alpha virt. eigenvalues --    2.92390   2.96888   3.00175   3.02487   3.04997
 Alpha virt. eigenvalues --    3.16360   3.19863   3.26019   3.29021   3.35674
 Alpha virt. eigenvalues --    3.40557   3.53307   3.58470   3.71935   3.75964
 Alpha virt. eigenvalues --    3.76551   3.80800   3.86816   3.91581   4.13882
 Alpha virt. eigenvalues --    4.26001   4.47423
          Condensed to atoms (all electrons):
               1          2          3          4          5          6
     1  C    8.339721  -2.288580   0.243295   0.046012  -0.260010  -0.416282
     2  C   -2.288580  12.720289  -3.399391   0.520033   0.199261  -0.454543
     3  C    0.243295  -3.399391  13.145031  -1.712534   0.085978  -0.145433
     4  C    0.046012   0.520033  -1.712534   6.927622  -0.023589   0.243491
     5  H   -0.260010   0.199261   0.085978  -0.023589   1.662265  -0.028795
     6  S   -0.416282  -0.454543  -0.145433   0.243491  -0.028795  16.423696
     7  H    0.060301   0.079053  -0.013480   0.133322  -0.061966  -0.125879
     8  C   -0.227780  -0.169600  -3.089105   0.588161  -0.052189  -0.079295
     9  S   -0.098744   0.284298  -0.629776   0.099132   0.008344   0.008305
    10  C   -0.093311   0.078447  -0.077376   0.049657  -0.000281   0.024567
    11  C    0.010641  -0.023041   0.203100  -0.042203  -0.000456  -0.069154
    12  C    0.062358  -0.919835   0.383976  -0.446266   0.000975   0.075995
    13  H   -0.014882   0.048590   0.001438   0.014404  -0.001071  -0.001808
    14  S    0.000643  -0.009792  -0.042703   0.000706   0.000064   0.011648
    15  C   -0.002139  -0.010391   0.029474   0.001100  -0.000023   0.004746
    16  C   -0.005058   0.024302  -0.304093   0.001494  -0.000413   0.010128
    17  H   -0.000067  -0.000025  -0.000242   0.000012  -0.000001   0.000142
    18  H   -0.000211   0.002998  -0.007103   0.000318   0.000005   0.000283
    19  O    0.117327  -0.796968   0.333424  -0.069816  -0.053663   0.023752
    20  H   -0.104927  -0.016178  -0.039250  -0.011313  -0.009263   0.009269
               7          8          9         10         11         12
     1  C    0.060301  -0.227780  -0.098744  -0.093311   0.010641   0.062358
     2  C    0.079053  -0.169600   0.284298   0.078447  -0.023041  -0.919835
     3  C   -0.013480  -3.089105  -0.629776  -0.077376   0.203100   0.383976
     4  C    0.133322   0.588161   0.099132   0.049657  -0.042203  -0.446266
     5  H   -0.061966  -0.052189   0.008344  -0.000281  -0.000456   0.000975
     6  S   -0.125879  -0.079295   0.008305   0.024567  -0.069154   0.075995
     7  H    1.281356   0.016071   0.000097   0.000249   0.001837  -0.001962
     8  C    0.016071  14.141876   0.300946  -0.828351  -0.194168  -5.031625
     9  S    0.000097   0.300946  16.891042   0.308869  -0.495658  -0.995971
    10  C    0.000249  -0.828351   0.308869  11.328775  -1.398316  -0.553824
    11  C    0.001837  -0.194168  -0.495658  -1.398316  13.794502  -3.966057
    12  C   -0.001962  -5.031625  -0.995971  -0.553824  -3.966057  19.077083
    13  H    0.003988   0.850041   0.047717  -0.139192   0.525420  -1.589373
    14  S   -0.000097  -0.420049   0.149605   0.154512  -0.611474   0.180726
    15  C    0.000017   0.015584  -0.124808  -0.145874  -1.166822   0.097842
    16  C    0.000034   0.012492  -0.241081  -2.754011  -0.399132  -0.681425
    17  H   -0.000000  -0.002971   0.016644   0.110446  -0.112814   0.034854
    18  H    0.000009   0.058694   0.044663   0.510009   0.063143  -0.051875
    19  O   -0.002020   0.025783  -0.083675   0.009381  -0.006115   0.013458
    20  H    0.001102   0.015805   0.023943   0.006237  -0.001605  -0.006307
              13         14         15         16         17         18
     1  C   -0.014882   0.000643  -0.002139  -0.005058  -0.000067  -0.000211
     2  C    0.048590  -0.009792  -0.010391   0.024302  -0.000025   0.002998
     3  C    0.001438  -0.042703   0.029474  -0.304093  -0.000242  -0.007103
     4  C    0.014404   0.000706   0.001100   0.001494   0.000012   0.000318
     5  H   -0.001071   0.000064  -0.000023  -0.000413  -0.000001   0.000005
     6  S   -0.001808   0.011648   0.004746   0.010128   0.000142   0.000283
     7  H    0.003988  -0.000097   0.000017   0.000034  -0.000000   0.000009
     8  C    0.850041  -0.420049   0.015584   0.012492  -0.002971   0.058694
     9  S    0.047717   0.149605  -0.124808  -0.241081   0.016644   0.044663
    10  C   -0.139192   0.154512  -0.145874  -2.754011   0.110446   0.510009
    11  C    0.525420  -0.611474  -1.166822  -0.399132  -0.112814   0.063143
    12  C   -1.589373   0.180726   0.097842  -0.681425   0.034854  -0.051875
    13  H    1.842464  -0.061268   0.013988  -0.030051   0.002530   0.001318
    14  S   -0.061268  16.146862   0.221671  -0.104743  -0.138209  -0.000562
    15  C    0.013988   0.221671   7.030884   0.108091   0.204978  -0.115127
    16  C   -0.030051  -0.104743   0.108091  10.542738   0.027516  -0.524739
    17  H    0.002530  -0.138209   0.204978   0.027516   1.309596  -0.070420
    18  H    0.001318  -0.000562  -0.115127  -0.524739  -0.070420   1.415323
    19  O    0.000550   0.000720   0.000039   0.002170   0.000031   0.000142
    20  H    0.000441  -0.000024   0.000036   0.000872   0.000002   0.000071
              19         20
     1  C    0.117327  -0.104927
     2  C   -0.796968  -0.016178
     3  C    0.333424  -0.039250
     4  C   -0.069816  -0.011313
     5  H   -0.053663  -0.009263
     6  S    0.023752   0.009269
     7  H   -0.002020   0.001102
     8  C    0.025783   0.015805
     9  S   -0.083675   0.023943
    10  C    0.009381   0.006237
    11  C   -0.006115  -0.001605
    12  C    0.013458  -0.006307
    13  H    0.000550   0.000441
    14  S    0.000720  -0.000024
    15  C    0.000039   0.000036
    16  C    0.002170   0.000872
    17  H    0.000031   0.000002
    18  H    0.000142   0.000071
    19  O    9.049057   0.365360
    20  H    0.365360   0.582558
 Mulliken charges:
               1
     1  C    0.631692
     2  C    0.131072
     3  C    1.034767
     4  C   -0.319746
     5  H   -0.465172
     6  S    0.485168
     7  H   -0.372031
     8  C    0.069682
     9  S    0.486110
    10  C   -0.590614
    11  C   -0.111628
    12  C    0.317250
    13  H   -0.515245
    14  S    0.521763
    15  C   -0.163269
    16  C    0.314907
    17  H   -0.382003
    18  H   -0.326937
    19  O   -0.928937
    20  H    0.183171
 Sum of Mulliken charges =  -0.00000
 Mulliken charges with hydrogens summed into heavy atoms:
               1
     1  C    0.166519
     2  C    0.131072
     3  C    1.034767
     4  C   -0.691777
     6  S    0.485168
     8  C    0.069682
     9  S    0.486110
    10  C   -0.590614
    11  C   -0.111628
    12  C   -0.197994
    14  S    0.521763
    15  C   -0.545272
    16  C   -0.012031
    19  O   -0.745765
 Electronic spatial extent (au):  <R**2>=           4306.7575
 Charge=             -0.0000 electrons
 Dipole moment (field-independent basis, Debye):
    X=             -2.6617    Y=              1.1498    Z=              0.1909  Tot=              2.9057
 Quadrupole moment (field-independent basis, Debye-Ang):
   XX=            -75.7014   YY=            -96.3555   ZZ=           -110.3288
   XY=             -0.9700   XZ=             -1.9366   YZ=             -0.0770
 Traceless Quadrupole moment (field-independent basis, Debye-Ang):
   XX=             18.4272   YY=             -2.2270   ZZ=            -16.2002
   XY=             -0.9700   XZ=             -1.9366   YZ=             -0.0770
 Octapole moment (field-independent basis, Debye-Ang**2):
  XXX=            -61.6687  YYY=             22.9726  ZZZ=              2.1291  XYY=            -25.9260
  XXY=             40.8067  XXZ=              2.0068  XZZ=             -5.4652  YZZ=              4.4574
  YYZ=              1.9145  XYZ=             -8.9571
 Hexadecapole moment (field-independent basis, Debye-Ang**3):
 XXXX=          -3951.1179 YYYY=           -985.4944 ZZZZ=           -164.6331 XXXY=            -13.0302
 XXXZ=            -32.4412 YYYX=            -49.4760 YYYZ=              5.8714 ZZZX=             -3.8556
 ZZZY=              5.1189 XXYY=           -835.8362 XXZZ=           -911.5758 YYZZ=           -214.3442
 XXYZ=             18.9492 YYXZ=            -14.4254 ZZXY=            -14.6140
 N-N= 1.130332663523D+03 E-N=-6.168066377424D+03  KE= 1.649585527925D+03
 Calling FoFJK, ICntrl=  10002127 FMM=F ISym2X=0 I1Cent= 0 IOpClX= 0 NMat=1 NMatS=1 NMatT=0.
 ***** Axes restored to original set *****
 -------------------------------------------------------------------
 Center     Atomic                   Forces (Hartrees/Bohr)
 Number     Number              X              Y              Z
 -------------------------------------------------------------------
      1        6           0.011550200    0.031888706    0.004805621
      2        6          -0.040481268    0.011037845    0.001774580
      3        6           0.032288143   -0.023297171   -0.004008812
      4        6           0.000218648   -0.029047368   -0.004473456
      5        1          -0.007728360    0.005568658    0.001020830
      6       16           0.006175581   -0.006245131   -0.001156421
      7        1          -0.007423205   -0.007254212   -0.000933224
      8        6          -0.029367816    0.021688591   -0.003924445
      9       16          -0.004490014    0.009316908   -0.001041255
     10        6           0.007867732    0.041424391   -0.007016843
     11        6          -0.008865394   -0.041506110    0.006590313
     12        6           0.029384031   -0.020774008    0.002865507
     13        1          -0.003589846   -0.010302054    0.002068289
     14       16           0.002842777   -0.008230824    0.001459726
     15        6           0.014961982   -0.023972894    0.003929155
     16        6          -0.028212084    0.021180092   -0.003231571
     17        1           0.010241978   -0.000784426    0.000071297
     18        1           0.002925600    0.009289995   -0.001604192
     19        8           0.034338576    0.007824390    0.000703960
     20        1          -0.022637259    0.012194621    0.002100941
 -------------------------------------------------------------------
 Cartesian Forces:  Max     0.041506110 RMS     0.016579166

 GradGradGradGradGradGradGradGradGradGradGradGradGradGradGradGradGradGrad
 Berny optimization.
 FormGI is forming the generalized inverse of G from B-inverse, IUseBI=4.
 Internal  Forces:  Max     0.043468274 RMS     0.009839426
 Search for a local minimum.
 Step number   1 out of a maximum of  116
 All quantities printed in internal units (Hartrees-Bohrs-Radians)
 Mixed Optimization -- RFO/linear search
 Second derivative matrix not updated -- first step.
 ITU=  0
     Eigenvalues ---    0.01505   0.01580   0.01629   0.01706   0.01748
     Eigenvalues ---    0.01767   0.01982   0.02025   0.02063   0.02133
     Eigenvalues ---    0.02216   0.02264   0.02320   0.02353   0.02375
     Eigenvalues ---    0.02456   0.16000   0.16000   0.16000   0.16000
     Eigenvalues ---    0.16000   0.16000   0.22525   0.22566   0.23645
     Eigenvalues ---    0.24759   0.24780   0.24983   0.24991   0.24998
     Eigenvalues ---    0.25000   0.28882   0.29770   0.30328   0.30998
     Eigenvalues ---    0.31190   0.32427   0.35960   0.36223   0.36296
     Eigenvalues ---    0.36353   0.36450   0.36453   0.39004   0.39130
     Eigenvalues ---    0.39886   0.45951   0.50475   0.51746   0.53558
     Eigenvalues ---    0.54339   0.55026   0.593871000.000001000.00000
     Eigenvalues --- 1000.000001000.000001000.000001000.000001000.00000
     Eigenvalues --- 1000.000001000.000001000.000001000.000001000.00000
     Eigenvalues --- 1000.000001000.000001000.000001000.000001000.00000
     Eigenvalues --- 1000.000001000.000001000.000001000.000001000.00000
     Eigenvalues --- 1000.000001000.000001000.000001000.000001000.00000
     Eigenvalues --- 1000.000001000.000001000.000001000.000001000.00000
     Eigenvalues --- 1000.000001000.000001000.000001000.000001000.00000
     Eigenvalues --- 1000.000001000.000001000.000001000.000001000.00000
     Eigenvalues --- 1000.000001000.000001000.000001000.000001000.00000
     Eigenvalues --- 1000.000001000.000001000.000001000.000001000.00000
     Eigenvalues --- 1000.00000
 RFO step:  Lambda=-1.94782112D-02 EMin= 1.50531242D-02
 Linear search not attempted -- first point.
 Iteration  1 RMS(Cart)=  0.02844910 RMS(Int)=  0.00017993
 Iteration  2 RMS(Cart)=  0.00033724 RMS(Int)=  0.00004503
 Iteration  3 RMS(Cart)=  0.00000006 RMS(Int)=  0.00004503
 Iteration  1 RMS(Cart)=  0.00000315 RMS(Int)=  0.00000155
 Iteration  2 RMS(Cart)=  0.00000173 RMS(Int)=  0.00000173
 Iteration  3 RMS(Cart)=  0.00000095 RMS(Int)=  0.00000196
 Variable       Old X    -DE/DX   Delta X   Delta X   Delta X     New X
                                 (Linear)    (Quad)   (Total)
    R1        2.71505  -0.00254   0.00000  -0.00367  -0.00360   2.71144
    R2        2.54535   0.03992   0.00000   0.07023   0.07026   2.61561
    R3        2.04144   0.00958   0.00000   0.02527   0.02527   2.06671
    R4        2.56229   0.03872   0.00000   0.06990   0.06992   2.63221
    R5        2.55109   0.02239   0.00000   0.03929   0.03929   2.59038
    R6        3.30941   0.00308   0.00000   0.00689   0.00684   3.31625
    R7        2.76679  -0.00648   0.00000  -0.01688  -0.01688   2.74991
    R8        3.25676   0.00755   0.00000   0.01982   0.01978   3.27654
    R9        2.03384   0.01028   0.00000   0.02678   0.02678   2.06062
   R10        3.33007   0.00643   0.00000   0.01742   0.01736   3.34743
   R11        2.56473   0.03863   0.00000   0.06979   0.06981   2.63454
   R12        3.28117   0.00565   0.00000   0.01525   0.01521   3.29638
   R13        2.57547   0.04347   0.00000   0.08269   0.08277   2.65824
   R14        2.71245  -0.00263   0.00000  -0.00382  -0.00376   2.70869
   R15        2.70130  -0.00321   0.00000  -0.00506  -0.00498   2.69632
   R16        3.28366   0.00551   0.00000   0.01492   0.01488   3.29854
   R17        2.03622   0.01109   0.00000   0.02899   0.02899   2.06521
   R18        3.29675   0.00696   0.00000   0.01820   0.01815   3.31490
   R19        2.54974   0.03891   0.00000   0.06821   0.06822   2.61797
   R20        2.03533   0.01020   0.00000   0.02663   0.02663   2.06195
   R21        2.03734   0.00987   0.00000   0.02586   0.02586   2.06319
   R22        1.78129   0.02566   0.00000   0.04184   0.04184   1.82313
    A1        1.95970  -0.00252   0.00000  -0.00393  -0.00383   1.95587
    A2        2.15700   0.00130   0.00000   0.00217   0.00212   2.15913
    A3        2.16648   0.00122   0.00000   0.00176   0.00171   2.16819
    A4        1.98917  -0.00404   0.00000  -0.01039  -0.01030   1.97888
    A5        2.15514   0.00815   0.00000   0.02793   0.02789   2.18303
    A6        2.13887  -0.00411   0.00000  -0.01754  -0.01759   2.12128
    A7        1.91603   0.00351   0.00000   0.01135   0.01132   1.92735
    A8        2.26288  -0.00202   0.00000  -0.00669  -0.00669   2.25619
    A9        2.10422  -0.00148   0.00000  -0.00468  -0.00467   2.09955
   A10        1.95508   0.00072   0.00000   0.00355   0.00355   1.95864
   A11        2.22575   0.00136   0.00000   0.00779   0.00779   2.23354
   A12        2.10233  -0.00208   0.00000  -0.01135  -0.01135   2.09099
   A13        1.60471   0.00233   0.00000  -0.00060  -0.00077   1.60395
   A14        2.12214  -0.00555   0.00000  -0.01990  -0.01989   2.10225
   A15        2.20779   0.00118   0.00000   0.00507   0.00507   2.21286
   A16        1.95267   0.00437   0.00000   0.01475   0.01473   1.96740
   A17        1.58555   0.00111   0.00000  -0.00393  -0.00411   1.58145
   A18        1.94224   0.00200   0.00000   0.00627   0.00624   1.94847
   A19        2.35120   0.00127   0.00000  -0.00025  -0.00031   2.35089
   A20        1.98961  -0.00327   0.00000  -0.00602  -0.00592   1.98369
   A21        1.99030  -0.00309   0.00000  -0.00492  -0.00480   1.98550
   A22        1.94008   0.00145   0.00000   0.00378   0.00374   1.94382
   A23        2.35274   0.00165   0.00000   0.00110   0.00102   2.35376
   A24        1.95401  -0.00439   0.00000  -0.01217  -0.01206   1.94195
   A25        2.15672   0.00158   0.00000   0.00267   0.00261   2.15933
   A26        2.17244   0.00281   0.00000   0.00950   0.00944   2.18188
   A27        1.58071   0.00229   0.00000   0.00024   0.00011   1.58082
   A28        1.97605   0.00253   0.00000   0.00872   0.00871   1.98476
   A29        2.08729  -0.00252   0.00000  -0.01136  -0.01136   2.07593
   A30        2.21984  -0.00001   0.00000   0.00264   0.00265   2.22249
   A31        1.93832  -0.00300   0.00000  -0.00672  -0.00663   1.93169
   A32        2.18311   0.00164   0.00000   0.00415   0.00410   2.18722
   A33        2.16175   0.00136   0.00000   0.00257   0.00253   2.16428
   A34        1.93894  -0.00475   0.00000  -0.02645  -0.02645   1.91249
    D1       -0.00098  -0.00007   0.00000  -0.00043  -0.00042  -0.00140
    D2        3.14145  -0.00006   0.00000  -0.00002  -0.00001   3.14144
    D3        3.13773  -0.00003   0.00000  -0.00058  -0.00057   3.13715
    D4       -0.00303  -0.00002   0.00000  -0.00017  -0.00016  -0.00319
    D5       -0.00719  -0.00002   0.00000  -0.00063  -0.00062  -0.00781
    D6        3.14098   0.00001   0.00000  -0.00067  -0.00067   3.14031
    D7        3.13730  -0.00005   0.00000  -0.00047  -0.00046   3.13684
    D8        0.00229  -0.00002   0.00000  -0.00052  -0.00052   0.00177
    D9        0.00843   0.00015   0.00000   0.00132   0.00131   0.00974
   D10       -3.12161  -0.00001   0.00000   0.00408   0.00408  -3.11753
   D11       -3.13399   0.00015   0.00000   0.00094   0.00094  -3.13305
   D12        0.01915  -0.00001   0.00000   0.00370   0.00371   0.02287
   D13       -0.01067   0.00004   0.00000   0.00081   0.00081  -0.00987
   D14        3.13183   0.00005   0.00000   0.00124   0.00124   3.13307
   D15       -0.01048  -0.00016   0.00000  -0.00144  -0.00144  -0.01191
   D16        3.12079  -0.00003   0.00000  -0.00394  -0.00395   3.11684
   D17       -0.34951   0.00068   0.00000   0.00000   0.00000  -0.34950
   D18        2.83204   0.00041   0.00000   0.00267   0.00265   2.83469
   D19        2.80471   0.00048   0.00000   0.00293   0.00293   2.80764
   D20       -0.29693   0.00021   0.00000   0.00560   0.00557  -0.29136
   D21        0.01018   0.00011   0.00000   0.00118   0.00118   0.01136
   D22       -3.13747   0.00010   0.00000   0.00130   0.00131  -3.13616
   D23       -3.10288  -0.00012   0.00000   0.00178   0.00176  -3.10112
   D24        0.00410   0.00008   0.00000  -0.00060  -0.00062   0.00349
   D25        3.10086  -0.00007   0.00000  -0.00364  -0.00367   3.09719
   D26       -0.04568  -0.00009   0.00000  -0.00475  -0.00478  -0.05046
   D27       -0.00406  -0.00013   0.00000  -0.00053  -0.00053  -0.00459
   D28        3.13258  -0.00015   0.00000  -0.00164  -0.00164   3.13095
   D29       -0.00303  -0.00000   0.00000   0.00163   0.00162  -0.00140
   D30       -3.12477   0.00006   0.00000   0.00160   0.00159  -3.12318
   D31        0.00134  -0.00008   0.00000  -0.00227  -0.00228  -0.00094
   D32       -3.12939   0.00001   0.00000   0.00009   0.00008  -3.12932
   D33        3.12750  -0.00008   0.00000  -0.00221  -0.00222   3.12528
   D34       -0.00324   0.00000   0.00000   0.00016   0.00014  -0.00310
   D35        3.12510   0.00001   0.00000   0.00104   0.00104   3.12614
   D36       -0.01813  -0.00006   0.00000  -0.00069  -0.00069  -0.01882
   D37        0.00375   0.00002   0.00000   0.00090   0.00090   0.00465
   D38       -3.13948  -0.00004   0.00000  -0.00083  -0.00083  -3.14031
   D39        0.00180   0.00012   0.00000   0.00179   0.00177   0.00357
   D40       -3.13479   0.00014   0.00000   0.00294   0.00291  -3.13188
   D41        3.12913  -0.00001   0.00000  -0.00132  -0.00133   3.12780
   D42       -0.00747   0.00001   0.00000  -0.00017  -0.00018  -0.00765
   D43        0.00150  -0.00005   0.00000  -0.00091  -0.00091   0.00059
   D44       -3.12612   0.00010   0.00000   0.00218   0.00218  -3.12394
   D45        0.00066   0.00006   0.00000   0.00147   0.00147   0.00213
   D46       -3.13784   0.00001   0.00000   0.00078   0.00078  -3.13706
   D47       -0.00253  -0.00009   0.00000  -0.00165  -0.00165  -0.00418
   D48        3.14069  -0.00003   0.00000   0.00006   0.00005   3.14074
   D49        3.13569  -0.00004   0.00000  -0.00092  -0.00092   3.13477
   D50       -0.00428   0.00002   0.00000   0.00078   0.00078  -0.00351
         Item               Value     Threshold  Converged?
 Maximum Force            0.043466     0.000450     NO 
 RMS     Force            0.009886     0.000300     NO 
 Maximum Displacement     0.120230     0.001800     NO 
 RMS     Displacement     0.028442     0.001200     NO 
 Predicted change in Energy=-1.011304D-02
 GradGradGradGradGradGradGradGradGradGradGradGradGradGradGradGradGradGrad

                          Input orientation:                          
 ---------------------------------------------------------------------
 Center     Atomic      Atomic             Coordinates (Angstroms)
 Number     Number       Type             X           Y           Z
 ---------------------------------------------------------------------
      1          6           0       -4.038483    0.380753    0.122388
      2          6           0       -2.690090    0.868577    0.173464
      3          6           0       -1.734117   -0.130238    0.004151
      4          6           0       -4.089152   -0.986424   -0.087509
      5          1           0       -4.919404    1.018251    0.239255
      6         16           0       -2.509663   -1.685977   -0.236334
      7          1           0       -4.972577   -1.620514   -0.168345
      8          6           0       -0.282594   -0.028511    0.021845
      9         16           0        0.511198    1.532716   -0.243238
     10          6           0        2.078722    0.774751   -0.137518
     11          6           0        1.971430   -0.608884    0.092255
     12          6           0        0.625610   -1.073290    0.186849
     13          1           0        0.331355   -2.109623    0.370617
     14         16           0        3.543651   -1.356880    0.216498
     15          6           0        4.321449    0.194353   -0.040047
     16          6           0        3.431685    1.242364   -0.211027
     17          1           0        5.411439    0.242927   -0.052173
     18          1           0        3.733276    2.277800   -0.381122
     19          8           0       -2.332744    2.177469    0.368713
     20          1           0       -3.125995    2.719379    0.457278
 ---------------------------------------------------------------------
                    Distance matrix (angstroms):
                    1          2          3          4          5
     1  C    0.000000
     2  C    1.434833   0.000000
     3  C    2.363301   1.392905   0.000000
     4  C    1.384123   2.338058   2.507518   0.000000
     5  H    1.093656   2.235302   3.394165   2.194269   0.000000
     6  S    2.595640   2.593498   1.754886   1.733872   3.653202
     7  H    2.227584   3.394430   3.569075   1.090433   2.670590
     8  C    3.779458   2.573672   1.455190   3.926759   4.758464
     9  S    4.707473   3.295901   2.805006   5.247242   5.476213
    10  C    6.135388   4.779862   3.921329   6.414586   7.012490
    11  C    6.090923   4.890732   3.737371   6.074991   7.081862
    12  C    4.885914   3.842511   2.547751   4.723537   5.926590
    13  H    5.035779   4.247078   2.884170   4.583922   6.113209
    14  S    7.779266   6.619217   5.422599   7.647833   8.790055
    15  C    8.363587   7.047116   6.064421   8.493215   9.281713
    16  C    7.527081   6.145216   5.349379   7.845110   8.366222
    17  H    9.452539   8.128784   7.155515   9.579864  10.363994
    18  H    8.015768   6.599477   5.986608   8.481259   8.765854
    19  O    2.489660   1.370772   2.411799   3.647373   2.837491
    20  H    2.532579   1.922506   3.203587   3.867485   2.481468
                    6          7          8          9         10
     6  S    0.000000
     7  H    2.464722   0.000000
     8  C    2.788132   4.956469   0.000000
     9  S    4.414253   6.326157   1.771385   0.000000
    10  C    5.207516   7.447084   2.499289   1.744368   0.000000
    11  C    4.620421   7.022146   2.328609   2.613672   1.406682
    12  C    3.222484   5.636072   1.394139   2.643735   2.373185
    13  H    2.935855   5.353634   2.197636   3.698080   3.410441
    14  S    6.079142   8.528994   4.054949   4.213893   2.610593
    15  C    7.087895   9.470434   4.609850   4.043577   2.318661
    16  C    6.623854   8.878599   3.932585   2.935061   1.433379
    17  H    8.154658  10.550531   5.700980   5.070742   3.375963
    18  H    7.396402   9.541174   4.648512   3.309977   2.248565
    19  O    3.914536   4.656375   3.031465   2.979631   4.656707
    20  H    4.502013   4.757724   3.978118   3.889481   5.587883
                   11         12         13         14         15
    11  C    0.000000
    12  C    1.426834   0.000000
    13  H    2.240435   1.092860   0.000000
    14  S    1.745512   2.931939   3.302911   0.000000
    15  C    2.487023   3.913775   4.625776   1.754168   0.000000
    16  C    2.377277   3.659866   4.602844   2.636548   1.385367
    17  H    3.546844   4.969278   5.614312   2.473903   1.091139
    18  H    3.414840   4.605430   5.602469   3.688360   2.191582
    19  O    5.134794   4.399132   5.047433   6.859068   6.955439
    20  H    6.098714   5.341536   5.939700   7.820360   7.879563
                   16         17         18         19         20
    16  C    0.000000
    17  H    2.223406   0.000000
    18  H    1.091795   2.658035   0.000000
    19  O    5.868489   7.993246   6.113012   0.000000
    20  H    6.755100   8.903939   6.924414   0.964757   0.000000
 Stoichiometry    C10H6OS3
 Framework group  C1[X(C10H6OS3)]
 Deg. of freedom    54
 Full point group                 C1      NOp   1
 Largest Abelian subgroup         C1      NOp   1
 Largest concise Abelian subgroup C1      NOp   1
                         Standard orientation:                         
 ---------------------------------------------------------------------
 Center     Atomic      Atomic             Coordinates (Angstroms)
 Number     Number       Type             X           Y           Z
 ---------------------------------------------------------------------
      1          6           0       -4.040265    0.371940    0.124830
      2          6           0       -2.693333    0.863893    0.174822
      3          6           0       -1.734424   -0.132119    0.005594
      4          6           0       -4.086898   -0.995518   -0.084171
      5          1           0       -4.923054    1.006831    0.241798
      6         16           0       -2.505374   -1.690361   -0.233458
      7          1           0       -4.968436   -1.632343   -0.164097
      8          6           0       -0.283208   -0.025968    0.022391
      9         16           0        0.505682    1.537496   -0.244138
     10          6           0        2.075564    0.784367   -0.138836
     11          6           0        1.972611   -0.599441    0.091876
     12          6           0        0.628263   -1.067876    0.187537
     13          1           0        0.337265   -2.104982    0.372131
     14         16           0        3.547170   -1.342574    0.215691
     15          6           0        4.320101    0.210852   -0.042284
     16          6           0        3.427057    1.256045   -0.213418
     17          1           0        5.409931    0.262732   -0.055066
     18          1           0        3.725400    2.292284   -0.384344
     19          8           0       -2.339857    2.173989    0.369036
     20          1           0       -3.134701    2.713541    0.457712
 ---------------------------------------------------------------------
 Rotational constants (GHZ):           1.2681572           0.2807969           0.2319752
 Standard basis: Aug-CC-pVDZ (5D, 7F)
 There are   416 symmetry adapted cartesian basis functions of A   symmetry.
 There are   388 symmetry adapted basis functions of A   symmetry.
   388 basis functions,   782 primitive gaussians,   416 cartesian basis functions
    61 alpha electrons       61 beta electrons
       nuclear repulsion energy      1122.2643349980 Hartrees.
 NAtoms=   20 NActive=   20 NUniq=   20 SFac= 1.00D+00 NAtFMM=   60 NAOKFM=F Big=F
 Integral buffers will be    131072 words long.
 Raffenetti 1 integral format.
 Two-electron integral symmetry is turned on.
 One-electron integrals computed using PRISM.
 NBasis=   388 RedAO= T EigKep=  3.00D-06  NBF=   388
 NBsUse=   388 1.00D-06 EigRej= -1.00D+00 NBFU=   388
 Initial guess from the checkpoint file:  "/tmp/pbs.4766300[155].pbs/Gau-2901002.chk"
 B after Tr=     0.000000   -0.000000    0.000000
         Rot=    0.999999    0.000208   -0.000333   -0.001526 Ang=   0.18 deg.
 ExpMin= 2.97D-02 ExpMax= 1.11D+05 ExpMxC= 1.07D+03 IAcc=3 IRadAn=         5 AccDes= 0.00D+00
 Harris functional with IExCor=  205 and IRadAn=       5 diagonalized for initial guess.
 HarFok:  IExCor=  205 AccDes= 0.00D+00 IRadAn=         5 IDoV= 1 UseB2=F ITyADJ=14
 ICtDFT=  3500011 ScaDFX=  1.000000  1.000000  1.000000  1.000000
 FoFCou: FMM=F IPFlag=           0 FMFlag=      100000 FMFlg1=           0
         NFxFlg=           0 DoJE=T BraDBF=F KetDBF=T FulRan=T
         wScrn=  0.000000 ICntrl=       500 IOpCl=  0 I1Cent=   200000004 NGrid=           0
         NMat0=    1 NMatS0=      1 NMatT0=    0 NMatD0=    1 NMtDS0=    0 NMtDT0=    0
 Petite list used in FoFCou.
 Requested convergence on RMS density matrix=1.00D-08 within 128 cycles.
 Requested convergence on MAX density matrix=1.00D-06.
 Requested convergence on             energy=1.00D-06.
 No special actions if energy rises.
 SCF Done:  E(RHF) =  -1649.63318614     A.U. after   15 cycles
            NFock= 15  Conv=0.58D-08     -V/T= 2.0006
 ExpMin= 2.97D-02 ExpMax= 1.11D+05 ExpMxC= 1.07D+03 IAcc=3 IRadAn=         5 AccDes= 0.00D+00
 HarFok:  IExCor=  205 AccDes= 0.00D+00 IRadAn=         5 IDoV=-2 UseB2=F ITyADJ=14
 ICtDFT= 12500011 ScaDFX=  1.000000  1.000000  1.000000  1.000000
 GSVD:  LWork=        -884 too small for GESVD, short by        3770 words or        3770 for optimal perf.
 Range of M.O.s used for correlation:    27   388
 NBasis=   388 NAE=    61 NBE=    61 NFC=    26 NFV=     0
 NROrb=    362 NOA=    35 NOB=    35 NVA=   327 NVB=   327

 **** Warning!!: The largest alpha MO coefficient is  0.73791520D+02

 Fully direct method using O(ONN) memory.
 JobTyp=1 Pass  1:  I=  27 to  61 NPSUse=  8 ParTrn=T ParDer=T DoDerP=T.
 Spin components of T(2) and E(2):
     alpha-alpha T2 =       0.1173267035D+00 E2=     -0.2771981068D+00
     alpha-beta  T2 =       0.5702780192D+00 E2=     -0.1435089934D+01
     beta-beta   T2 =       0.1173267035D+00 E2=     -0.2771981068D+00
 ANorm=    0.1343477364D+01
 E2 =    -0.1989486148D+01 EUMP2 =    -0.16516226722875D+04
          IDoAtm=11111111111111111111
          Differentiating once with respect to electric field.
                with respect to dipole field.
          Differentiating once with respect to nuclear coordinates.
 Keep R1 ints in memory in canonical form, NReq=2883857471.
          There are     1 degrees of freedom in the 1st order CPHF.  IDoFFX=0 NUNeed=     1.
 LinEq1:  Iter=  0 NonCon=     1 RMS=2.91D-03 Max=6.67D-02 NDo=     1
 AX will form     1 AO Fock derivatives at one time.
 LinEq1:  Iter=  1 NonCon=     1 RMS=7.20D-04 Max=1.64D-02 NDo=     1
 LinEq1:  Iter=  2 NonCon=     1 RMS=3.71D-04 Max=1.25D-02 NDo=     1
 LinEq1:  Iter=  3 NonCon=     1 RMS=1.02D-04 Max=3.46D-03 NDo=     1
 LinEq1:  Iter=  4 NonCon=     1 RMS=3.95D-05 Max=1.01D-03 NDo=     1
 LinEq1:  Iter=  5 NonCon=     1 RMS=1.79D-05 Max=1.01D-03 NDo=     1
 LinEq1:  Iter=  6 NonCon=     1 RMS=7.18D-06 Max=2.69D-04 NDo=     1
 LinEq1:  Iter=  7 NonCon=     1 RMS=3.36D-06 Max=1.47D-04 NDo=     1
 LinEq1:  Iter=  8 NonCon=     1 RMS=1.18D-06 Max=4.02D-05 NDo=     1
 LinEq1:  Iter=  9 NonCon=     1 RMS=5.50D-07 Max=1.73D-05 NDo=     1
 LinEq1:  Iter= 10 NonCon=     1 RMS=2.15D-07 Max=5.94D-06 NDo=     1
 LinEq1:  Iter= 11 NonCon=     1 RMS=1.00D-07 Max=4.27D-06 NDo=     1
 LinEq1:  Iter= 12 NonCon=     1 RMS=3.75D-08 Max=7.22D-07 NDo=     1
 LinEq1:  Iter= 13 NonCon=     1 RMS=1.80D-08 Max=4.56D-07 NDo=     1
 LinEq1:  Iter= 14 NonCon=     1 RMS=6.87D-09 Max=1.87D-07 NDo=     1
 LinEq1:  Iter= 15 NonCon=     1 RMS=3.03D-09 Max=1.23D-07 NDo=     1
 LinEq1:  Iter= 16 NonCon=     1 RMS=1.01D-09 Max=2.45D-08 NDo=     1
 LinEq1:  Iter= 17 NonCon=     1 RMS=4.03D-10 Max=1.16D-08 NDo=     1
 LinEq1:  Iter= 18 NonCon=     1 RMS=1.48D-10 Max=2.60D-09 NDo=     1
 LinEq1:  Iter= 19 NonCon=     0 RMS=4.83D-11 Max=8.47D-10 NDo=     1
 Linear equations converged to 1.000D-10 1.000D-09 after    19 iterations.
 End of Minotr F.D. properties file   721 does not exist.
 End of Minotr F.D. properties file   722 does not exist.
 End of Minotr F.D. properties file   788 does not exist.
 Calling FoFJK, ICntrl=  10002127 FMM=F ISym2X=0 I1Cent= 0 IOpClX= 0 NMat=1 NMatS=1 NMatT=0.
 ***** Axes restored to original set *****
 -------------------------------------------------------------------
 Center     Atomic                   Forces (Hartrees/Bohr)
 Number     Number              X              Y              Z
 -------------------------------------------------------------------
      1        6           0.007317343    0.005242990    0.000714062
      2        6          -0.015447943   -0.003740375   -0.000951113
      3        6           0.008840668   -0.004643731   -0.000127556
      4        6          -0.002136077   -0.004324806   -0.000567731
      5        1          -0.000494038   -0.000991105   -0.000162214
      6       16          -0.000586161    0.005070801    0.000856211
      7        1           0.000198158    0.000019995    0.000015930
      8        6          -0.007829119    0.002716648   -0.000787191
      9       16           0.001589453   -0.003157108    0.001152717
     10        6           0.005789466    0.008446928   -0.001554951
     11        6          -0.005659210   -0.008454346    0.001106920
     12        6           0.008536239   -0.001066186   -0.000219180
     13        1          -0.001134528    0.000653418    0.000163315
     14       16          -0.001019320    0.003910400   -0.000608400
     15        6           0.003576302   -0.002354931    0.000432338
     16        6          -0.007167669    0.000068317    0.000145659
     17        1           0.000066878   -0.000155952   -0.000003202
     18        1           0.000905743   -0.000535298    0.000052724
     19        8           0.007856588    0.003088210    0.000211887
     20        1          -0.003202775    0.000206131    0.000129777
 -------------------------------------------------------------------
 Cartesian Forces:  Max     0.015447943 RMS     0.004136823

 GradGradGradGradGradGradGradGradGradGradGradGradGradGradGradGradGradGrad
 Berny optimization.
 Using GEDIIS/GDIIS optimizer.
 FormGI is forming the generalized inverse of G from B-inverse, IUseBI=4.
 Internal  Forces:  Max     0.005192944 RMS     0.001632721
 Search for a local minimum.
 Step number   2 out of a maximum of  116
 All quantities printed in internal units (Hartrees-Bohrs-Radians)
 Mixed Optimization -- RFO/linear search
 Update second derivatives using D2CorX and points    1    2
 DE= -1.03D-02 DEPred=-1.01D-02 R= 1.02D+00
 TightC=F SS=  1.41D+00  RLast= 1.97D-01 DXNew= 5.0454D-01 5.9032D-01
 Trust test= 1.02D+00 RLast= 1.97D-01 DXMaxT set to 5.05D-01
 ITU=  1  0
 Use linear search instead of GDIIS.
     Eigenvalues ---    0.01510   0.01579   0.01627   0.01712   0.01747
     Eigenvalues ---    0.01766   0.01982   0.02023   0.02068   0.02141
     Eigenvalues ---    0.02221   0.02263   0.02319   0.02353   0.02378
     Eigenvalues ---    0.02459   0.15786   0.16000   0.16000   0.16000
     Eigenvalues ---    0.16000   0.16032   0.22524   0.22595   0.23703
     Eigenvalues ---    0.24317   0.24767   0.24911   0.24984   0.24997
     Eigenvalues ---    0.25317   0.28924   0.29753   0.30349   0.31039
     Eigenvalues ---    0.31330   0.32512   0.35995   0.36189   0.36247
     Eigenvalues ---    0.36328   0.36410   0.36759   0.38893   0.39170
     Eigenvalues ---    0.39909   0.45495   0.49782   0.51335   0.53156
     Eigenvalues ---    0.54068   0.55275   0.592391000.000001000.00000
     Eigenvalues --- 1000.000001000.000001000.000001000.000001000.00000
     Eigenvalues --- 1000.000001000.000001000.000001000.000001000.00000
     Eigenvalues --- 1000.000001000.000001000.000001000.000001000.00000
     Eigenvalues --- 1000.000001000.000001000.000001000.000001000.00000
     Eigenvalues --- 1000.000001000.000001000.000001000.000001000.00000
     Eigenvalues --- 1000.000001000.000001000.000001000.000001000.00000
     Eigenvalues --- 1000.000001000.000001000.000001000.000001000.00000
     Eigenvalues --- 1000.000001000.000001000.000001000.000001000.00000
     Eigenvalues --- 1000.000001000.000001000.000001000.000001000.00000
     Eigenvalues --- 1000.000001000.000001000.000001000.000001000.00000
     Eigenvalues --- 1000.00000
 RFO step:  Lambda=-8.61910257D-04 EMin= 1.50992037D-02
 Quartic linear search produced a step of  0.10736.
 Iteration  1 RMS(Cart)=  0.00822184 RMS(Int)=  0.00005462
 Iteration  2 RMS(Cart)=  0.00008861 RMS(Int)=  0.00000921
 Iteration  3 RMS(Cart)=  0.00000000 RMS(Int)=  0.00000921
 Iteration  1 RMS(Cart)=  0.00000440 RMS(Int)=  0.00000216
 Iteration  2 RMS(Cart)=  0.00000241 RMS(Int)=  0.00000241
 Iteration  3 RMS(Cart)=  0.00000132 RMS(Int)=  0.00000273
 Iteration  4 RMS(Cart)=  0.00000072 RMS(Int)=  0.00000293
 Variable       Old X    -DE/DX   Delta X   Delta X   Delta X     New X
                                 (Linear)    (Quad)   (Total)
    R1        2.71144  -0.00517  -0.00039  -0.01405  -0.01445   2.69699
    R2        2.61561   0.00271   0.00754   0.00124   0.00878   2.62439
    R3        2.06671  -0.00020   0.00271  -0.00200   0.00071   2.06743
    R4        2.63221   0.00485   0.00751   0.00596   0.01347   2.64568
    R5        2.59038   0.00441   0.00422   0.00657   0.01079   2.60117
    R6        3.31625  -0.00282   0.00073  -0.01057  -0.00983   3.30643
    R7        2.74991  -0.00234  -0.00181  -0.00615  -0.00796   2.74195
    R8        3.27654  -0.00069   0.00212  -0.00342  -0.00129   3.27525
    R9        2.06062  -0.00017   0.00288  -0.00200   0.00087   2.06149
   R10        3.34743  -0.00040   0.00186  -0.00275  -0.00088   3.34655
   R11        2.63454   0.00402   0.00749   0.00417   0.01167   2.64621
   R12        3.29638  -0.00129   0.00163  -0.00528  -0.00365   3.29273
   R13        2.65824   0.00519   0.00889   0.00655   0.01544   2.67368
   R14        2.70869  -0.00352  -0.00040  -0.00936  -0.00976   2.69893
   R15        2.69632  -0.00339  -0.00053  -0.00870  -0.00923   2.68709
   R16        3.29854  -0.00134   0.00160  -0.00533  -0.00373   3.29481
   R17        2.06521  -0.00029   0.00311  -0.00247   0.00064   2.06584
   R18        3.31490  -0.00122   0.00195  -0.00564  -0.00369   3.31121
   R19        2.61797   0.00260   0.00732   0.00110   0.00842   2.62639
   R20        2.06195   0.00006   0.00286  -0.00129   0.00157   2.06352
   R21        2.06319  -0.00027   0.00278  -0.00224   0.00054   2.06373
   R22        1.82313   0.00276   0.00449   0.00269   0.00718   1.83031
    A1        1.95587   0.00049  -0.00041   0.00271   0.00229   1.95816
    A2        2.15913   0.00089   0.00023   0.00647   0.00670   2.16583
    A3        2.16819  -0.00139   0.00018  -0.00918  -0.00899   2.15919
    A4        1.97888   0.00165  -0.00111   0.00805   0.00694   1.98582
    A5        2.18303   0.00238   0.00299   0.00898   0.01197   2.19500
    A6        2.12128  -0.00404  -0.00189  -0.01703  -0.01891   2.10237
    A7        1.92735  -0.00267   0.00122  -0.01210  -0.01089   1.91647
    A8        2.25619   0.00093  -0.00072   0.00423   0.00350   2.25969
    A9        2.09955   0.00175  -0.00050   0.00778   0.00727   2.10682
   A10        1.95864  -0.00187   0.00038  -0.00955  -0.00917   1.94947
   A11        2.23354   0.00103   0.00084   0.00504   0.00588   2.23942
   A12        2.09099   0.00083  -0.00122   0.00450   0.00328   2.09427
   A13        1.60395   0.00240  -0.00008   0.01086   0.01079   1.61474
   A14        2.10225   0.00088  -0.00214   0.00505   0.00291   2.10515
   A15        2.21286   0.00112   0.00054   0.00478   0.00531   2.21817
   A16        1.96740  -0.00200   0.00158  -0.01009  -0.00852   1.95888
   A17        1.58145   0.00246  -0.00044   0.01063   0.01020   1.59165
   A18        1.94847  -0.00227   0.00067  -0.01024  -0.00957   1.93890
   A19        2.35089   0.00138  -0.00003   0.00545   0.00542   2.35630
   A20        1.98369   0.00089  -0.00064   0.00474   0.00411   1.98779
   A21        1.98550   0.00100  -0.00052   0.00491   0.00439   1.98989
   A22        1.94382  -0.00247   0.00040  -0.01064  -0.01023   1.93358
   A23        2.35376   0.00147   0.00011   0.00566   0.00576   2.35953
   A24        1.94195   0.00080  -0.00129   0.00478   0.00348   1.94544
   A25        2.15933  -0.00170   0.00028  -0.01122  -0.01094   2.14840
   A26        2.18188   0.00090   0.00101   0.00643   0.00744   2.18933
   A27        1.58082   0.00229   0.00001   0.01002   0.01004   1.59086
   A28        1.98476  -0.00148   0.00093  -0.00834  -0.00741   1.97736
   A29        2.07593   0.00058  -0.00122   0.00337   0.00215   2.07808
   A30        2.22249   0.00090   0.00028   0.00497   0.00525   2.22774
   A31        1.93169   0.00076  -0.00071   0.00421   0.00349   1.93517
   A32        2.18722   0.00067   0.00044   0.00509   0.00554   2.19275
   A33        2.16428  -0.00143   0.00027  -0.00930  -0.00903   2.15525
   A34        1.91249  -0.00299  -0.00284  -0.01941  -0.02225   1.89024
    D1       -0.00140  -0.00007  -0.00004   0.00030   0.00024  -0.00116
    D2        3.14144  -0.00005  -0.00000   0.00106   0.00106  -3.14068
    D3        3.13715  -0.00003  -0.00006  -0.00029  -0.00036   3.13680
    D4       -0.00319  -0.00002  -0.00002   0.00047   0.00046  -0.00273
    D5       -0.00781  -0.00003  -0.00007  -0.00161  -0.00167  -0.00947
    D6        3.14031   0.00003  -0.00007  -0.00057  -0.00063   3.13968
    D7        3.13684  -0.00007  -0.00005  -0.00105  -0.00110   3.13574
    D8        0.00177  -0.00001  -0.00006  -0.00001  -0.00006   0.00171
    D9        0.00974   0.00014   0.00014   0.00112   0.00127   0.01101
   D10       -3.11753  -0.00002   0.00044   0.00867   0.00908  -3.10844
   D11       -3.13305   0.00013   0.00010   0.00040   0.00053  -3.13252
   D12        0.02287  -0.00003   0.00040   0.00796   0.00834   0.03120
   D13       -0.00987   0.00006   0.00009   0.00245   0.00254  -0.00733
   D14        3.13307   0.00007   0.00013   0.00326   0.00339   3.13646
   D15       -0.01191  -0.00013  -0.00015  -0.00172  -0.00189  -0.01380
   D16        3.11684   0.00000  -0.00042  -0.00851  -0.00892   3.10792
   D17       -0.34950   0.00057   0.00000   0.00000  -0.00001  -0.34951
   D18        2.83469   0.00046   0.00028   0.00850   0.00880   2.84349
   D19        2.80764   0.00043   0.00031   0.00834   0.00867   2.81631
   D20       -0.29136   0.00033   0.00060   0.01684   0.01748  -0.27388
   D21        0.01136   0.00011   0.00013   0.00197   0.00211   0.01346
   D22       -3.13616   0.00005   0.00014   0.00103   0.00118  -3.13498
   D23       -3.10112  -0.00001   0.00019   0.00870   0.00885  -3.09227
   D24        0.00349   0.00014  -0.00007   0.00160   0.00154   0.00503
   D25        3.09719  -0.00003  -0.00039  -0.01065  -0.01104   3.08615
   D26       -0.05046  -0.00005  -0.00051  -0.01184  -0.01234  -0.06280
   D27       -0.00459  -0.00019  -0.00006  -0.00300  -0.00306  -0.00766
   D28        3.13095  -0.00020  -0.00018  -0.00418  -0.00436   3.12658
   D29       -0.00140  -0.00006   0.00017   0.00024   0.00040  -0.00101
   D30       -3.12318   0.00001   0.00017   0.00364   0.00379  -3.11939
   D31       -0.00094  -0.00003  -0.00024  -0.00204  -0.00228  -0.00322
   D32       -3.12932   0.00005   0.00001   0.00209   0.00208  -3.12723
   D33        3.12528  -0.00008  -0.00024  -0.00462  -0.00485   3.12043
   D34       -0.00310  -0.00000   0.00002  -0.00049  -0.00049  -0.00359
   D35        3.12614  -0.00008   0.00011  -0.00254  -0.00243   3.12371
[...]
 Center     Atomic      Atomic             Coordinates (Angstroms)
 Number     Number       Type             X           Y           Z
 ---------------------------------------------------------------------
      1          6           0       -4.040406    0.379405    0.121342
      2          6           0       -2.702861    0.863360    0.163259
      3          6           0       -1.732829   -0.134911   -0.001022
      4          6           0       -4.094325   -0.995442   -0.075332
      5          1           0       -4.928519    1.007486    0.231872
      6         16           0       -2.512365   -1.683623   -0.222193
      7          1           0       -4.975253   -1.632840   -0.150013
      8          6           0       -0.287758   -0.026020    0.027227
      9         16           0        0.509591    1.533043   -0.228731
     10          6           0        2.080041    0.786725   -0.137448
     11          6           0        1.969696   -0.608691    0.082099
     12          6           0        0.632006   -1.071763    0.179196
     13          1           0        0.327164   -2.105209    0.360706
     14         16           0        3.546026   -1.341701    0.203464
     15          6           0        4.323872    0.207667   -0.036902
     16          6           0        3.425184    1.254961   -0.200822
     17          1           0        5.413689    0.257949   -0.049324
     18          1           0        3.734895    2.289210   -0.361773
     19          8           0       -2.322497    2.176636    0.343227
     20          1           0       -3.119736    2.715061    0.452496
 ---------------------------------------------------------------------
 Rotational constants (GHZ):           1.2741097           0.2807289           0.2318937

 **********************************************************************

            Population analysis using the SCF Density.

 **********************************************************************

 Orbital symmetries:
       Occupied  (A) (A) (A) (A) (A) (A) (A) (A) (A) (A) (A) (A)
                 (A) (A) (A) (A) (A) (A) (A) (A) (A) (A) (A) (A)
                 (A) (A) (A) (A) (A) (A) (A) (A) (A) (A) (A) (A)
                 (A) (A) (A) (A) (A) (A) (A) (A) (A) (A) (A) (A)
                 (A) (A) (A) (A) (A) (A) (A) (A) (A) (A) (A) (A)
                 (A)
       Virtual   (A) (A) (A) (A) (A) (A) (A) (A) (A) (A) (A) (A)
                 (A) (A) (A) (A) (A) (A) (A) (A) (A) (A) (A) (A)
                 (A) (A) (A) (A) (A) (A) (A) (A) (A) (A) (A) (A)
                 (A) (A) (A) (A) (A) (A) (A) (A) (A) (A) (A) (A)
                 (A) (A) (A) (A) (A) (A) (A) (A) (A) (A) (A) (A)
                 (A) (A) (A) (A) (A) (A) (A) (A) (A) (A) (A) (A)
                 (A) (A) (A) (A) (A) (A) (A) (A) (A) (A) (A) (A)
                 (A) (A) (A) (A) (A) (A) (A) (A) (A) (A) (A) (A)
                 (A) (A) (A) (A) (A) (A) (A) (A) (A) (A) (A) (A)
                 (A) (A) (A) (A) (A) (A) (A) (A) (A) (A) (A) (A)
                 (A) (A) (A) (A) (A) (A) (A) (A) (A) (A) (A) (A)
                 (A) (A) (A) (A) (A) (A) (A) (A) (A) (A) (A) (A)
                 (A) (A) (A) (A) (A) (A) (A) (A) (A) (A) (A) (A)
                 (A) (A) (A) (A) (A) (A) (A) (A) (A) (A) (A) (A)
                 (A) (A) (A) (A) (A) (A) (A) (A) (A) (A) (A) (A)
                 (A) (A) (A) (A) (A) (A) (A) (A) (A) (A) (A) (A)
                 (A) (A) (A) (A) (A) (A) (A) (A) (A) (A) (A) (A)
                 (A) (A) (A) (A) (A) (A) (A) (A) (A) (A) (A) (A)
                 (A) (A) (A) (A) (A) (A) (A) (A) (A) (A) (A) (A)
                 (A) (A) (A) (A) (A) (A) (A) (A) (A) (A) (A) (A)
                 (A) (A) (A) (A) (A) (A) (A) (A) (A) (A) (A) (A)
                 (A) (A) (A) (A) (A) (A) (A) (A) (A) (A) (A) (A)
                 (A) (A) (A) (A) (A) (A) (A) (A) (A) (A) (A) (A)
                 (A) (A) (A) (A) (A) (A) (A) (A) (A) (A) (A) (A)
                 (A) (A) (A) (A) (A) (A) (A) (A) (A) (A) (A) (A)
                 (A) (A) (A) (A) (A) (A) (A) (A) (A) (A) (A) (A)
                 (A) (A) (A) (A) (A) (A) (A) (A) (A) (A) (A) (A)
                 (A) (A) (A)
 The electronic state is 1-A.
 Alpha  occ. eigenvalues --  -91.99773 -91.98898 -91.98754 -20.61791 -11.32665
 Alpha  occ. eigenvalues --  -11.29445 -11.29437 -11.28209 -11.27833 -11.27438
 Alpha  occ. eigenvalues --  -11.27128 -11.26672 -11.25980 -11.25758  -8.99927
 Alpha  occ. eigenvalues --   -8.99010  -8.98829  -6.68095  -6.68003  -6.67813
 Alpha  occ. eigenvalues --   -6.67177  -6.67097  -6.66986  -6.66900  -6.66900
 Alpha  occ. eigenvalues --   -6.66698  -1.41871  -1.20084  -1.17761  -1.11522
 Alpha  occ. eigenvalues --   -1.02442  -1.01913  -0.99004  -0.94362  -0.93769
 Alpha  occ. eigenvalues --   -0.82651  -0.80848  -0.76347  -0.74172  -0.71052
 Alpha  occ. eigenvalues --   -0.69755  -0.66762  -0.65660  -0.61021  -0.60728
 Alpha  occ. eigenvalues --   -0.58684  -0.56542  -0.55453  -0.54279  -0.52695
 Alpha  occ. eigenvalues --   -0.52152  -0.51225  -0.49711  -0.47955  -0.46190
 Alpha  occ. eigenvalues --   -0.45409  -0.38969  -0.35549  -0.34119  -0.31612
 Alpha  occ. eigenvalues --   -0.25924
 Alpha virt. eigenvalues --    0.02722   0.03701   0.03911   0.04970   0.05120
 Alpha virt. eigenvalues --    0.05577   0.06249   0.08498   0.09156   0.09519
 Alpha virt. eigenvalues --    0.10348   0.10633   0.10680   0.10963   0.11289
 Alpha virt. eigenvalues --    0.12317   0.12706   0.12979   0.13114   0.13598
 Alpha virt. eigenvalues --    0.13852   0.14117   0.14644   0.14969   0.15284
 Alpha virt. eigenvalues --    0.15420   0.15709   0.16419   0.16742   0.17193
 Alpha virt. eigenvalues --    0.17691   0.18400   0.18675   0.19127   0.19408
 Alpha virt. eigenvalues --    0.19472   0.20169   0.20698   0.21235   0.21922
 Alpha virt. eigenvalues --    0.22324   0.22589   0.22816   0.23169   0.23349
 Alpha virt. eigenvalues --    0.24108   0.24317   0.25216   0.25794   0.25827
 Alpha virt. eigenvalues --    0.26564   0.27007   0.27315   0.27802   0.28088
 Alpha virt. eigenvalues --    0.28853   0.29389   0.29779   0.31192   0.31589
 Alpha virt. eigenvalues --    0.31924   0.32076   0.32540   0.32943   0.33502
 Alpha virt. eigenvalues --    0.33931   0.34170   0.34999   0.35406   0.35818
 Alpha virt. eigenvalues --    0.36195   0.36815   0.37958   0.38988   0.39395
 Alpha virt. eigenvalues --    0.39894   0.40333   0.41309   0.41779   0.42066
 Alpha virt. eigenvalues --    0.42286   0.42617   0.44516   0.45167   0.45255
 Alpha virt. eigenvalues --    0.45498   0.46587   0.47296   0.47498   0.48372
 Alpha virt. eigenvalues --    0.48868   0.49625   0.50465   0.51026   0.51862
 Alpha virt. eigenvalues --    0.52098   0.53631   0.53699   0.54028   0.54725
 Alpha virt. eigenvalues --    0.55952   0.56222   0.58110   0.58800   0.59030
 Alpha virt. eigenvalues --    0.59928   0.61020   0.62215   0.62309   0.62905
 Alpha virt. eigenvalues --    0.63377   0.63405   0.64424   0.65557   0.66035
 Alpha virt. eigenvalues --    0.66617   0.66682   0.67228   0.67761   0.68149
 Alpha virt. eigenvalues --    0.68557   0.69036   0.69418   0.70021   0.70495
 Alpha virt. eigenvalues --    0.70892   0.71616   0.72398   0.73007   0.73797
 Alpha virt. eigenvalues --    0.74214   0.74244   0.75149   0.75864   0.76233
 Alpha virt. eigenvalues --    0.77862   0.78074   0.78401   0.78844   0.80058
 Alpha virt. eigenvalues --    0.81174   0.82237   0.83509   0.83875   0.84658
 Alpha virt. eigenvalues --    0.85441   0.85826   0.86376   0.87037   0.87256
 Alpha virt. eigenvalues --    0.89050   0.89196   0.90516   0.90733   0.91705
 Alpha virt. eigenvalues --    0.92008   0.92847   0.93111   0.93930   0.95197
 Alpha virt. eigenvalues --    0.95662   0.96125   0.96819   0.97092   0.98633
 Alpha virt. eigenvalues --    0.98776   1.00016   1.00615   1.01609   1.02826
 Alpha virt. eigenvalues --    1.04442   1.04469   1.05713   1.07464   1.08221
 Alpha virt. eigenvalues --    1.09469   1.09515   1.10629   1.11743   1.12906
 Alpha virt. eigenvalues --    1.13365   1.15758   1.16152   1.17576   1.18866
 Alpha virt. eigenvalues --    1.19711   1.20633   1.21976   1.22237   1.23116
 Alpha virt. eigenvalues --    1.24223   1.25344   1.25764   1.27691   1.28519
 Alpha virt. eigenvalues --    1.29399   1.29701   1.30303   1.30691   1.32473
 Alpha virt. eigenvalues --    1.33892   1.34681   1.35030   1.35747   1.37505
 Alpha virt. eigenvalues --    1.38451   1.38909   1.39833   1.41970   1.44279
 Alpha virt. eigenvalues --    1.44989   1.45271   1.48431   1.49130   1.50776
 Alpha virt. eigenvalues --    1.51785   1.53820   1.55647   1.56080   1.56713
 Alpha virt. eigenvalues --    1.57503   1.59337   1.61013   1.61678   1.62193
 Alpha virt. eigenvalues --    1.63185   1.64351   1.66003   1.67052   1.68843
 Alpha virt. eigenvalues --    1.69318   1.69794   1.71204   1.72271   1.72984
 Alpha virt. eigenvalues --    1.74032   1.74809   1.75888   1.76410   1.77287
 Alpha virt. eigenvalues --    1.79623   1.80717   1.81217   1.83213   1.83501
 Alpha virt. eigenvalues --    1.84658   1.85883   1.87252   1.88749   1.89086
 Alpha virt. eigenvalues --    1.90424   1.92667   1.93543   1.94834   1.96202
 Alpha virt. eigenvalues --    1.96896   1.99919   2.00237   2.01598   2.02210
 Alpha virt. eigenvalues --    2.03055   2.06246   2.07855   2.08632   2.09950
 Alpha virt. eigenvalues --    2.10073   2.10377   2.13176   2.14298   2.16113
 Alpha virt. eigenvalues --    2.17051   2.18338   2.18737   2.19527   2.20393
 Alpha virt. eigenvalues --    2.23593   2.25739   2.26584   2.27608   2.29093
 Alpha virt. eigenvalues --    2.31664   2.33296   2.33357   2.35032   2.36997
 Alpha virt. eigenvalues --    2.38267   2.39847   2.40343   2.42842   2.44183
 Alpha virt. eigenvalues --    2.45485   2.47177   2.48288   2.50114   2.53715
 Alpha virt. eigenvalues --    2.54855   2.55858   2.56480   2.60624   2.64603
 Alpha virt. eigenvalues --    2.71984   2.76729   2.79460   2.81125   2.84186
 Alpha virt. eigenvalues --    2.87606   2.93147   2.94901   2.98470   3.01395
 Alpha virt. eigenvalues --    3.14437   3.18512   3.23358   3.25007   3.30882
 Alpha virt. eigenvalues --    3.35665   3.46447   3.53485   3.66304   3.75970
 Alpha virt. eigenvalues --    3.76295   3.77011   3.85373   3.92384   4.12514
 Alpha virt. eigenvalues --    4.24286   4.42763
          Condensed to atoms (all electrons):
               1          2          3          4          5          6
     1  C    8.083255  -2.130987   0.146737   0.225126  -0.106762  -0.353410
     2  C   -2.130987  11.725054  -2.407903   0.417123   0.151136  -0.446431
     3  C    0.146737  -2.407903  12.646188  -1.566753   0.067582  -0.130382
     4  C    0.225126   0.417123  -1.566753   6.702654  -0.065735   0.195252
     5  H   -0.106762   0.151136   0.067582  -0.065735   1.556902  -0.025735
     6  S   -0.353410  -0.446431  -0.130382   0.195252  -0.025735  16.379273
     7  H   -0.008707   0.057328  -0.004300   0.228255  -0.057125  -0.112266
     8  C   -0.290533  -0.361370  -3.280639   0.584302  -0.050090  -0.126375
     9  S   -0.091394   0.268919  -0.624085   0.095588   0.009872   0.003550
    10  C   -0.095516   0.043028  -0.012331   0.049566  -0.000181   0.019327
    11  C    0.011112  -0.022448   0.239736  -0.051531  -0.000699  -0.058804
    12  C    0.071593  -0.800859   0.021861  -0.415891  -0.001767   0.112558
    13  H   -0.014040   0.033441   0.031095   0.010528  -0.001065  -0.000794
    14  S    0.000648  -0.008694  -0.049312   0.000699   0.000051   0.012951
    15  C   -0.001991  -0.008854   0.019543   0.000937  -0.000042   0.004359
    16  C   -0.004480   0.021754  -0.283440   0.001679  -0.000320   0.010399
    17  H   -0.000060   0.000071  -0.000824   0.000014  -0.000002   0.000149
    18  H   -0.000190   0.002192  -0.005352   0.000238   0.000011   0.000250
    19  O    0.089311  -0.732730   0.292759  -0.055550  -0.045596   0.022926
    20  H   -0.117649  -0.011299  -0.017901  -0.010044  -0.009420   0.009473
               7          8          9         10         11         12
     1  C   -0.008707  -0.290533  -0.091394  -0.095516   0.011112   0.071593
     2  C    0.057328  -0.361370   0.268919   0.043028  -0.022448  -0.800859
     3  C   -0.004300  -3.280639  -0.624085  -0.012331   0.239736   0.021861
     4  C    0.228255   0.584302   0.095588   0.049566  -0.051531  -0.415891
     5  H   -0.057125  -0.050090   0.009872  -0.000181  -0.000699  -0.001767
     6  S   -0.112266  -0.126375   0.003550   0.019327  -0.058804   0.112558
     7  H    1.229499   0.009603  -0.000588   0.000286   0.001629   0.001856
     8  C    0.009603  13.635612   0.327217  -0.753358  -0.465996  -3.789909
     9  S   -0.000588   0.327217  16.837835   0.224794  -0.381782  -0.956490
    10  C    0.000286  -0.753358   0.224794  10.403497  -0.534079  -0.502494
    11  C    0.001629  -0.465996  -0.381782  -0.534079  12.277915  -3.464920
    12  C    0.001856  -3.789909  -0.956490  -0.502494  -3.464920  17.059352
    13  H    0.003617   0.695978   0.039069  -0.116454   0.425507  -1.273363
    14  S   -0.000084  -0.366140   0.136421   0.141808  -0.530504   0.132085
    15  C    0.000017   0.016730  -0.118371  -0.198607  -0.952599   0.098234
    16  C    0.000020  -0.013792  -0.260056  -2.699059  -0.315510  -0.467145
    17  H    0.000001  -0.002574   0.013650   0.073396  -0.089833   0.033164
    18  H    0.000005   0.055099   0.048437   0.465916   0.021411  -0.045471
    19  O   -0.002124   0.013141  -0.089041   0.012932  -0.008149   0.019142
    20  H    0.001003   0.015449   0.024030   0.005911  -0.000940  -0.004758
              13         14         15         16         17         18
     1  C   -0.014040   0.000648  -0.001991  -0.004480  -0.000060  -0.000190
     2  C    0.033441  -0.008694  -0.008854   0.021754   0.000071   0.002192
     3  C    0.031095  -0.049312   0.019543  -0.283440  -0.000824  -0.005352
     4  C    0.010528   0.000699   0.000937   0.001679   0.000014   0.000238
     5  H   -0.001065   0.000051  -0.000042  -0.000320  -0.000002   0.000011
     6  S   -0.000794   0.012951   0.004359   0.010399   0.000149   0.000250
     7  H    0.003617  -0.000084   0.000017   0.000020   0.000001   0.000005
     8  C    0.695978  -0.366140   0.016730  -0.013792  -0.002574   0.055099
     9  S    0.039069   0.136421  -0.118371  -0.260056   0.013650   0.048437
    10  C   -0.116454   0.141808  -0.198607  -2.699059   0.073396   0.465916
    11  C    0.425507  -0.530504  -0.952599  -0.315510  -0.089833   0.021411
    12  C   -1.273363   0.132085   0.098234  -0.467145   0.033164  -0.045471
    13  H    1.709973  -0.056873   0.014263  -0.032944   0.002201   0.000836
    14  S   -0.056873  16.046058   0.217076  -0.078105  -0.131421   0.001676
    15  C    0.014263   0.217076   6.637306   0.302811   0.292881  -0.123247
    16  C   -0.032944  -0.078105   0.302811   9.957416  -0.029681  -0.396276
    17  H    0.002201  -0.131421   0.292881  -0.029681   1.256819  -0.061729
    18  H    0.000836   0.001676  -0.123247  -0.396276  -0.061729   1.334845
    19  O    0.001168   0.000601   0.000222   0.001725   0.000035   0.000100
    20  H    0.000437  -0.000017   0.000057   0.000669   0.000004   0.000055
              19         20
     1  C    0.089311  -0.117649
     2  C   -0.732730  -0.011299
     3  C    0.292759  -0.017901
     4  C   -0.055550  -0.010044
     5  H   -0.045596  -0.009420
     6  S    0.022926   0.009473
     7  H   -0.002124   0.001003
     8  C    0.013141   0.015449
     9  S   -0.089041   0.024030
    10  C    0.012932   0.005911
    11  C   -0.008149  -0.000940
    12  C    0.019142  -0.004758
    13  H    0.001168   0.000437
    14  S    0.000601  -0.000017
    15  C    0.000222   0.000057
    16  C    0.001725   0.000669
    17  H    0.000035   0.000004
    18  H    0.000100   0.000055
    19  O    9.096475   0.352909
    20  H    0.352909   0.549734
 Mulliken charges:
               1
     1  C    0.587938
     2  C    0.211529
     3  C    0.917721
     4  C   -0.346458
     5  H   -0.421014
     6  S    0.483731
     7  H   -0.347924
     8  C    0.147644
     9  S    0.492424
    10  C   -0.528384
    11  C   -0.099515
    12  C    0.173225
    13  H   -0.472579
    14  S    0.531075
    15  C   -0.200726
    16  C    0.284335
    17  H   -0.356259
    18  H   -0.298807
    19  O   -0.970257
    20  H    0.212298
 Sum of Mulliken charges =  -0.00000
 Mulliken charges with hydrogens summed into heavy atoms:
               1
     1  C    0.166924
     2  C    0.211529
     3  C    0.917721
     4  C   -0.694382
     6  S    0.483731
     8  C    0.147644
     9  S    0.492424
    10  C   -0.528384
    11  C   -0.099515
    12  C   -0.299354
    14  S    0.531075
    15  C   -0.556984
    16  C   -0.014471
    19  O   -0.757959
 Electronic spatial extent (au):  <R**2>=           4337.8089
 Charge=             -0.0000 electrons
 Dipole moment (field-independent basis, Debye):
    X=             -2.7270    Y=              1.0172    Z=              0.2098  Tot=              2.9181
 Quadrupole moment (field-independent basis, Debye-Ang):
   XX=            -76.4251   YY=            -95.6574   ZZ=           -111.1190
   XY=             -0.9400   XZ=             -1.8973   YZ=             -0.0127
 Traceless Quadrupole moment (field-independent basis, Debye-Ang):
   XX=             17.9754   YY=             -1.2569   ZZ=            -16.7185
   XY=             -0.9400   XZ=             -1.8973   YZ=             -0.0127
 Octapole moment (field-independent basis, Debye-Ang**2):
  XXX=            -62.5526  YYY=             22.7647  ZZZ=              1.8331  XYY=            -26.2648
  XXY=             39.5505  XXZ=              2.6847  XZZ=             -5.3485  YZZ=              4.2621
  YYZ=              2.2074  XYZ=             -9.4257
 Hexadecapole moment (field-independent basis, Debye-Ang**3):
 XXXX=          -3993.1218 YYYY=          -1001.3435 ZZZZ=           -164.0245 XXXY=            -16.0090
 XXXZ=            -31.6272 YYYX=            -48.7177 YYYZ=              6.2792 ZZZX=             -2.6183
 ZZZY=              4.9510 XXYY=           -838.5366 XXZZ=           -925.0723 YYZZ=           -218.6086
 XXYZ=             19.2754 YYXZ=            -15.1140 ZZXY=            -15.5395
 N-N= 1.122822087838D+03 E-N=-6.152178630490D+03  KE= 1.648701443860D+03
 Unable to Open any file for archive entry.
 1\1\GINC-CX3-12-21\FOpt\RMP2-FC\Aug-CC-pVDZ\C10H6O1S3\NS5018\27-Oct-20
 21\0\\# opt=modredundant mp2/aug-cc-pvdz\\pBTTT_-20.pdb\\0,1\C,-4.0390
 529969,0.3846110565,0.121910253\C,-2.7005652473,0.8659574971,0.1637795
 691\C,-1.7324999914,-0.1341150767,-0.0011404028\C,-4.0956721031,-0.990
 0405598,-0.0753695732\H,-4.9259267696,1.0143609123,0.2328972033\S,-2.5
 150758317,-1.6812157355,-0.2228521303\H,-4.977846842,-1.6256986259,-0.
 1501625036\C,-0.2872150685,-0.0280347706,0.0268717434\S,0.5130996722,1
 .5295973248,-0.228544141\C,2.0821197243,0.7801999688,-0.1379066763\C,1
 .969117306,-0.6150981994,0.0810368767\C,0.6305527849,-1.0756236055,0.1
 781898915\H,0.3237467207,-2.1085588508,0.3592971188\S,3.544048904,-1.3
 512128264,0.2017615931\C,4.3248462491,0.1967542496,-0.0380633881\C,3.4
 281541604,1.245859717,-0.201336089\H,5.4147560454,0.2449319546,-0.0506
 778627\H,3.7398355546,2.2795795414,-0.3618837946\O,-2.317624344,2.1784
 138173,0.344262165\H,-3.1137979275,2.7183322113,0.4539301477\\Version=
 ES64L-G16RevC.01\State=1-A\HF=-1649.6305521\MP2=-1651.6233193\RMSD=9.0
 61e-09\RMSF=2.887e-04\Dipole=-0.8272871,0.3514494,0.0704319\PG=C01 [X(
 C10H6O1S3)]\\@
 The archive entry for this job was punched.


 ON A TOMBSTONE, "HERE LIES LESTER MOORE,
 FOUR SLUGS FROM A 44, NO LES, NO MORE".
 Job cpu time:       0 days 12 hours  8 minutes 20.4 seconds.
 Elapsed time:       0 days  1 hours 38 minutes 54.5 seconds.
 File lengths (MBytes):  RWF=    106 Int=      0 D2E=      0 Chk=     16 Scr=      1
 Normal termination of Gaussian 16 at Wed Oct 27 06:21:51 2021.
