 Entering Gaussian System, Link 0=g16
 Input=pBTTT_-10.gjf
 Output=pBTTT_-10.log
 Initial command:
 /apps/gaussian/g16-c01-avx/g16/l1.exe "/tmp/pbs.4766300[165].pbs/Gau-761054.inp" -scrdir="/tmp/pbs.4766300[165].pbs/"
 Entering Link 1 = /apps/gaussian/g16-c01-avx/g16/l1.exe PID=    761055.
  
 Copyright (c) 1988-2019, Gaussian, Inc.  All Rights Reserved.
  
 This is part of the Gaussian(R) 16 program.  It is based on
 the Gaussian(R) 09 system (copyright 2009, Gaussian, Inc.),
 the Gaussian(R) 03 system (copyright 2003, Gaussian, Inc.),
 the Gaussian(R) 98 system (copyright 1998, Gaussian, Inc.),
 the Gaussian(R) 94 system (copyright 1995, Gaussian, Inc.),
 the Gaussian 92(TM) system (copyright 1992, Gaussian, Inc.),
 the Gaussian 90(TM) system (copyright 1990, Gaussian, Inc.),
 the Gaussian 88(TM) system (copyright 1988, Gaussian, Inc.),
 the Gaussian 86(TM) system (copyright 1986, Carnegie Mellon
 University), and the Gaussian 82(TM) system (copyright 1983,
 Carnegie Mellon University). Gaussian is a federally registered
 trademark of Gaussian, Inc.
  
 This software contains proprietary and confidential information,
 including trade secrets, belonging to Gaussian, Inc.
  
 This software is provided under written license and may be
 used, copied, transmitted, or stored only in accord with that
 written license.
  
 The following legend is applicable only to US Government
 contracts under FAR:
  
                    RESTRICTED RIGHTS LEGEND
  
 Use, reproduction and disclosure by the US Government is
 subject to restrictions as set forth in subparagraphs (a)
 and (c) of the Commercial Computer Software - Restricted
 Rights clause in FAR 52.227-19.
  
 Gaussian, Inc.
 340 Quinnipiac St., Bldg. 40, Wallingford CT 06492
  
  
 ---------------------------------------------------------------
 Warning -- This program may not be used in any manner that
 competes with the business of Gaussian, Inc. or will provide
 assistance to any competitor of Gaussian, Inc.  The licensee
 of this program is prohibited from giving any competitor of
 Gaussian, Inc. access to this program.  By using this program,
 the user acknowledges that Gaussian, Inc. is engaged in the
 business of creating and licensing software in the field of
 computational chemistry and represents and warrants to the
 licensee that it is not a competitor of Gaussian, Inc. and that
 it will not use this program in any manner prohibited above.
 ---------------------------------------------------------------
  

 Cite this work as:
 Gaussian 16, Revision C.01,
 M. J. Frisch, G. W. Trucks, H. B. Schlegel, G. E. Scuseria, 
 M. A. Robb, J. R. Cheeseman, G. Scalmani, V. Barone, 
 G. A. Petersson, H. Nakatsuji, X. Li, M. Caricato, A. V. Marenich, 
 J. Bloino, B. G. Janesko, R. Gomperts, B. Mennucci, H. P. Hratchian, 
 J. V. Ortiz, A. F. Izmaylov, J. L. Sonnenberg, D. Williams-Young, 
 F. Ding, F. Lipparini, F. Egidi, J. Goings, B. Peng, A. Petrone, 
 T. Henderson, D. Ranasinghe, V. G. Zakrzewski, J. Gao, N. Rega, 
 G. Zheng, W. Liang, M. Hada, M. Ehara, K. Toyota, R. Fukuda, 
 J. Hasegawa, M. Ishida, T. Nakajima, Y. Honda, O. Kitao, H. Nakai, 
 T. Vreven, K. Throssell, J. A. Montgomery, Jr., J. E. Peralta, 
 F. Ogliaro, M. J. Bearpark, J. J. Heyd, E. N. Brothers, K. N. Kudin, 
 V. N. Staroverov, T. A. Keith, R. Kobayashi, J. Normand, 
 K. Raghavachari, A. P. Rendell, J. C. Burant, S. S. Iyengar, 
 J. Tomasi, M. Cossi, J. M. Millam, M. Klene, C. Adamo, R. Cammi, 
 J. W. Ochterski, R. L. Martin, K. Morokuma, O. Farkas, 
 J. B. Foresman, and D. J. Fox, Gaussian, Inc., Wallingford CT, 2019.
 
 ******************************************
 Gaussian 16:  ES64L-G16RevC.01  3-Jul-2019
                27-Oct-2021 
 ******************************************
 %mem=100GB
 %nprocshared=8
 Will use up to    8 processors via shared memory.
 ----------------------------------
 # opt=modredundant mp2/aug-cc-pvdz
 ----------------------------------
 1/18=120,19=15,38=1/1,3;
 2/9=110,12=2,17=6,18=5,40=1/2;
 3/5=16,7=10,11=9,25=1,30=1,71=1/1,2,3;
 4//1;
 5/5=2,38=5/2;
 8/6=4,10=1/1;
 9/15=2,16=-3/6;
 10/5=1/2;
 6/7=2,8=2,9=2,10=2/1;
 7/12=2/1,2,3,16;
 1/18=20,19=15/3(2);
 2/9=110/2;
 99//99;
 2/9=110/2;
 3/5=16,7=10,11=9,25=1,30=1,71=1/1,2,3;
 4/5=5,16=3,69=1/1;
 5/5=2,38=5/2;
 8/6=4,10=1/1;
 9/15=2,16=-3/6;
 10/5=1/2;
 7/12=2/1,2,3,16;
 1/18=20,19=15/3(-8);
 2/9=110/2;
 6/7=2,8=2,9=2,10=2/1;
 99/9=10/99;
 -------------
 pBTTT_-10.pdb
 -------------
 Symbolic Z-matrix:
 Charge =  0 Multiplicity = 1
 C                    -4.028     0.364     0.061 
 C                    -2.676     0.852     0.086 
 C                    -1.735    -0.121     0.004 
 C                    -4.083    -0.978    -0.042 
 H                    -4.895     1.004     0.119 
 S                    -2.513    -1.686    -0.117 
 H                    -4.963    -1.597    -0.082 
 C                    -0.276    -0.011     0.012 
 S                     0.537     1.547    -0.12 
 C                     2.089     0.771    -0.069 
 C                     1.963    -0.582     0.045 
 C                     0.609    -1.038     0.092 
 H                     0.319    -2.072     0.184 
 S                     3.518    -1.354     0.108 
 C                     4.312     0.195    -0.021 
 C                     3.449     1.229    -0.106 
 H                     5.388     0.242    -0.028 
 H                     3.753     2.259    -0.191 
 O                    -2.36      2.161     0.184 
 H                    -3.135     2.695     0.223 
 
 The following ModRedundant input section has been read:
 D       2       3       8       9 F                                           
 

 GradGradGradGradGradGradGradGradGradGradGradGradGradGradGradGradGradGrad
 Berny optimization.
 Initialization pass.
                           ----------------------------
                           !    Initial Parameters    !
                           ! (Angstroms and Degrees)  !
 --------------------------                            --------------------------
 ! Name  Definition              Value          Derivative Info.                !
 --------------------------------------------------------------------------------
 ! R1    R(1,2)                  1.4376         estimate D2E/DX2                !
 ! R2    R(1,4)                  1.3471         estimate D2E/DX2                !
 ! R3    R(1,5)                  1.0792         estimate D2E/DX2                !
 ! R4    R(2,3)                  1.3561         estimate D2E/DX2                !
 ! R5    R(2,19)                 1.3502         estimate D2E/DX2                !
 ! R6    R(3,6)                  1.7519         estimate D2E/DX2                !
 ! R7    R(3,8)                  1.4632         estimate D2E/DX2                !
 ! R8    R(4,6)                  1.7239         estimate D2E/DX2                !
 ! R9    R(4,7)                  1.0766         estimate D2E/DX2                !
 ! R10   R(8,9)                  1.7623         estimate D2E/DX2                !
 ! R11   R(8,12)                 1.3581         estimate D2E/DX2                !
 ! R12   R(9,10)                 1.7359         estimate D2E/DX2                !
 ! R13   R(10,11)                1.3636         estimate D2E/DX2                !
 ! R14   R(10,16)                1.4355         estimate D2E/DX2                !
 ! R15   R(11,12)                1.4295         estimate D2E/DX2                !
 ! R16   R(11,14)                1.7372         estimate D2E/DX2                !
 ! R17   R(12,13)                1.0778         estimate D2E/DX2                !
 ! R18   R(14,15)                1.7454         estimate D2E/DX2                !
 ! R19   R(15,16)                1.3495         estimate D2E/DX2                !
 ! R20   R(15,17)                1.077          estimate D2E/DX2                !
 ! R21   R(16,18)                1.0773         estimate D2E/DX2                !
 ! R22   R(19,20)                0.942          estimate D2E/DX2                !
 ! A1    A(2,1,4)              112.2041         estimate D2E/DX2                !
 ! A2    A(2,1,5)              123.5939         estimate D2E/DX2                !
 ! A3    A(4,1,5)              124.202          estimate D2E/DX2                !
 ! A4    A(1,2,3)              114.0783         estimate D2E/DX2                !
 ! A5    A(1,2,19)             123.4            estimate D2E/DX2                !
 ! A6    A(3,2,19)             122.5217         estimate D2E/DX2                !
 ! A7    A(2,3,6)              109.6931         estimate D2E/DX2                !
 ! A8    A(2,3,8)              129.6182         estimate D2E/DX2                !
 ! A9    A(6,3,8)              120.688          estimate D2E/DX2                !
 ! A10   A(1,4,6)              112.0426         estimate D2E/DX2                !
 ! A11   A(1,4,7)              127.5161         estimate D2E/DX2                !
 ! A12   A(6,4,7)              120.4409         estimate D2E/DX2                !
 ! A13   A(3,6,4)               91.9804         estimate D2E/DX2                !
 ! A14   A(3,8,9)              121.7401         estimate D2E/DX2                !
 ! A15   A(3,8,12)             126.3898         estimate D2E/DX2                !
 ! A16   A(9,8,12)             111.8595         estimate D2E/DX2                !
 ! A17   A(8,9,10)              90.8622         estimate D2E/DX2                !
 ! A18   A(9,10,11)            111.3081         estimate D2E/DX2                !
 ! A19   A(9,10,16)            134.7187         estimate D2E/DX2                !
 ! A20   A(11,10,16)           113.9698         estimate D2E/DX2                !
 ! A21   A(10,11,12)           114.0025         estimate D2E/DX2                !
 ! A22   A(10,11,14)           111.1767         estimate D2E/DX2                !
 ! A23   A(12,11,14)           134.8199         estimate D2E/DX2                !
 ! A24   A(8,12,11)            111.9673         estimate D2E/DX2                !
 ! A25   A(8,12,13)            123.7218         estimate D2E/DX2                !
 ! A26   A(11,12,13)           124.3104         estimate D2E/DX2                !
 ! A27   A(11,14,15)            90.5804         estimate D2E/DX2                !
 ! A28   A(14,15,16)           113.1868         estimate D2E/DX2                !
 ! A29   A(14,15,17)           119.5821         estimate D2E/DX2                !
 ! A30   A(16,15,17)           127.2309         estimate D2E/DX2                !
 ! A31   A(10,16,15)           111.0861         estimate D2E/DX2                !
 ! A32   A(10,16,18)           125.0591         estimate D2E/DX2                !
 ! A33   A(15,16,18)           123.8547         estimate D2E/DX2                !
 ! A34   A(2,19,20)            111.1039         estimate D2E/DX2                !
 ! D1    D(4,1,2,3)             -0.0854         estimate D2E/DX2                !
 ! D2    D(4,1,2,19)           179.9993         estimate D2E/DX2                !
 ! D3    D(5,1,2,3)            179.8811         estimate D2E/DX2                !
 ! D4    D(5,1,2,19)            -0.0342         estimate D2E/DX2                !
 ! D5    D(2,1,4,6)             -0.2041         estimate D2E/DX2                !
 ! D6    D(2,1,4,7)           -179.9678         estimate D2E/DX2                !
 ! D7    D(5,1,4,6)            179.8297         estimate D2E/DX2                !
 ! D8    D(5,1,4,7)              0.066          estimate D2E/DX2                !
 ! D9    D(1,2,3,6)              0.3245         estimate D2E/DX2                !
 ! D10   D(1,2,3,8)           -179.3628         estimate D2E/DX2                !
 ! D11   D(19,2,3,6)          -179.7593         estimate D2E/DX2                !
 ! D12   D(19,2,3,8)             0.5533         estimate D2E/DX2                !
 ! D13   D(1,2,19,20)           -0.6128         estimate D2E/DX2                !
 ! D14   D(3,2,19,20)          179.4789         estimate D2E/DX2                !
 ! D15   D(2,3,6,4)             -0.3688         estimate D2E/DX2                !
 ! D16   D(8,3,6,4)            179.3511         estimate D2E/DX2                !
 ! D17   D(2,3,8,9)            -10.01           Frozen                          !
 ! D18   D(2,3,8,12)           171.2724         estimate D2E/DX2                !
 ! D19   D(6,3,8,9)            170.3323         estimate D2E/DX2                !
 ! D20   D(6,3,8,12)            -8.3853         estimate D2E/DX2                !
 ! D21   D(1,4,6,3)              0.3298         estimate D2E/DX2                !
 ! D22   D(7,4,6,3)           -179.8877         estimate D2E/DX2                !
 ! D23   D(3,8,9,10)          -178.7203         estimate D2E/DX2                !
 ! D24   D(12,8,9,10)            0.1674         estimate D2E/DX2                !
 ! D25   D(3,8,12,11)          178.7018         estimate D2E/DX2                !
 ! D26   D(3,8,12,13)           -1.5335         estimate D2E/DX2                !
 ! D27   D(9,8,12,11)           -0.1231         estimate D2E/DX2                !
 ! D28   D(9,8,12,13)          179.6416         estimate D2E/DX2                !
 ! D29   D(8,9,10,11)           -0.1681         estimate D2E/DX2                !
 ! D30   D(8,9,10,16)         -179.4261         estimate D2E/DX2                !
 ! D31   D(9,10,11,12)           0.1327         estimate D2E/DX2                !
 ! D32   D(9,10,11,14)        -179.5643         estimate D2E/DX2                !
 ! D33   D(16,10,11,12)        179.5557         estimate D2E/DX2                !
 ! D34   D(16,10,11,14)         -0.1413         estimate D2E/DX2                !
 ! D35   D(9,10,16,15)         179.3922         estimate D2E/DX2                !
 ! D36   D(9,10,16,18)          -0.6572         estimate D2E/DX2                !
 ! D37   D(11,10,16,15)          0.1487         estimate D2E/DX2                !
 ! D38   D(11,10,16,18)       -179.9007         estimate D2E/DX2                !
 ! D39   D(10,11,12,8)          -0.0053         estimate D2E/DX2                !
 ! D40   D(10,11,12,13)       -179.7684         estimate D2E/DX2                !
 ! D41   D(14,11,12,8)         179.5964         estimate D2E/DX2                !
 ! D42   D(14,11,12,13)         -0.1667         estimate D2E/DX2                !
 ! D43   D(10,11,14,15)          0.0763         estimate D2E/DX2                !
 ! D44   D(12,11,14,15)       -179.5336         estimate D2E/DX2                !
 ! D45   D(11,14,15,16)          0.0087         estimate D2E/DX2                !
 ! D46   D(11,14,15,17)       -179.8543         estimate D2E/DX2                !
 ! D47   D(14,15,16,10)         -0.0869         estimate D2E/DX2                !
 ! D48   D(14,15,16,18)        179.9618         estimate D2E/DX2                !
 ! D49   D(17,15,16,10)        179.7634         estimate D2E/DX2                !
 ! D50   D(17,15,16,18)         -0.1879         estimate D2E/DX2                !
 --------------------------------------------------------------------------------
 Trust Radius=3.00D-01 FncErr=1.00D-07 GrdErr=1.00D-07 EigMax=2.50D+02 EigMin=1.00D-04
 Number of steps in this run=    116 maximum allowed number of steps=    120.
 GradGradGradGradGradGradGradGradGradGradGradGradGradGradGradGradGradGrad

                          Input orientation:                          
 ---------------------------------------------------------------------
 Center     Atomic      Atomic             Coordinates (Angstroms)
 Number     Number       Type             X           Y           Z
 ---------------------------------------------------------------------
      1          6           0       -4.028000    0.364000    0.061000
      2          6           0       -2.676000    0.852000    0.086000
      3          6           0       -1.735000   -0.121000    0.004000
      4          6           0       -4.083000   -0.978000   -0.042000
      5          1           0       -4.895000    1.004000    0.119000
      6         16           0       -2.513000   -1.686000   -0.117000
      7          1           0       -4.963000   -1.597000   -0.082000
      8          6           0       -0.276000   -0.011000    0.012000
      9         16           0        0.537000    1.547000   -0.120000
     10          6           0        2.089000    0.771000   -0.069000
     11          6           0        1.963000   -0.582000    0.045000
     12          6           0        0.609000   -1.038000    0.092000
     13          1           0        0.319000   -2.072000    0.184000
     14         16           0        3.518000   -1.354000    0.108000
     15          6           0        4.312000    0.195000   -0.021000
     16          6           0        3.449000    1.229000   -0.106000
     17          1           0        5.388000    0.242000   -0.028000
     18          1           0        3.753000    2.259000   -0.191000
     19          8           0       -2.360000    2.161000    0.184000
     20          1           0       -3.135000    2.695000    0.223000
 ---------------------------------------------------------------------
                    Distance matrix (angstroms):
                    1          2          3          4          5
     1  C    0.000000
     2  C    1.437593   0.000000
     3  C    2.344424   1.356073   0.000000
     4  C    1.347070   2.311911   2.499934   0.000000
     5  H    1.079191   2.224445   3.356255   2.147927   0.000000
     6  S    2.555271   2.551318   1.751899   1.723888   3.600794
     7  H    2.177199   3.355025   3.550487   1.076643   2.609641
     8  C    3.771012   2.551518   1.463163   3.928263   4.730416
     9  S    4.719266   3.293756   2.821273   5.265559   5.464302
    10  C    6.131903   4.768208   3.927336   6.415085   6.990414
    11  C    6.065250   4.855755   3.726849   6.059579   7.039392
    12  C    4.844413   3.789903   2.518525   4.694297   5.870648
    13  H    4.984539   4.186813   2.838612   4.541532   6.054073
    14  S    7.739241   6.575147   5.396769   7.611772   8.737211
    15  C    8.342115   7.019633   6.055303   8.476579   9.243534
    16  C    7.528721   6.139594   5.358027   7.848947   8.350065
    17  H    9.417211   8.087842   7.132315   9.549264  10.312242
    18  H    8.012396   6.586989   5.985029   8.479579   8.744085
    19  O    2.454906   1.350163   2.372878   3.587914   2.787310
    20  H    2.501450   1.904232   3.152430   3.802612   2.442928
                    6          7          8          9         10
     6  S    0.000000
     7  H    2.451866   0.000000
     8  C    2.797577   4.948960   0.000000
     9  S    4.444637   6.335312   1.762316   0.000000
    10  C    5.217045   7.438972   2.492250   1.735938   0.000000
    11  C    4.612986   7.001131   2.310898   2.567750   1.363628
    12  C    3.195382   5.602673   1.358070   2.594678   2.342819
    13  H    2.873990   5.309982   2.152053   3.638283   3.358505
    14  S    6.044320   8.486608   4.025829   4.165831   2.566904
    15  C    7.080113   9.446725   4.592741   4.011026   2.296913
    16  C    6.636474   8.874041   3.927741   2.929345   1.435525
    17  H    8.133321  10.513232   5.669789   5.024310   3.341395
    18  H    7.404813   9.531488   4.628925   3.294638   2.235604
    19  O    3.861790   4.579184   3.015000   2.976915   4.667945
    20  H    4.437978   4.675027   3.942187   3.862530   5.574694
                   11         12         13         14         15
    11  C    0.000000
    12  C    1.429497   0.000000
    13  H    2.223096   1.077831   0.000000
    14  S    1.737233   2.926157   3.279467   0.000000
    15  C    2.475053   3.904519   4.596234   1.745416   0.000000
    16  C    2.347492   3.639243   4.558245   2.592768   1.349500
    17  H    3.523483   4.948903   5.576226   2.462237   1.077049
    18  H    3.366167   4.564541   5.539905   3.632960   2.145105
    19  O    5.121689   4.365435   5.009524   6.849225   6.958647
    20  H    6.063004   5.288666   5.886928   7.789097   7.859220
                   16         17         18         19         20
    16  C    0.000000
    17  H    2.177148   0.000000
    18  H    1.077284   2.601554   0.000000
    19  O    5.890433   7.984924   6.125275   0.000000
    20  H    6.753255   8.872527   6.914191   0.941967   0.000000
 Stoichiometry    C10H6OS3
 Framework group  C1[X(C10H6OS3)]
 Deg. of freedom    54
 Full point group                 C1      NOp   1
 Largest Abelian subgroup         C1      NOp   1
 Largest concise Abelian subgroup C1      NOp   1
                         Standard orientation:                         
 ---------------------------------------------------------------------
 Center     Atomic      Atomic             Coordinates (Angstroms)
 Number     Number       Type             X           Y           Z
 ---------------------------------------------------------------------
      1          6           0       -4.028021    0.363895    0.060959
      2          6           0       -2.676017    0.851884    0.085959
      3          6           0       -1.735026   -0.121124    0.003959
      4          6           0       -4.083033   -0.978104   -0.042041
      5          1           0       -4.895016    1.003903    0.118959
      6         16           0       -2.513039   -1.686118   -0.117041
      7          1           0       -4.963038   -1.597097   -0.082041
      8          6           0       -0.276025   -0.011137    0.011959
      9         16           0        0.536989    1.546856   -0.120041
     10          6           0        2.088982    0.770843   -0.069041
     11          6           0        1.962970   -0.582156    0.044959
     12          6           0        0.608966   -1.038145    0.091959
     13          1           0        0.318958   -2.072142    0.183959
     14         16           0        3.517964   -1.354170    0.107959
     15          6           0        4.311977    0.194824   -0.021041
     16          6           0        3.448986    1.228831   -0.106041
     17          1           0        5.387977    0.241814   -0.028041
     18          1           0        3.752995    2.258828   -0.191041
     19          8           0       -2.360006    2.160881    0.183959
     20          1           0       -3.135001    2.694888    0.222959
 ---------------------------------------------------------------------
 Rotational constants (GHZ):           1.3018253           0.2827486           0.2328163
 Standard basis: Aug-CC-pVDZ (5D, 7F)
 There are   416 symmetry adapted cartesian basis functions of A   symmetry.
 There are   388 symmetry adapted basis functions of A   symmetry.
   388 basis functions,   782 primitive gaussians,   416 cartesian basis functions
    61 alpha electrons       61 beta electrons
       nuclear repulsion energy      1130.6310313957 Hartrees.
 NAtoms=   20 NActive=   20 NUniq=   20 SFac= 1.00D+00 NAtFMM=   60 NAOKFM=F Big=F
 Integral buffers will be    131072 words long.
 Raffenetti 1 integral format.
 Two-electron integral symmetry is turned on.
 One-electron integrals computed using PRISM.
 NBasis=   388 RedAO= T EigKep=  2.36D-06  NBF=   388
 NBsUse=   388 1.00D-06 EigRej= -1.00D+00 NBFU=   388
 ExpMin= 2.97D-02 ExpMax= 1.11D+05 ExpMxC= 1.07D+03 IAcc=3 IRadAn=         5 AccDes= 0.00D+00
 Harris functional with IExCor=  205 and IRadAn=       5 diagonalized for initial guess.
 HarFok:  IExCor=  205 AccDes= 0.00D+00 IRadAn=         5 IDoV= 1 UseB2=F ITyADJ=14
 ICtDFT=  3500011 ScaDFX=  1.000000  1.000000  1.000000  1.000000
 FoFCou: FMM=F IPFlag=           0 FMFlag=      100000 FMFlg1=           0
         NFxFlg=           0 DoJE=T BraDBF=F KetDBF=T FulRan=T
         wScrn=  0.000000 ICntrl=       500 IOpCl=  0 I1Cent=   200000004 NGrid=           0
         NMat0=    1 NMatS0=      1 NMatT0=    0 NMatD0=    1 NMtDS0=    0 NMtDT0=    0
 Petite list used in FoFCou.
 Requested convergence on RMS density matrix=1.00D-08 within 128 cycles.
 Requested convergence on MAX density matrix=1.00D-06.
 Requested convergence on             energy=1.00D-06.
 No special actions if energy rises.
 SCF Done:  E(RHF) =  -1649.64261379     A.U. after   17 cycles
            NFock= 17  Conv=0.85D-08     -V/T= 2.0000
 ExpMin= 2.97D-02 ExpMax= 1.11D+05 ExpMxC= 1.07D+03 IAcc=3 IRadAn=         5 AccDes= 0.00D+00
 HarFok:  IExCor=  205 AccDes= 0.00D+00 IRadAn=         5 IDoV=-2 UseB2=F ITyADJ=14
 ICtDFT= 12500011 ScaDFX=  1.000000  1.000000  1.000000  1.000000
 GSVD:  LWork=        -884 too small for GESVD, short by        3770 words or        3770 for optimal perf.
 Range of M.O.s used for correlation:    27   388
 NBasis=   388 NAE=    61 NBE=    61 NFC=    26 NFV=     0
 NROrb=    362 NOA=    35 NOB=    35 NVA=   327 NVB=   327

 **** Warning!!: The largest alpha MO coefficient is  0.82924366D+02

 Fully direct method using O(ONN) memory.
 JobTyp=1 Pass  1:  I=  27 to  61 NPSUse=  8 ParTrn=T ParDer=T DoDerP=T.
 Spin components of T(2) and E(2):
     alpha-alpha T2 =       0.1139596471D+00 E2=     -0.2743585040D+00
     alpha-beta  T2 =       0.5546516612D+00 E2=     -0.1421357665D+01
     beta-beta   T2 =       0.1139596471D+00 E2=     -0.2743585040D+00
 ANorm=    0.1335129565D+01
 E2 =    -0.1970074673D+01 EUMP2 =    -0.16516126884604D+04
          IDoAtm=11111111111111111111
          Differentiating once with respect to electric field.
                with respect to dipole field.
          Differentiating once with respect to nuclear coordinates.
 Keep R1 ints in memory in canonical form, NReq=2883857471.
          There are     1 degrees of freedom in the 1st order CPHF.  IDoFFX=0 NUNeed=     1.
 LinEq1:  Iter=  0 NonCon=     1 RMS=2.88D-03 Max=6.79D-02 NDo=     1
 AX will form     1 AO Fock derivatives at one time.
 LinEq1:  Iter=  1 NonCon=     1 RMS=6.85D-04 Max=1.82D-02 NDo=     1
 LinEq1:  Iter=  2 NonCon=     1 RMS=3.49D-04 Max=1.05D-02 NDo=     1
 LinEq1:  Iter=  3 NonCon=     1 RMS=9.20D-05 Max=3.10D-03 NDo=     1
 LinEq1:  Iter=  4 NonCon=     1 RMS=3.48D-05 Max=6.87D-04 NDo=     1
 LinEq1:  Iter=  5 NonCon=     1 RMS=1.51D-05 Max=8.39D-04 NDo=     1
 LinEq1:  Iter=  6 NonCon=     1 RMS=6.09D-06 Max=2.16D-04 NDo=     1
 LinEq1:  Iter=  7 NonCon=     1 RMS=2.78D-06 Max=1.23D-04 NDo=     1
 LinEq1:  Iter=  8 NonCon=     1 RMS=1.02D-06 Max=3.17D-05 NDo=     1
 LinEq1:  Iter=  9 NonCon=     1 RMS=4.57D-07 Max=1.60D-05 NDo=     1
 LinEq1:  Iter= 10 NonCon=     1 RMS=1.76D-07 Max=4.12D-06 NDo=     1
 LinEq1:  Iter= 11 NonCon=     1 RMS=7.94D-08 Max=3.43D-06 NDo=     1
 LinEq1:  Iter= 12 NonCon=     1 RMS=2.94D-08 Max=6.09D-07 NDo=     1
 LinEq1:  Iter= 13 NonCon=     1 RMS=1.35D-08 Max=3.60D-07 NDo=     1
 LinEq1:  Iter= 14 NonCon=     1 RMS=4.82D-09 Max=1.19D-07 NDo=     1
 LinEq1:  Iter= 15 NonCon=     1 RMS=1.99D-09 Max=6.52D-08 NDo=     1
 LinEq1:  Iter= 16 NonCon=     1 RMS=6.38D-10 Max=1.68D-08 NDo=     1
 LinEq1:  Iter= 17 NonCon=     1 RMS=2.37D-10 Max=6.37D-09 NDo=     1
 LinEq1:  Iter= 18 NonCon=     1 RMS=8.71D-11 Max=1.85D-09 NDo=     1
 LinEq1:  Iter= 19 NonCon=     0 RMS=3.00D-11 Max=6.17D-10 NDo=     1
 Linear equations converged to 1.000D-10 1.000D-09 after    19 iterations.
 End of Minotr F.D. properties file   721 does not exist.
 End of Minotr F.D. properties file   722 does not exist.
 End of Minotr F.D. properties file   788 does not exist.

 **********************************************************************

            Population analysis using the SCF Density.

 **********************************************************************

 Orbital symmetries:
       Occupied  (A) (A) (A) (A) (A) (A) (A) (A) (A) (A) (A) (A)
                 (A) (A) (A) (A) (A) (A) (A) (A) (A) (A) (A) (A)
                 (A) (A) (A) (A) (A) (A) (A) (A) (A) (A) (A) (A)
                 (A) (A) (A) (A) (A) (A) (A) (A) (A) (A) (A) (A)
                 (A) (A) (A) (A) (A) (A) (A) (A) (A) (A) (A) (A)
                 (A)
       Virtual   (A) (A) (A) (A) (A) (A) (A) (A) (A) (A) (A) (A)
                 (A) (A) (A) (A) (A) (A) (A) (A) (A) (A) (A) (A)
                 (A) (A) (A) (A) (A) (A) (A) (A) (A) (A) (A) (A)
                 (A) (A) (A) (A) (A) (A) (A) (A) (A) (A) (A) (A)
                 (A) (A) (A) (A) (A) (A) (A) (A) (A) (A) (A) (A)
                 (A) (A) (A) (A) (A) (A) (A) (A) (A) (A) (A) (A)
                 (A) (A) (A) (A) (A) (A) (A) (A) (A) (A) (A) (A)
                 (A) (A) (A) (A) (A) (A) (A) (A) (A) (A) (A) (A)
                 (A) (A) (A) (A) (A) (A) (A) (A) (A) (A) (A) (A)
                 (A) (A) (A) (A) (A) (A) (A) (A) (A) (A) (A) (A)
                 (A) (A) (A) (A) (A) (A) (A) (A) (A) (A) (A) (A)
                 (A) (A) (A) (A) (A) (A) (A) (A) (A) (A) (A) (A)
                 (A) (A) (A) (A) (A) (A) (A) (A) (A) (A) (A) (A)
                 (A) (A) (A) (A) (A) (A) (A) (A) (A) (A) (A) (A)
                 (A) (A) (A) (A) (A) (A) (A) (A) (A) (A) (A) (A)
                 (A) (A) (A) (A) (A) (A) (A) (A) (A) (A) (A) (A)
                 (A) (A) (A) (A) (A) (A) (A) (A) (A) (A) (A) (A)
                 (A) (A) (A) (A) (A) (A) (A) (A) (A) (A) (A) (A)
                 (A) (A) (A) (A) (A) (A) (A) (A) (A) (A) (A) (A)
                 (A) (A) (A) (A) (A) (A) (A) (A) (A) (A) (A) (A)
                 (A) (A) (A) (A) (A) (A) (A) (A) (A) (A) (A) (A)
                 (A) (A) (A) (A) (A) (A) (A) (A) (A) (A) (A) (A)
                 (A) (A) (A) (A) (A) (A) (A) (A) (A) (A) (A) (A)
                 (A) (A) (A) (A) (A) (A) (A) (A) (A) (A) (A) (A)
                 (A) (A) (A) (A) (A) (A) (A) (A) (A) (A) (A) (A)
                 (A) (A) (A) (A) (A) (A) (A) (A) (A) (A) (A) (A)
                 (A) (A) (A) (A) (A) (A) (A) (A) (A) (A) (A) (A)
                 (A) (A) (A)
 The electronic state is 1-A.
 Alpha  occ. eigenvalues --  -91.99173 -91.98447 -91.98347 -20.61451 -11.32017
 Alpha  occ. eigenvalues --  -11.28916 -11.28656 -11.27536 -11.27151 -11.26646
 Alpha  occ. eigenvalues --  -11.26345 -11.25809 -11.25263 -11.24933  -8.99399
 Alpha  occ. eigenvalues --   -8.98631  -8.98492  -6.67573  -6.67480  -6.67276
 Alpha  occ. eigenvalues --   -6.66798  -6.66721  -6.66651  -6.66570  -6.66514
 Alpha  occ. eigenvalues --   -6.66358  -1.43524  -1.21180  -1.18667  -1.12521
 Alpha  occ. eigenvalues --   -1.03167  -1.01937  -0.98954  -0.95618  -0.94055
 Alpha  occ. eigenvalues --   -0.82866  -0.81690  -0.77095  -0.75382  -0.71193
 Alpha  occ. eigenvalues --   -0.70227  -0.67322  -0.66295  -0.62095  -0.61631
 Alpha  occ. eigenvalues --   -0.58807  -0.56341  -0.56138  -0.53988  -0.52719
 Alpha  occ. eigenvalues --   -0.52356  -0.51593  -0.49630  -0.47822  -0.46797
 Alpha  occ. eigenvalues --   -0.45337  -0.38930  -0.35968  -0.34205  -0.31646
 Alpha  occ. eigenvalues --   -0.27183
 Alpha virt. eigenvalues --    0.02696   0.03699   0.03901   0.05010   0.05143
 Alpha virt. eigenvalues --    0.06284   0.06734   0.08558   0.09431   0.09670
 Alpha virt. eigenvalues --    0.10388   0.10705   0.10791   0.11066   0.11652
 Alpha virt. eigenvalues --    0.12495   0.12718   0.13063   0.13158   0.13565
 Alpha virt. eigenvalues --    0.13864   0.14254   0.14589   0.15231   0.15275
 Alpha virt. eigenvalues --    0.15455   0.15729   0.16794   0.16903   0.17230
 Alpha virt. eigenvalues --    0.17577   0.18457   0.18766   0.19203   0.19539
 Alpha virt. eigenvalues --    0.19826   0.20116   0.20822   0.21227   0.22194
 Alpha virt. eigenvalues --    0.22450   0.22791   0.22811   0.23415   0.23757
 Alpha virt. eigenvalues --    0.24004   0.24397   0.25209   0.25870   0.26229
 Alpha virt. eigenvalues --    0.26618   0.27195   0.27705   0.28038   0.28128
 Alpha virt. eigenvalues --    0.28803   0.29392   0.29826   0.31347   0.31800
 Alpha virt. eigenvalues --    0.32065   0.32188   0.32427   0.33007   0.33798
 Alpha virt. eigenvalues --    0.34284   0.34707   0.35751   0.35949   0.36565
 Alpha virt. eigenvalues --    0.36714   0.37454   0.38188   0.39313   0.39904
 Alpha virt. eigenvalues --    0.40297   0.40701   0.41875   0.42018   0.42513
 Alpha virt. eigenvalues --    0.42982   0.43395   0.44630   0.45102   0.45424
 Alpha virt. eigenvalues --    0.45889   0.46873   0.47600   0.47869   0.48685
 Alpha virt. eigenvalues --    0.49010   0.50188   0.50922   0.51309   0.51983
 Alpha virt. eigenvalues --    0.52329   0.54099   0.54430   0.54619   0.55788
 Alpha virt. eigenvalues --    0.56523   0.56636   0.59070   0.59388   0.59699
 Alpha virt. eigenvalues --    0.60230   0.62106   0.62716   0.62940   0.63491
 Alpha virt. eigenvalues --    0.63511   0.64393   0.65032   0.66527   0.66663
 Alpha virt. eigenvalues --    0.66834   0.67252   0.67642   0.68244   0.68982
 Alpha virt. eigenvalues --    0.69239   0.69464   0.69689   0.70759   0.71076
 Alpha virt. eigenvalues --    0.71636   0.72273   0.72680   0.73547   0.74229
 Alpha virt. eigenvalues --    0.74785   0.75242   0.76163   0.76566   0.77370
 Alpha virt. eigenvalues --    0.78328   0.78831   0.79021   0.79995   0.80498
 Alpha virt. eigenvalues --    0.81809   0.82879   0.83412   0.83991   0.84431
 Alpha virt. eigenvalues --    0.85030   0.86017   0.86345   0.86909   0.87322
 Alpha virt. eigenvalues --    0.89298   0.89978   0.91005   0.91136   0.91375
 Alpha virt. eigenvalues --    0.92524   0.93116   0.93816   0.94988   0.95878
 Alpha virt. eigenvalues --    0.96210   0.96603   0.97366   0.98226   0.98824
 Alpha virt. eigenvalues --    0.99376   1.01146   1.01428   1.02478   1.03699
 Alpha virt. eigenvalues --    1.04547   1.04826   1.06481   1.07791   1.08766
 Alpha virt. eigenvalues --    1.10211   1.10396   1.11016   1.11915   1.12707
 Alpha virt. eigenvalues --    1.13567   1.15460   1.16821   1.17690   1.19839
 Alpha virt. eigenvalues --    1.20816   1.21319   1.22338   1.23207   1.24379
 Alpha virt. eigenvalues --    1.24890   1.26362   1.26408   1.27994   1.28873
 Alpha virt. eigenvalues --    1.29592   1.30266   1.31145   1.32016   1.33546
 Alpha virt. eigenvalues --    1.34606   1.35187   1.35812   1.36620   1.38113
 Alpha virt. eigenvalues --    1.38255   1.39831   1.41076   1.41767   1.44643
 Alpha virt. eigenvalues --    1.45847   1.46527   1.49113   1.49483   1.51099
 Alpha virt. eigenvalues --    1.52176   1.54592   1.55396   1.56091   1.57675
 Alpha virt. eigenvalues --    1.58183   1.59723   1.60257   1.62223   1.63049
 Alpha virt. eigenvalues --    1.63795   1.64685   1.66240   1.66782   1.69137
 Alpha virt. eigenvalues --    1.69822   1.70468   1.72620   1.73039   1.74070
 Alpha virt. eigenvalues --    1.74703   1.76256   1.76928   1.78201   1.79442
 Alpha virt. eigenvalues --    1.80364   1.81106   1.82049   1.83376   1.84042
 Alpha virt. eigenvalues --    1.84938   1.86821   1.87591   1.89834   1.90533
 Alpha virt. eigenvalues --    1.91224   1.93727   1.93939   1.95279   1.96508
 Alpha virt. eigenvalues --    1.98433   2.00682   2.01641   2.02486   2.03076
 Alpha virt. eigenvalues --    2.03978   2.06920   2.09169   2.10791   2.10903
 Alpha virt. eigenvalues --    2.11188   2.12121   2.14317   2.16444   2.17508
 Alpha virt. eigenvalues --    2.18057   2.20227   2.21747   2.21866   2.22749
 Alpha virt. eigenvalues --    2.25890   2.27415   2.27822   2.28923   2.32485
 Alpha virt. eigenvalues --    2.34526   2.36322   2.36453   2.36937   2.38134
 Alpha virt. eigenvalues --    2.41067   2.42234   2.42707   2.45834   2.45936
 Alpha virt. eigenvalues --    2.48289   2.49430   2.51029   2.53076   2.55579
 Alpha virt. eigenvalues --    2.58095   2.61712   2.62680   2.64811   2.68589
 Alpha virt. eigenvalues --    2.76843   2.81363   2.83961   2.85908   2.88344
 Alpha virt. eigenvalues --    2.92297   2.98366   3.00913   3.03935   3.05692
 Alpha virt. eigenvalues --    3.16995   3.21885   3.26894   3.30686   3.35185
 Alpha virt. eigenvalues --    3.40630   3.54174   3.59468   3.74262   3.75473
 Alpha virt. eigenvalues --    3.75995   3.82715   3.88161   3.92964   4.13717
 Alpha virt. eigenvalues --    4.27312   4.48082
          Condensed to atoms (all electrons):
               1          2          3          4          5          6
     1  C    8.363681  -2.042994   0.224179  -0.011879  -0.314705  -0.522187
     2  C   -2.042994  12.923727  -3.497496   0.523513   0.215419  -0.494789
     3  C    0.224179  -3.497496  14.213625  -1.960208   0.111418  -0.251102
     4  C   -0.011879   0.523513  -1.960208   7.229319  -0.011457   0.207219
     5  H   -0.314705   0.215419   0.111418  -0.011457   1.668823  -0.037086
     6  S   -0.522187  -0.494789  -0.251102   0.207219  -0.037086  16.587537
     7  H    0.072293   0.078768  -0.019698   0.119795  -0.060466  -0.117058
     8  C   -0.265908  -0.386550  -3.779215   0.728014  -0.060268   0.046983
     9  S   -0.143320   0.307412  -0.750297   0.146051   0.013825   0.063927
    10  C   -0.108435   0.061138  -0.065807   0.063187   0.000450   0.042901
    11  C    0.008731  -0.003194   0.290002  -0.052007  -0.001675  -0.113114
    12  C    0.096982  -1.002791   0.416496  -0.597198   0.000512  -0.007402
    13  H   -0.013371   0.049209   0.024564   0.012671  -0.001086  -0.005882
    14  S    0.000562  -0.011715  -0.047540   0.001350   0.000062   0.018511
    15  C   -0.002000  -0.013630   0.030653   0.001580   0.000031   0.008590
    16  C   -0.005675   0.030376  -0.303731   0.002263  -0.000402   0.007885
    17  H   -0.000015   0.000006  -0.000687   0.000013   0.000003   0.000184
    18  H   -0.000672   0.003080  -0.005662   0.000537  -0.000008   0.000559
    19  O    0.078614  -0.739454   0.316547  -0.061815  -0.046373   0.020843
    20  H   -0.124575  -0.022031  -0.023125  -0.013196  -0.009267   0.009661
               7          8          9         10         11         12
     1  C    0.072293  -0.265908  -0.143320  -0.108435   0.008731   0.096982
     2  C    0.078768  -0.386550   0.307412   0.061138  -0.003194  -1.002791
     3  C   -0.019698  -3.779215  -0.750297  -0.065807   0.290002   0.416496
     4  C    0.119795   0.728014   0.146051   0.063187  -0.052007  -0.597198
     5  H   -0.060466  -0.060268   0.013825   0.000450  -0.001675   0.000512
     6  S   -0.117058   0.046983   0.063927   0.042901  -0.113114  -0.007402
     7  H    1.291896   0.014890   0.000508   0.000265   0.002336  -0.003902
     8  C    0.014890  15.330966   0.329993  -1.018322  -0.392999  -5.229295
     9  S    0.000508   0.329993  17.120305   0.375765  -0.586763  -1.170240
    10  C    0.000265  -1.018322   0.375765  11.463694  -1.421322  -0.523002
    11  C    0.002336  -0.392999  -0.586763  -1.421322  13.936579  -3.738288
    12  C   -0.003902  -5.229295  -1.170240  -0.523002  -3.738288  19.585684
    13  H    0.004484   0.947118   0.046215  -0.147035   0.471459  -1.658911
    14  S   -0.000088  -0.426622   0.155793   0.194729  -0.675489   0.185207
    15  C    0.000023  -0.008706  -0.130654  -0.176509  -1.177917   0.137927
    16  C    0.000062   0.034860  -0.244004  -2.840132  -0.396103  -0.815394
    17  H   -0.000001  -0.001539   0.020179   0.116026  -0.118182   0.029150
    18  H    0.000017   0.052183   0.048625   0.549520   0.042365  -0.038934
    19  O   -0.002012   0.033307  -0.105438   0.008924  -0.005904   0.009539
    20  H    0.001226   0.018652   0.034200   0.007693  -0.000490  -0.010046
              13         14         15         16         17         18
     1  C   -0.013371   0.000562  -0.002000  -0.005675  -0.000015  -0.000672
     2  C    0.049209  -0.011715  -0.013630   0.030376   0.000006   0.003080
     3  C    0.024564  -0.047540   0.030653  -0.303731  -0.000687  -0.005662
     4  C    0.012671   0.001350   0.001580   0.002263   0.000013   0.000537
     5  H   -0.001086   0.000062   0.000031  -0.000402   0.000003  -0.000008
     6  S   -0.005882   0.018511   0.008590   0.007885   0.000184   0.000559
     7  H    0.004484  -0.000088   0.000023   0.000062  -0.000001   0.000017
     8  C    0.947118  -0.426622  -0.008706   0.034860  -0.001539   0.052183
     9  S    0.046215   0.155793  -0.130654  -0.244004   0.020179   0.048625
    10  C   -0.147035   0.194729  -0.176509  -2.840132   0.116026   0.549520
    11  C    0.471459  -0.675489  -1.177917  -0.396103  -0.118182   0.042365
    12  C   -1.658911   0.185207   0.137927  -0.815394   0.029150  -0.038934
    13  H    1.860552  -0.063701   0.014628  -0.027454   0.002755   0.001578
    14  S   -0.063701  16.189758   0.238646  -0.124743  -0.134201   0.000240
    15  C    0.014628   0.238646   7.055748   0.110661   0.195038  -0.103740
    16  C   -0.027454  -0.124743   0.110661  10.786382   0.031133  -0.565687
    17  H    0.002755  -0.134201   0.195038   0.031133   1.315623  -0.070675
    18  H    0.001578   0.000240  -0.103740  -0.565687  -0.070675   1.419002
    19  O    0.001157   0.000565  -0.000327   0.001991   0.000024   0.000149
    20  H    0.000359  -0.000006   0.000001   0.000742  -0.000002   0.000090
              19         20
     1  C    0.078614  -0.124575
     2  C   -0.739454  -0.022031
     3  C    0.316547  -0.023125
     4  C   -0.061815  -0.013196
     5  H   -0.046373  -0.009267
     6  S    0.020843   0.009661
     7  H   -0.002012   0.001226
     8  C    0.033307   0.018652
     9  S   -0.105438   0.034200
    10  C    0.008924   0.007693
    11  C   -0.005904  -0.000490
    12  C    0.009539  -0.010046
    13  H    0.001157   0.000359
    14  S    0.000565  -0.000006
    15  C   -0.000327   0.000001
    16  C    0.001991   0.000742
    17  H    0.000024  -0.000002
    18  H    0.000149   0.000090
    19  O    9.058535   0.366240
    20  H    0.366240   0.574943
 Mulliken charges:
               1
     1  C    0.710695
     2  C    0.021995
     3  C    1.077083
     4  C   -0.327752
     5  H   -0.467750
     6  S    0.533819
     7  H   -0.383337
     8  C    0.032457
     9  S    0.467918
    10  C   -0.583728
    11  C   -0.068024
    12  C    0.333906
    13  H   -0.519309
    14  S    0.498682
    15  C   -0.180041
    16  C    0.316969
    17  H   -0.384833
    18  H   -0.332567
    19  O   -0.935112
    20  H    0.188929
 Sum of Mulliken charges =  -0.00000
 Mulliken charges with hydrogens summed into heavy atoms:
               1
     1  C    0.242945
     2  C    0.021995
     3  C    1.077083
     4  C   -0.711089
     6  S    0.533819
     8  C    0.032457
     9  S    0.467918
    10  C   -0.583728
    11  C   -0.068024
    12  C   -0.185403
    14  S    0.498682
    15  C   -0.564874
    16  C   -0.015598
    19  O   -0.746183
 Electronic spatial extent (au):  <R**2>=           4307.9325
 Charge=             -0.0000 electrons
 Dipole moment (field-independent basis, Debye):
    X=             -2.7162    Y=              1.1899    Z=              0.0883  Tot=              2.9667
 Quadrupole moment (field-independent basis, Debye-Ang):
   XX=            -75.6703   YY=            -96.0346   ZZ=           -110.6663
   XY=             -1.0360   XZ=             -0.9473   YZ=             -0.0621
 Traceless Quadrupole moment (field-independent basis, Debye-Ang):
   XX=             18.4534   YY=             -1.9109   ZZ=            -16.5425
   XY=             -1.0360   XZ=             -0.9473   YZ=             -0.0621
 Octapole moment (field-independent basis, Debye-Ang**2):
  XXX=            -62.6571  YYY=             23.5757  ZZZ=              1.0376  XYY=            -26.3596
  XXY=             41.3943  XXZ=              0.8472  XZZ=             -5.0968  YZZ=              4.2441
  YYZ=              0.9125  XYZ=             -4.4701
 Hexadecapole moment (field-independent basis, Debye-Ang**3):
 XXXX=          -3951.8615 YYYY=           -998.0399 ZZZZ=           -145.1799 XXXY=            -13.5313
 XXXZ=            -15.9736 YYYX=            -50.5184 YYYZ=              2.6979 ZZZX=             -1.6646
 ZZZY=              2.5326 XXYY=           -834.6328 XXZZ=           -913.7965 YYZZ=           -217.7173
 XXYZ=              9.3101 YYXZ=             -7.1026 ZZXY=            -14.1416
 N-N= 1.130631031396D+03 E-N=-6.168649210143D+03  KE= 1.649582526291D+03
 Calling FoFJK, ICntrl=  10002127 FMM=F ISym2X=0 I1Cent= 0 IOpClX= 0 NMat=1 NMatS=1 NMatT=0.
 ***** Axes restored to original set *****
 -------------------------------------------------------------------
 Center     Atomic                   Forces (Hartrees/Bohr)
 Number     Number              X              Y              Z
 -------------------------------------------------------------------
      1        6           0.012820032    0.031119648    0.002238557
      2        6          -0.040927905    0.011182065    0.000991027
      3        6           0.031738330   -0.023149982   -0.001979098
      4        6          -0.000088820   -0.028787706   -0.002217569
      5        1          -0.008332404    0.006077523    0.000557030
      6       16           0.006137890   -0.006377878   -0.000559522
      7        1          -0.007129345   -0.007179608   -0.000450604
      8        6          -0.028960452    0.020743786   -0.001920100
      9       16          -0.004500483    0.009783767   -0.000566253
     10        6           0.007974919    0.040938445   -0.003365227
     11        6          -0.009172586   -0.041144223    0.003117819
     12        6           0.029552440   -0.020378155    0.001488163
     13        1          -0.003582730   -0.010235021    0.000990884
     14       16           0.003181147   -0.008152639    0.000733548
     15        6           0.014563973   -0.024334595    0.001927733
     16        6          -0.028388314    0.020581246   -0.001518873
     17        1           0.010225725   -0.000752048    0.000049460
     18        1           0.003117308    0.010003055   -0.000871457
     19        8           0.035009181    0.007198751    0.000392597
     20        1          -0.023237907    0.012863569    0.000961883
 -------------------------------------------------------------------
 Cartesian Forces:  Max     0.041144223 RMS     0.016462194

 GradGradGradGradGradGradGradGradGradGradGradGradGradGradGradGradGradGrad
 Berny optimization.
 FormGI is forming the generalized inverse of G from B-inverse, IUseBI=4.
 Internal  Forces:  Max     0.042730271 RMS     0.009777544
 Search for a local minimum.
 Step number   1 out of a maximum of  116
 All quantities printed in internal units (Hartrees-Bohrs-Radians)
 Mixed Optimization -- RFO/linear search
 Second derivative matrix not updated -- first step.
 ITU=  0
     Eigenvalues ---    0.01510   0.01579   0.01625   0.01704   0.01743
     Eigenvalues ---    0.01764   0.01978   0.02019   0.02059   0.02128
     Eigenvalues ---    0.02210   0.02259   0.02316   0.02351   0.02371
     Eigenvalues ---    0.02452   0.16000   0.16000   0.16000   0.16000
     Eigenvalues ---    0.16000   0.16000   0.22525   0.22566   0.23647
     Eigenvalues ---    0.24759   0.24783   0.24995   0.24997   0.25000
     Eigenvalues ---    0.25000   0.28873   0.29716   0.30259   0.31033
     Eigenvalues ---    0.31224   0.32380   0.36092   0.36258   0.36324
     Eigenvalues ---    0.36353   0.36403   0.36571   0.38894   0.39110
     Eigenvalues ---    0.39882   0.45845   0.50450   0.51598   0.53487
     Eigenvalues ---    0.54309   0.54987   0.595401000.000001000.00000
     Eigenvalues --- 1000.000001000.000001000.000001000.000001000.00000
     Eigenvalues --- 1000.000001000.000001000.000001000.000001000.00000
     Eigenvalues --- 1000.000001000.000001000.000001000.000001000.00000
     Eigenvalues --- 1000.000001000.000001000.000001000.000001000.00000
     Eigenvalues --- 1000.000001000.000001000.000001000.000001000.00000
     Eigenvalues --- 1000.000001000.000001000.000001000.000001000.00000
     Eigenvalues --- 1000.000001000.000001000.000001000.000001000.00000
     Eigenvalues --- 1000.000001000.000001000.000001000.000001000.00000
     Eigenvalues --- 1000.000001000.000001000.000001000.000001000.00000
     Eigenvalues --- 1000.000001000.000001000.000001000.000001000.00000
     Eigenvalues --- 1000.00000
 RFO step:  Lambda=-1.92924105D-02 EMin= 1.50976675D-02
 Linear search not attempted -- first point.
 Iteration  1 RMS(Cart)=  0.02908438 RMS(Int)=  0.00019111
 Iteration  2 RMS(Cart)=  0.00036646 RMS(Int)=  0.00004352
 Iteration  3 RMS(Cart)=  0.00000007 RMS(Int)=  0.00004352
 Iteration  1 RMS(Cart)=  0.00000153 RMS(Int)=  0.00000076
 Iteration  2 RMS(Cart)=  0.00000084 RMS(Int)=  0.00000085
 Variable       Old X    -DE/DX   Delta X   Delta X   Delta X     New X
                                 (Linear)    (Quad)   (Total)
    R1        2.71666  -0.00303   0.00000  -0.00491  -0.00485   2.71181
    R2        2.54559   0.03936   0.00000   0.06927   0.06930   2.61489
    R3        2.03938   0.01033   0.00000   0.02716   0.02716   2.06654
    R4        2.56261   0.03855   0.00000   0.06967   0.06969   2.63230
    R5        2.55144   0.02230   0.00000   0.03919   0.03919   2.59063
    R6        3.31061   0.00302   0.00000   0.00684   0.00679   3.31740
    R7        2.76498  -0.00619   0.00000  -0.01609  -0.01609   2.74889
    R8        3.25768   0.00746   0.00000   0.01962   0.01958   3.27726
    R9        2.03456   0.00997   0.00000   0.02601   0.02601   2.06058
   R10        3.33029   0.00668   0.00000   0.01834   0.01828   3.34857
   R11        2.56638   0.03807   0.00000   0.06903   0.06904   2.63542
   R12        3.28045   0.00573   0.00000   0.01553   0.01549   3.29593
   R13        2.57688   0.04273   0.00000   0.08149   0.08156   2.65845
   R14        2.71275  -0.00279   0.00000  -0.00425  -0.00419   2.70856
   R15        2.70136  -0.00350   0.00000  -0.00581  -0.00574   2.69562
   R16        3.28289   0.00568   0.00000   0.01540   0.01537   3.29827
   R17        2.03681   0.01087   0.00000   0.02846   0.02846   2.06526
   R18        3.29836   0.00660   0.00000   0.01722   0.01717   3.31553
   R19        2.55019   0.03861   0.00000   0.06780   0.06780   2.61799
   R20        2.03533   0.01018   0.00000   0.02660   0.02660   2.06193
   R21        2.03577   0.01051   0.00000   0.02748   0.02748   2.06325
   R22        1.78006   0.02645   0.00000   0.04303   0.04303   1.82309
    A1        1.95833  -0.00233   0.00000  -0.00335  -0.00325   1.95508
    A2        2.15712   0.00122   0.00000   0.00201   0.00196   2.15908
    A3        2.16773   0.00110   0.00000   0.00134   0.00129   2.16902
    A4        1.99104  -0.00414   0.00000  -0.01084  -0.01075   1.98029
    A5        2.15374   0.00836   0.00000   0.02877   0.02872   2.18246
    A6        2.13841  -0.00422   0.00000  -0.01793  -0.01797   2.12043
    A7        1.91451   0.00356   0.00000   0.01167   0.01165   1.92616
    A8        2.26226  -0.00208   0.00000  -0.00694  -0.00693   2.25533
    A9        2.10640  -0.00148   0.00000  -0.00474  -0.00473   2.10167
   A10        1.95551   0.00076   0.00000   0.00362   0.00362   1.95913
   A11        2.22558   0.00142   0.00000   0.00824   0.00824   2.23382
   A12        2.10209  -0.00218   0.00000  -0.01186  -0.01186   2.09023
   A13        1.60536   0.00214   0.00000  -0.00111  -0.00127   1.60409
   A14        2.12476  -0.00589   0.00000  -0.02118  -0.02117   2.10359
   A15        2.20592   0.00162   0.00000   0.00670   0.00670   2.21262
   A16        1.95232   0.00427   0.00000   0.01446   0.01444   1.96676
   A17        1.58584   0.00090   0.00000  -0.00447  -0.00464   1.58121
   A18        1.94269   0.00209   0.00000   0.00660   0.00656   1.94925
   A19        2.35128   0.00111   0.00000  -0.00068  -0.00075   2.35054
   A20        1.98915  -0.00320   0.00000  -0.00591  -0.00581   1.98334
   A21        1.98972  -0.00303   0.00000  -0.00488  -0.00476   1.98496
   A22        1.94040   0.00146   0.00000   0.00382   0.00378   1.94418
   A23        2.35305   0.00157   0.00000   0.00104   0.00097   2.35402
   A24        1.95420  -0.00423   0.00000  -0.01171  -0.01160   1.94260
   A25        2.15935   0.00142   0.00000   0.00197   0.00191   2.16126
   A26        2.16963   0.00281   0.00000   0.00974   0.00969   2.17932
   A27        1.58093   0.00217   0.00000  -0.00011  -0.00023   1.58069
   A28        1.97548   0.00258   0.00000   0.00906   0.00904   1.98452
   A29        2.08710  -0.00252   0.00000  -0.01136  -0.01135   2.07575
   A30        2.22060  -0.00007   0.00000   0.00230   0.00231   2.22291
   A31        1.93882  -0.00301   0.00000  -0.00687  -0.00678   1.93204
   A32        2.18269   0.00167   0.00000   0.00433   0.00428   2.18698
   A33        2.16167   0.00135   0.00000   0.00254   0.00250   2.16417
   A34        1.93913  -0.00462   0.00000  -0.02577  -0.02577   1.91336
    D1       -0.00149  -0.00001   0.00000   0.00042   0.00041  -0.00108
    D2        3.14158  -0.00004   0.00000  -0.00046  -0.00048   3.14110
    D3        3.13952  -0.00000   0.00000   0.00003   0.00003   3.13955
    D4       -0.00060  -0.00004   0.00000  -0.00085  -0.00086  -0.00146
    D5       -0.00356  -0.00001   0.00000  -0.00045  -0.00045  -0.00401
    D6       -3.14103  -0.00001   0.00000  -0.00075  -0.00075   3.14141
    D7        3.13862  -0.00002   0.00000  -0.00006  -0.00006   3.13856
    D8        0.00115  -0.00001   0.00000  -0.00036  -0.00036   0.00079
    D9        0.00566   0.00005   0.00000  -0.00012  -0.00012   0.00554
   D10       -3.13047  -0.00004   0.00000   0.00136   0.00136  -3.12911
   D11       -3.13739   0.00010   0.00000   0.00080   0.00078  -3.13661
   D12        0.00966   0.00001   0.00000   0.00227   0.00226   0.01192
   D13       -0.01069   0.00004   0.00000   0.00101   0.00101  -0.00968
   D14        3.13250   0.00000   0.00000   0.00005   0.00004   3.13254
   D15       -0.00644  -0.00006   0.00000  -0.00013  -0.00013  -0.00657
   D16        3.13027   0.00001   0.00000  -0.00147  -0.00148   3.12879
   D17       -0.17471   0.00037   0.00000   0.00000   0.00000  -0.17470
   D18        2.98927   0.00022   0.00000   0.00146   0.00145   2.99072
   D19        2.97286   0.00026   0.00000   0.00157   0.00158   2.97444
   D20       -0.14635   0.00011   0.00000   0.00303   0.00302  -0.14333
   D21        0.00576   0.00005   0.00000   0.00034   0.00034   0.00610
   D22       -3.13963   0.00006   0.00000   0.00067   0.00066  -3.13897
   D23       -3.11926  -0.00007   0.00000   0.00095   0.00093  -3.11833
   D24        0.00292   0.00004   0.00000  -0.00034  -0.00034   0.00258
   D25        3.11894  -0.00006   0.00000  -0.00244  -0.00246   3.11648
   D26       -0.02676  -0.00003   0.00000  -0.00207  -0.00209  -0.02886
   D27       -0.00215  -0.00008   0.00000  -0.00071  -0.00072  -0.00287
   D28        3.13534  -0.00005   0.00000  -0.00035  -0.00036   3.13498
   D29       -0.00293   0.00002   0.00000   0.00137   0.00136  -0.00158
   D30       -3.13158   0.00003   0.00000   0.00063   0.00061  -3.13096
   D31        0.00232  -0.00007   0.00000  -0.00205  -0.00205   0.00026
   D32       -3.13399  -0.00000   0.00000  -0.00024  -0.00026  -3.13425
   D33        3.13384  -0.00005   0.00000  -0.00145  -0.00146   3.13238
   D34       -0.00247   0.00001   0.00000   0.00035   0.00034  -0.00213
   D35        3.13098   0.00002   0.00000   0.00118   0.00118   3.13217
   D36       -0.01147  -0.00002   0.00000   0.00004   0.00004  -0.01143
   D37        0.00260   0.00000   0.00000   0.00036   0.00036   0.00295
   D38       -3.13986  -0.00004   0.00000  -0.00078  -0.00079  -3.14065
   D39       -0.00009   0.00010   0.00000   0.00180   0.00178   0.00169
   D40       -3.13755   0.00007   0.00000   0.00146   0.00144  -3.13612
   D41        3.13455   0.00001   0.00000  -0.00057  -0.00058   3.13397
   D42       -0.00291  -0.00002   0.00000  -0.00091  -0.00092  -0.00383
   D43        0.00133  -0.00004   0.00000  -0.00076  -0.00075   0.00058
   D44       -3.13345   0.00007   0.00000   0.00159   0.00159  -3.13186
   D45        0.00015   0.00004   0.00000   0.00099   0.00098   0.00113
   D46       -3.13905  -0.00000   0.00000   0.00025   0.00025  -3.13880
   D47       -0.00152  -0.00005   0.00000  -0.00097  -0.00097  -0.00249
   D48        3.14093  -0.00001   0.00000   0.00015   0.00015   3.14108
   D49        3.13746  -0.00001   0.00000  -0.00019  -0.00019   3.13728
   D50       -0.00328   0.00003   0.00000   0.00094   0.00094  -0.00234
         Item               Value     Threshold  Converged?
 Maximum Force            0.042730     0.000450     NO 
 RMS     Force            0.009824     0.000300     NO 
 Maximum Displacement     0.122939     0.001800     NO 
 RMS     Displacement     0.029100     0.001200     NO 
 Predicted change in Energy=-1.001374D-02
 GradGradGradGradGradGradGradGradGradGradGradGradGradGradGradGradGradGrad

                          Input orientation:                          
 ---------------------------------------------------------------------
 Center     Atomic      Atomic             Coordinates (Angstroms)
 Number     Number       Type             X           Y           Z
 ---------------------------------------------------------------------
      1          6           0       -4.038479    0.389421    0.060671
      2          6           0       -2.688309    0.874876    0.086699
      3          6           0       -1.733737   -0.136130    0.003179
      4          6           0       -4.092104   -0.989307   -0.044061
      5          1           0       -4.917547    1.037358    0.118143
      6         16           0       -2.513756   -1.704142   -0.117909
      7          1           0       -4.976827   -1.625360   -0.085209
      8          6           0       -0.282698   -0.034238    0.013662
      9         16           0        0.509667    1.545155   -0.119054
     10          6           0        2.077697    0.783054   -0.069220
     11          6           0        1.972680   -0.615072    0.045986
     12          6           0        0.627653   -1.087597    0.095025
     13          1           0        0.337154   -2.137057    0.188061
     14         16           0        3.545727   -1.368794    0.107075
     15          6           0        4.321489    0.199620   -0.021550
     16          6           0        3.429990    1.256660   -0.106267
     17          1           0        5.411406    0.250417   -0.028789
     18          1           0        3.729996    2.303010   -0.191308
     19          8           0       -2.327766    2.193945    0.183827
     20          1           0       -3.119234    2.744182    0.223040
 ---------------------------------------------------------------------
                    Distance matrix (angstroms):
                    1          2          3          4          5
     1  C    0.000000
     2  C    1.435027   0.000000
     3  C    2.364602   1.392953   0.000000
     4  C    1.383740   2.337288   2.508393   0.000000
     5  H    1.093566   2.235373   3.395134   2.194320   0.000000
     6  S    2.596089   2.593003   1.755492   1.734250   3.653731
     7  H    2.227358   3.393825   3.569769   1.090409   2.671130
     8  C    3.779893   2.572701   1.454650   3.927730   4.758263
     9  S    4.696132   3.273937   2.806158   5.254085   5.456077
    10  C    6.130206   4.769440   3.921374   6.419372   7.002372
    11  C    6.094527   4.893508   3.737479   6.076986   7.085969
    12  C    4.894441   3.853177   2.547526   4.722828   5.938452
    13  H    5.054254   4.270297   2.885563   4.581433   6.139518
    14  S    7.785477   6.625532   5.422453   7.648745   8.798676
    15  C    8.362526   7.043079   6.064578   8.497211   9.277990
    16  C    7.520505   6.133236   5.349385   7.850486   8.353433
    17  H    9.451330   8.124572   7.155663   9.584041  10.359929
    18  H    8.004656   6.581147   5.986619   8.488007   8.745149
    19  O    2.489580   1.370901   2.411380   3.646630   2.837071
    20  H    2.533036   1.923172   3.203770   3.867397   2.481569
                    6          7          8          9         10
     6  S    0.000000
     7  H    2.464548   0.000000
     8  C    2.789895   4.957449   0.000000
     9  S    4.438358   6.336792   1.771987   0.000000
    10  C    5.222064   7.454329   2.499260   1.744132   0.000000
    11  C    4.619637   7.023784   2.329193   2.614235   1.406790
    12  C    3.208414   5.633105   1.394606   2.644075   2.372539
    13  H    2.899779   5.345550   2.199199   3.699021   3.409213
    14  S    6.072924   8.528583   4.055441   4.214249   2.610870
    15  C    7.096067   9.475932   4.610256   4.043508   2.318894
    16  C    6.640377   8.887129   3.932538   2.934566   1.433308
    17  H    8.163114  10.556378   5.701372   5.070654   3.376233
    18  H    7.419373   9.552597   4.648274   3.309091   2.248391
    19  O    3.914169   4.655856   3.029201   2.926379   4.632791
    20  H    4.502270   4.758001   3.976103   3.837137   5.562331
                   11         12         13         14         15
    11  C    0.000000
    12  C    1.426458   0.000000
    13  H    2.238653   1.092891   0.000000
    14  S    1.745367   2.931616   3.300262   0.000000
    15  C    2.487004   3.913431   4.623734   1.754501   0.000000
    16  C    2.377039   3.659119   4.601041   2.636649   1.385381
    17  H    3.546759   4.968894   5.612048   2.474078   1.091124
    18  H    3.414626   4.604643   5.600847   3.688514   2.191559
    19  O    5.138425   4.417115   5.085213   6.870002   6.944934
    20  H    6.102747   5.360791   5.981165   7.832734   7.867590
                   16         17         18         19         20
    16  C    0.000000
    17  H    2.223631   0.000000
    18  H    1.091826   2.658325   0.000000
    19  O    5.840755   7.982311   6.070346   0.000000
    20  H    6.724099   8.891237   6.875919   0.964738   0.000000
 Stoichiometry    C10H6OS3
 Framework group  C1[X(C10H6OS3)]
 Deg. of freedom    54
 Full point group                 C1      NOp   1
 Largest Abelian subgroup         C1      NOp   1
 Largest concise Abelian subgroup C1      NOp   1
                         Standard orientation:                         
 ---------------------------------------------------------------------
 Center     Atomic      Atomic             Coordinates (Angstroms)
 Number     Number       Type             X           Y           Z
 ---------------------------------------------------------------------
      1          6           0       -4.040163    0.381957    0.061417
      2          6           0       -2.691359    0.871219    0.086931
      3          6           0       -1.733965   -0.137133    0.003622
      4          6           0       -4.089932   -0.996961   -0.042718
      5          1           0       -4.921038    1.027442    0.118815
      6         16           0       -2.509597   -1.707384   -0.116624
      7          1           0       -4.972872   -1.635518   -0.083395
      8          6           0       -0.283216   -0.031155    0.013731
      9         16           0        0.504673    1.550404   -0.119836
     10          6           0        2.074852    0.792740   -0.070036
     11          6           0        1.973795   -0.605628    0.045787
     12          6           0        0.630113   -1.081914    0.095332
     13          1           0        0.342589   -2.132147    0.188880
     14         16           0        3.548970   -1.354896    0.106836
     15          6           0        4.320287    0.215640   -0.022631
     16          6           0        3.425799    1.270132   -0.107593
     17          1           0        5.410055    0.269500   -0.030140
     18          1           0        3.722840    2.317286   -0.193146
     19          8           0       -2.334506    2.191338    0.183418
     20          1           0       -3.127510    2.739363    0.222578
 ---------------------------------------------------------------------
 Rotational constants (GHZ):           1.2689137           0.2818470           0.2311366
 Standard basis: Aug-CC-pVDZ (5D, 7F)
 There are   416 symmetry adapted cartesian basis functions of A   symmetry.
 There are   388 symmetry adapted basis functions of A   symmetry.
   388 basis functions,   782 primitive gaussians,   416 cartesian basis functions
    61 alpha electrons       61 beta electrons
       nuclear repulsion energy      1122.6789351249 Hartrees.
 NAtoms=   20 NActive=   20 NUniq=   20 SFac= 1.00D+00 NAtFMM=   60 NAOKFM=F Big=F
 Integral buffers will be    131072 words long.
 Raffenetti 1 integral format.
 Two-electron integral symmetry is turned on.
 One-electron integrals computed using PRISM.
 NBasis=   388 RedAO= T EigKep=  2.60D-06  NBF=   388
 NBsUse=   388 1.00D-06 EigRej= -1.00D+00 NBFU=   388
 Initial guess from the checkpoint file:  "/tmp/pbs.4766300[165].pbs/Gau-761055.chk"
 B after Tr=    -0.000000    0.000000    0.000000
         Rot=    0.999999    0.000140   -0.000174   -0.001472 Ang=   0.17 deg.
 ExpMin= 2.97D-02 ExpMax= 1.11D+05 ExpMxC= 1.07D+03 IAcc=3 IRadAn=         5 AccDes= 0.00D+00
 Harris functional with IExCor=  205 and IRadAn=       5 diagonalized for initial guess.
 HarFok:  IExCor=  205 AccDes= 0.00D+00 IRadAn=         5 IDoV= 1 UseB2=F ITyADJ=14
 ICtDFT=  3500011 ScaDFX=  1.000000  1.000000  1.000000  1.000000
 FoFCou: FMM=F IPFlag=           0 FMFlag=      100000 FMFlg1=           0
         NFxFlg=           0 DoJE=T BraDBF=F KetDBF=T FulRan=T
         wScrn=  0.000000 ICntrl=       500 IOpCl=  0 I1Cent=   200000004 NGrid=           0
         NMat0=    1 NMatS0=      1 NMatT0=    0 NMatD0=    1 NMtDS0=    0 NMtDT0=    0
 Petite list used in FoFCou.
 Requested convergence on RMS density matrix=1.00D-08 within 128 cycles.
 Requested convergence on MAX density matrix=1.00D-06.
 Requested convergence on             energy=1.00D-06.
 No special actions if energy rises.
 SCF Done:  E(RHF) =  -1649.63323693     A.U. after   15 cycles
            NFock= 15  Conv=0.61D-08     -V/T= 2.0006
 ExpMin= 2.97D-02 ExpMax= 1.11D+05 ExpMxC= 1.07D+03 IAcc=3 IRadAn=         5 AccDes= 0.00D+00
 HarFok:  IExCor=  205 AccDes= 0.00D+00 IRadAn=         5 IDoV=-2 UseB2=F ITyADJ=14
 ICtDFT= 12500011 ScaDFX=  1.000000  1.000000  1.000000  1.000000
 GSVD:  LWork=        -884 too small for GESVD, short by        3770 words or        3770 for optimal perf.
 Range of M.O.s used for correlation:    27   388
 NBasis=   388 NAE=    61 NBE=    61 NFC=    26 NFV=     0
 NROrb=    362 NOA=    35 NOB=    35 NVA=   327 NVB=   327

 **** Warning!!: The largest alpha MO coefficient is  0.90631771D+02

 Fully direct method using O(ONN) memory.
 JobTyp=1 Pass  1:  I=  27 to  61 NPSUse=  8 ParTrn=T ParDer=T DoDerP=T.
 Spin components of T(2) and E(2):
     alpha-alpha T2 =       0.1173606162D+00 E2=     -0.2772436043D+00
     alpha-beta  T2 =       0.5703457545D+00 E2=     -0.1435166259D+01
     beta-beta   T2 =       0.1173606162D+00 E2=     -0.2772436043D+00
 ANorm=    0.1343527814D+01
 E2 =    -0.1989653468D+01 EUMP2 =    -0.16516228903929D+04
          IDoAtm=11111111111111111111
          Differentiating once with respect to electric field.
                with respect to dipole field.
          Differentiating once with respect to nuclear coordinates.
 Keep R1 ints in memory in canonical form, NReq=2883857471.
          There are     1 degrees of freedom in the 1st order CPHF.  IDoFFX=0 NUNeed=     1.
 LinEq1:  Iter=  0 NonCon=     1 RMS=2.91D-03 Max=6.85D-02 NDo=     1
 AX will form     1 AO Fock derivatives at one time.
 LinEq1:  Iter=  1 NonCon=     1 RMS=7.22D-04 Max=1.80D-02 NDo=     1
 LinEq1:  Iter=  2 NonCon=     1 RMS=3.72D-04 Max=1.27D-02 NDo=     1
 LinEq1:  Iter=  3 NonCon=     1 RMS=1.02D-04 Max=3.67D-03 NDo=     1
 LinEq1:  Iter=  4 NonCon=     1 RMS=4.00D-05 Max=1.08D-03 NDo=     1
 LinEq1:  Iter=  5 NonCon=     1 RMS=1.83D-05 Max=1.07D-03 NDo=     1
 LinEq1:  Iter=  6 NonCon=     1 RMS=7.39D-06 Max=2.79D-04 NDo=     1
 LinEq1:  Iter=  7 NonCon=     1 RMS=3.44D-06 Max=1.46D-04 NDo=     1
 LinEq1:  Iter=  8 NonCon=     1 RMS=1.20D-06 Max=4.82D-05 NDo=     1
 LinEq1:  Iter=  9 NonCon=     1 RMS=5.47D-07 Max=1.50D-05 NDo=     1
 LinEq1:  Iter= 10 NonCon=     1 RMS=2.14D-07 Max=7.11D-06 NDo=     1
 LinEq1:  Iter= 11 NonCon=     1 RMS=9.50D-08 Max=3.43D-06 NDo=     1
 LinEq1:  Iter= 12 NonCon=     1 RMS=3.41D-08 Max=6.94D-07 NDo=     1
 LinEq1:  Iter= 13 NonCon=     1 RMS=1.65D-08 Max=5.11D-07 NDo=     1
 LinEq1:  Iter= 14 NonCon=     1 RMS=6.49D-09 Max=1.71D-07 NDo=     1
 LinEq1:  Iter= 15 NonCon=     1 RMS=3.01D-09 Max=1.28D-07 NDo=     1
 LinEq1:  Iter= 16 NonCon=     1 RMS=9.99D-10 Max=2.30D-08 NDo=     1
 LinEq1:  Iter= 17 NonCon=     1 RMS=3.96D-10 Max=1.11D-08 NDo=     1
 LinEq1:  Iter= 18 NonCon=     1 RMS=1.47D-10 Max=2.79D-09 NDo=     1
 LinEq1:  Iter= 19 NonCon=     0 RMS=4.79D-11 Max=8.64D-10 NDo=     1
 Linear equations converged to 1.000D-10 1.000D-09 after    19 iterations.
 End of Minotr F.D. properties file   721 does not exist.
 End of Minotr F.D. properties file   722 does not exist.
 End of Minotr F.D. properties file   788 does not exist.
 Calling FoFJK, ICntrl=  10002127 FMM=F ISym2X=0 I1Cent= 0 IOpClX= 0 NMat=1 NMatS=1 NMatT=0.
 ***** Axes restored to original set *****
 -------------------------------------------------------------------
 Center     Atomic                   Forces (Hartrees/Bohr)
 Number     Number              X              Y              Z
 -------------------------------------------------------------------
      1        6           0.007458144    0.005095421    0.000318991
      2        6          -0.015588522   -0.003659997   -0.000440572
      3        6           0.008949238   -0.004552868   -0.000025330
      4        6          -0.002328844   -0.004187890   -0.000281392
      5        1          -0.000515169   -0.001005326   -0.000075149
      6       16          -0.000522577    0.005111592    0.000421246
      7        1           0.000222997   -0.000004007    0.000016091
      8        6          -0.007966294    0.002330409   -0.000413178
      9       16           0.001793712   -0.002992733    0.000568481
     10        6           0.005785513    0.008305302   -0.000735908
     11        6          -0.005783208   -0.008329429    0.000475127
     12        6           0.008596056   -0.000891050   -0.000059180
     13        1          -0.001155411    0.000606414    0.000066135
     14       16          -0.000906169    0.003959266   -0.000289401
     15        6           0.003534821   -0.002462202    0.000196653
     16        6          -0.007128304    0.000108489    0.000078873
     17        1           0.000069361   -0.000130936    0.000010357
     18        1           0.000912880   -0.000546814    0.000017201
     19        8           0.007820895    0.002982989    0.000100461
     20        1          -0.003249118    0.000263369    0.000050493
 -------------------------------------------------------------------
 Cartesian Forces:  Max     0.015588522 RMS     0.004126976

 GradGradGradGradGradGradGradGradGradGradGradGradGradGradGradGradGradGrad
 Berny optimization.
 Using GEDIIS/GDIIS optimizer.
 FormGI is forming the generalized inverse of G from B-inverse, IUseBI=4.
 Internal  Forces:  Max     0.005166100 RMS     0.001626458
 Search for a local minimum.
 Step number   2 out of a maximum of  116
 All quantities printed in internal units (Hartrees-Bohrs-Radians)
 Mixed Optimization -- RFO/linear search
 Update second derivatives using D2CorX and points    1    2
 DE= -1.02D-02 DEPred=-1.00D-02 R= 1.02D+00
 TightC=F SS=  1.41D+00  RLast= 1.96D-01 DXNew= 5.0454D-01 5.8796D-01
 Trust test= 1.02D+00 RLast= 1.96D-01 DXMaxT set to 5.05D-01
 ITU=  1  0
 Use linear search instead of GDIIS.
     Eigenvalues ---    0.01515   0.01578   0.01623   0.01709   0.01742
     Eigenvalues ---    0.01763   0.01978   0.02017   0.02064   0.02136
     Eigenvalues ---    0.02216   0.02258   0.02315   0.02351   0.02374
     Eigenvalues ---    0.02455   0.15782   0.16000   0.16000   0.16000
     Eigenvalues ---    0.16000   0.16032   0.22517   0.22598   0.23704
     Eigenvalues ---    0.24313   0.24769   0.24919   0.24995   0.24999
     Eigenvalues ---    0.25366   0.28911   0.29702   0.30277   0.31073
     Eigenvalues ---    0.31363   0.32465   0.36121   0.36278   0.36291
     Eigenvalues ---    0.36344   0.36388   0.36783   0.38778   0.39146
     Eigenvalues ---    0.39897   0.45413   0.49618   0.51262   0.53145
     Eigenvalues ---    0.54018   0.55214   0.593821000.000001000.00000
     Eigenvalues --- 1000.000001000.000001000.000001000.000001000.00000
     Eigenvalues --- 1000.000001000.000001000.000001000.000001000.00000
     Eigenvalues --- 1000.000001000.000001000.000001000.000001000.00000
     Eigenvalues --- 1000.000001000.000001000.000001000.000001000.00000
     Eigenvalues --- 1000.000001000.000001000.000001000.000001000.00000
     Eigenvalues --- 1000.000001000.000001000.000001000.000001000.00000
     Eigenvalues --- 1000.000001000.000001000.000001000.000001000.00000
     Eigenvalues --- 1000.000001000.000001000.000001000.000001000.00000
     Eigenvalues --- 1000.000001000.000001000.000001000.000001000.00000
     Eigenvalues --- 1000.000001000.000001000.000001000.000001000.00000
     Eigenvalues --- 1000.00000
 RFO step:  Lambda=-8.48321720D-04 EMin= 1.51456561D-02
 Quartic linear search produced a step of  0.10603.
 Iteration  1 RMS(Cart)=  0.00670567 RMS(Int)=  0.00003793
 Iteration  2 RMS(Cart)=  0.00005649 RMS(Int)=  0.00000594
 Iteration  3 RMS(Cart)=  0.00000000 RMS(Int)=  0.00000594
 Iteration  1 RMS(Cart)=  0.00000210 RMS(Int)=  0.00000104
 Iteration  2 RMS(Cart)=  0.00000115 RMS(Int)=  0.00000117
 Iteration  3 RMS(Cart)=  0.00000063 RMS(Int)=  0.00000132
 Variable       Old X    -DE/DX   Delta X   Delta X   Delta X     New X
                                 (Linear)    (Quad)   (Total)
    R1        2.71181  -0.00517  -0.00051  -0.01402  -0.01454   2.69727
    R2        2.61489   0.00256   0.00735   0.00107   0.00841   2.62330
    R3        2.06654  -0.00019   0.00288  -0.00203   0.00085   2.06739
    R4        2.63230   0.00504   0.00739   0.00647   0.01386   2.64616
    R5        2.59063   0.00434   0.00416   0.00648   0.01064   2.60126
    R6        3.31740  -0.00279   0.00072  -0.01043  -0.00970   3.30770
    R7        2.74889  -0.00225  -0.00171  -0.00590  -0.00761   2.74128
    R8        3.27726  -0.00064   0.00208  -0.00327  -0.00119   3.27607
    R9        2.06058  -0.00018   0.00276  -0.00195   0.00081   2.06138
   R10        3.34857  -0.00009   0.00194  -0.00158   0.00036   3.34893
   R11        2.63542   0.00397   0.00732   0.00422   0.01154   2.64696
   R12        3.29593  -0.00126   0.00164  -0.00516  -0.00351   3.29242
   R13        2.65845   0.00503   0.00865   0.00637   0.01502   2.67346
   R14        2.70856  -0.00348  -0.00044  -0.00922  -0.00967   2.69889
   R15        2.69562  -0.00342  -0.00061  -0.00875  -0.00937   2.68625
   R16        3.29827  -0.00123   0.00163  -0.00498  -0.00334   3.29492
   R17        2.06526  -0.00027   0.00302  -0.00236   0.00066   2.06592
   R18        3.31553  -0.00128   0.00182  -0.00577  -0.00395   3.31158
   R19        2.61799   0.00259   0.00719   0.00120   0.00839   2.62638
   R20        2.06193   0.00006   0.00282  -0.00125   0.00157   2.06350
   R21        2.06325  -0.00027   0.00291  -0.00232   0.00060   2.06385
   R22        1.82309   0.00282   0.00456   0.00276   0.00732   1.83041
    A1        1.95508   0.00059  -0.00034   0.00310   0.00275   1.95783
    A2        2.15908   0.00086   0.00021   0.00637   0.00658   2.16566
    A3        2.16902  -0.00145   0.00014  -0.00947  -0.00933   2.15969
    A4        1.98029   0.00164  -0.00114   0.00802   0.00687   1.98716
    A5        2.18246   0.00230   0.00305   0.00854   0.01159   2.19405
    A6        2.12043  -0.00393  -0.00191  -0.01656  -0.01847   2.10197
    A7        1.92616  -0.00278   0.00124  -0.01245  -0.01121   1.91495
    A8        2.25533   0.00124  -0.00073   0.00559   0.00485   2.26018
    A9        2.10167   0.00154  -0.00050   0.00684   0.00633   2.10801
   A10        1.95913  -0.00192   0.00038  -0.00990  -0.00952   1.94961
   A11        2.23382   0.00110   0.00087   0.00545   0.00633   2.24015
   A12        2.09023   0.00082  -0.00126   0.00445   0.00319   2.09342
   A13        1.60409   0.00247  -0.00014   0.01122   0.01110   1.61519
   A14        2.10359   0.00105  -0.00224   0.00589   0.00364   2.10724
   A15        2.21262   0.00107   0.00071   0.00453   0.00524   2.21786
   A16        1.96676  -0.00212   0.00153  -0.01050  -0.00897   1.95779
   A17        1.58121   0.00244  -0.00049   0.01060   0.01011   1.59132
   A18        1.94925  -0.00225   0.00070  -0.01019  -0.00949   1.93976
   A19        2.35054   0.00132  -0.00008   0.00532   0.00524   2.35578
   A20        1.98334   0.00093  -0.00062   0.00486   0.00424   1.98758
   A21        1.98496   0.00105  -0.00050   0.00504   0.00453   1.98949
   A22        1.94418  -0.00249   0.00040  -0.01073  -0.01033   1.93385
   A23        2.35402   0.00144   0.00010   0.00567   0.00577   2.35978
   A24        1.94260   0.00088  -0.00123   0.00504   0.00381   1.94641
   A25        2.16126  -0.00175   0.00020  -0.01140  -0.01119   2.15007
   A26        2.17932   0.00088   0.00103   0.00636   0.00739   2.18670
   A27        1.58069   0.00229  -0.00002   0.01002   0.01001   1.59070
   A28        1.98452  -0.00148   0.00096  -0.00828  -0.00732   1.97720
   A29        2.07575   0.00060  -0.00120   0.00348   0.00228   2.07803
   A30        2.22291   0.00088   0.00024   0.00480   0.00504   2.22795
   A31        1.93204   0.00075  -0.00072   0.00412   0.00340   1.93543
   A32        2.18698   0.00069   0.00045   0.00519   0.00565   2.19262
   A33        2.16417  -0.00143   0.00026  -0.00932  -0.00905   2.15512
   A34        1.91336  -0.00299  -0.00273  -0.01943  -0.02216   1.89120
    D1       -0.00108  -0.00003   0.00004   0.00043   0.00047  -0.00060
    D2        3.14110  -0.00004  -0.00005   0.00003  -0.00003   3.14107
    D3        3.13955  -0.00002   0.00000  -0.00016  -0.00016   3.13939
    D4       -0.00146  -0.00002  -0.00009  -0.00057  -0.00067  -0.00213
    D5       -0.00401  -0.00002  -0.00005  -0.00104  -0.00109  -0.00510
    D6        3.14141   0.00001  -0.00008  -0.00069  -0.00077   3.14064
    D7        3.13856  -0.00004  -0.00001  -0.00045  -0.00047   3.13809
    D8        0.00079  -0.00001  -0.00004  -0.00010  -0.00015   0.00064
    D9        0.00554   0.00007  -0.00001   0.00036   0.00035   0.00589
   D10       -3.12911  -0.00002   0.00014   0.00398   0.00412  -3.12499
   D11       -3.13661   0.00008   0.00008   0.00076   0.00084  -3.13577
   D12        0.01192  -0.00001   0.00024   0.00438   0.00461   0.01653
   D13       -0.00968   0.00004   0.00011   0.00164   0.00175  -0.00793
   D14        3.13254   0.00003   0.00000   0.00120   0.00120   3.13375
   D15       -0.00657  -0.00007  -0.00001  -0.00081  -0.00083  -0.00740
   D16        3.12879   0.00001  -0.00016  -0.00406  -0.00421   3.12458
   D17       -0.17470   0.00029   0.00000   0.00000  -0.00001  -0.17471
   D18        2.99072   0.00024   0.00015   0.00450   0.00466   2.99538
   D19        2.97444   0.00022   0.00017   0.00401   0.00418   2.97862
   D20       -0.14333   0.00017   0.00032   0.00851   0.00885  -0.13448
   D21        0.00610   0.00006   0.00004   0.00110   0.00114   0.00724
   D22       -3.13897   0.00003   0.00007   0.00079   0.00086  -3.13811
   D23       -3.11833   0.00001   0.00010   0.00511   0.00519  -3.11314
   D24        0.00258   0.00008  -0.00004   0.00137   0.00133   0.00391
   D25        3.11648  -0.00003  -0.00026  -0.00644  -0.00670   3.10978
   D26       -0.02886  -0.00002  -0.00022  -0.00579  -0.00601  -0.03487
   D27       -0.00287  -0.00011  -0.00008  -0.00242  -0.00250  -0.00537
   D28        3.13498  -0.00010  -0.00004  -0.00176  -0.00181   3.13317
   D29       -0.00158  -0.00003   0.00014   0.00007   0.00020  -0.00137
   D30       -3.13096  -0.00000   0.00006   0.00138   0.00143  -3.12953
   D31        0.00026  -0.00003  -0.00022  -0.00149  -0.00170  -0.00144
   D32       -3.13425   0.00002  -0.00003   0.00120   0.00116  -3.13309
   D33        3.13238  -0.00004  -0.00015  -0.00248  -0.00263   3.12976
   D34       -0.00213   0.00001   0.00004   0.00021   0.00024  -0.00189
   D35        3.13217  -0.00004   0.00013  -0.00113  -0.00101   3.13116
   D36       -0.01143  -0.00005   0.00000  -0.00186  -0.00187  -0.01330
[...]
      2          6           0       -2.701745    0.869768    0.081635
      3          6           0       -1.732613   -0.139807    0.000894
      4          6           0       -4.098211   -0.996110   -0.039617
      5          1           0       -4.927297    1.026087    0.113541
      6         16           0       -2.516882   -1.698739   -0.110802
      7          1           0       -4.980089   -1.635251   -0.077969
      8          6           0       -0.287665   -0.031924    0.016252
      9         16           0        0.509276    1.544378   -0.112597
     10          6           0        2.080062    0.794810   -0.068978
     11          6           0        1.971294   -0.613435    0.041125
     12          6           0        0.634241   -1.084397    0.091725
     13          1           0        0.332496   -2.130536    0.183760
     14         16           0        3.548456   -1.352426    0.100716
     15          6           0        4.324736    0.211676   -0.020385
     16          6           0        3.424767    1.267457   -0.101469
     17          1           0        5.414444    0.263958   -0.027432
     18          1           0        3.733541    2.311279   -0.182299
     19          8           0       -2.319330    2.191736    0.171956
     20          1           0       -3.115932    2.740198    0.214809
 ---------------------------------------------------------------------
 Rotational constants (GHZ):           1.2749515           0.2815162           0.2310581

 **********************************************************************

            Population analysis using the SCF Density.

 **********************************************************************

 Orbital symmetries:
       Occupied  (A) (A) (A) (A) (A) (A) (A) (A) (A) (A) (A) (A)
                 (A) (A) (A) (A) (A) (A) (A) (A) (A) (A) (A) (A)
                 (A) (A) (A) (A) (A) (A) (A) (A) (A) (A) (A) (A)
                 (A) (A) (A) (A) (A) (A) (A) (A) (A) (A) (A) (A)
                 (A) (A) (A) (A) (A) (A) (A) (A) (A) (A) (A) (A)
                 (A)
       Virtual   (A) (A) (A) (A) (A) (A) (A) (A) (A) (A) (A) (A)
                 (A) (A) (A) (A) (A) (A) (A) (A) (A) (A) (A) (A)
                 (A) (A) (A) (A) (A) (A) (A) (A) (A) (A) (A) (A)
                 (A) (A) (A) (A) (A) (A) (A) (A) (A) (A) (A) (A)
                 (A) (A) (A) (A) (A) (A) (A) (A) (A) (A) (A) (A)
                 (A) (A) (A) (A) (A) (A) (A) (A) (A) (A) (A) (A)
                 (A) (A) (A) (A) (A) (A) (A) (A) (A) (A) (A) (A)
                 (A) (A) (A) (A) (A) (A) (A) (A) (A) (A) (A) (A)
                 (A) (A) (A) (A) (A) (A) (A) (A) (A) (A) (A) (A)
                 (A) (A) (A) (A) (A) (A) (A) (A) (A) (A) (A) (A)
                 (A) (A) (A) (A) (A) (A) (A) (A) (A) (A) (A) (A)
                 (A) (A) (A) (A) (A) (A) (A) (A) (A) (A) (A) (A)
                 (A) (A) (A) (A) (A) (A) (A) (A) (A) (A) (A) (A)
                 (A) (A) (A) (A) (A) (A) (A) (A) (A) (A) (A) (A)
                 (A) (A) (A) (A) (A) (A) (A) (A) (A) (A) (A) (A)
                 (A) (A) (A) (A) (A) (A) (A) (A) (A) (A) (A) (A)
                 (A) (A) (A) (A) (A) (A) (A) (A) (A) (A) (A) (A)
                 (A) (A) (A) (A) (A) (A) (A) (A) (A) (A) (A) (A)
                 (A) (A) (A) (A) (A) (A) (A) (A) (A) (A) (A) (A)
                 (A) (A) (A) (A) (A) (A) (A) (A) (A) (A) (A) (A)
                 (A) (A) (A) (A) (A) (A) (A) (A) (A) (A) (A) (A)
                 (A) (A) (A) (A) (A) (A) (A) (A) (A) (A) (A) (A)
                 (A) (A) (A) (A) (A) (A) (A) (A) (A) (A) (A) (A)
                 (A) (A) (A) (A) (A) (A) (A) (A) (A) (A) (A) (A)
                 (A) (A) (A) (A) (A) (A) (A) (A) (A) (A) (A) (A)
                 (A) (A) (A) (A) (A) (A) (A) (A) (A) (A) (A) (A)
                 (A) (A) (A) (A) (A) (A) (A) (A) (A) (A) (A) (A)
                 (A) (A) (A)
 The electronic state is 1-A.
 Alpha  occ. eigenvalues --  -91.99769 -91.98872 -91.98756 -20.61863 -11.32709
 Alpha  occ. eigenvalues --  -11.29488 -11.29486 -11.28288 -11.27794 -11.27425
 Alpha  occ. eigenvalues --  -11.27061 -11.26706 -11.25957 -11.25719  -8.99928
 Alpha  occ. eigenvalues --   -8.98984  -8.98824  -6.68098  -6.68006  -6.67815
 Alpha  occ. eigenvalues --   -6.67151  -6.67071  -6.66980  -6.66894  -6.66874
 Alpha  occ. eigenvalues --   -6.66692  -1.41953  -1.20070  -1.17781  -1.11511
 Alpha  occ. eigenvalues --   -1.02460  -1.01917  -0.99027  -0.94349  -0.93769
 Alpha  occ. eigenvalues --   -0.82680  -0.80914  -0.76343  -0.74218  -0.70997
 Alpha  occ. eigenvalues --   -0.69809  -0.66848  -0.65621  -0.61048  -0.60810
 Alpha  occ. eigenvalues --   -0.58701  -0.56552  -0.55444  -0.54323  -0.52684
 Alpha  occ. eigenvalues --   -0.52058  -0.51335  -0.49721  -0.47869  -0.46269
 Alpha  occ. eigenvalues --   -0.45331  -0.39032  -0.35599  -0.34204  -0.31614
 Alpha  occ. eigenvalues --   -0.25782
 Alpha virt. eigenvalues --    0.02705   0.03689   0.03899   0.04969   0.05116
 Alpha virt. eigenvalues --    0.05469   0.06247   0.08493   0.09385   0.09540
 Alpha virt. eigenvalues --    0.10356   0.10699   0.10741   0.11073   0.11344
 Alpha virt. eigenvalues --    0.12442   0.12646   0.12969   0.13192   0.13552
 Alpha virt. eigenvalues --    0.13859   0.14308   0.14571   0.15218   0.15310
 Alpha virt. eigenvalues --    0.15403   0.15625   0.16669   0.16885   0.17137
 Alpha virt. eigenvalues --    0.17547   0.18319   0.18649   0.19216   0.19462
 Alpha virt. eigenvalues --    0.19682   0.19995   0.20529   0.21130   0.21926
 Alpha virt. eigenvalues --    0.22434   0.22715   0.22724   0.23155   0.23534
 Alpha virt. eigenvalues --    0.23917   0.24285   0.25080   0.25794   0.25867
 Alpha virt. eigenvalues --    0.26580   0.27218   0.27654   0.28068   0.28083
 Alpha virt. eigenvalues --    0.28677   0.29168   0.29737   0.31187   0.31745
 Alpha virt. eigenvalues --    0.31941   0.32026   0.32450   0.32953   0.33664
 Alpha virt. eigenvalues --    0.34017   0.34445   0.35528   0.35779   0.36365
 Alpha virt. eigenvalues --    0.36432   0.37278   0.37998   0.39108   0.39759
 Alpha virt. eigenvalues --    0.39979   0.40293   0.41518   0.42026   0.42250
 Alpha virt. eigenvalues --    0.42528   0.42776   0.44397   0.44627   0.45055
 Alpha virt. eigenvalues --    0.45571   0.46632   0.47202   0.47392   0.48329
 Alpha virt. eigenvalues --    0.48634   0.50118   0.50615   0.51041   0.51592
 Alpha virt. eigenvalues --    0.52231   0.53564   0.53868   0.54133   0.54968
 Alpha virt. eigenvalues --    0.55934   0.56313   0.58331   0.58776   0.59398
 Alpha virt. eigenvalues --    0.59626   0.61540   0.62255   0.62399   0.62980
 Alpha virt. eigenvalues --    0.63609   0.63742   0.64491   0.66109   0.66351
 Alpha virt. eigenvalues --    0.66702   0.66774   0.67180   0.67638   0.68309
 Alpha virt. eigenvalues --    0.68876   0.68979   0.69300   0.70340   0.70426
 Alpha virt. eigenvalues --    0.71260   0.71648   0.72281   0.73283   0.73784
 Alpha virt. eigenvalues --    0.74128   0.74602   0.75752   0.76121   0.76547
 Alpha virt. eigenvalues --    0.78053   0.78290   0.78635   0.78908   0.80445
 Alpha virt. eigenvalues --    0.81363   0.82657   0.83227   0.83906   0.84319
 Alpha virt. eigenvalues --    0.85030   0.85644   0.86177   0.86406   0.86939
 Alpha virt. eigenvalues --    0.88716   0.89440   0.90597   0.90768   0.91061
 Alpha virt. eigenvalues --    0.92123   0.93037   0.93472   0.94328   0.95323
 Alpha virt. eigenvalues --    0.95586   0.95933   0.96870   0.96894   0.98408
 Alpha virt. eigenvalues --    0.98526   1.00058   1.00849   1.02094   1.02870
 Alpha virt. eigenvalues --    1.03812   1.04758   1.05681   1.07669   1.08012
 Alpha virt. eigenvalues --    1.09202   1.10097   1.10177   1.11565   1.12240
 Alpha virt. eigenvalues --    1.13413   1.15334   1.15990   1.17440   1.19291
 Alpha virt. eigenvalues --    1.19498   1.20527   1.21597   1.22723   1.23381
 Alpha virt. eigenvalues --    1.24485   1.25974   1.26121   1.27874   1.28554
 Alpha virt. eigenvalues --    1.29335   1.30048   1.30734   1.31161   1.32904
 Alpha virt. eigenvalues --    1.33996   1.34420   1.35272   1.35733   1.37478
 Alpha virt. eigenvalues --    1.37973   1.38791   1.40323   1.41481   1.44750
 Alpha virt. eigenvalues --    1.45556   1.46331   1.48508   1.49332   1.51077
 Alpha virt. eigenvalues --    1.52159   1.54440   1.55117   1.55723   1.56964
 Alpha virt. eigenvalues --    1.57977   1.59592   1.60968   1.61822   1.62654
 Alpha virt. eigenvalues --    1.63411   1.64565   1.66219   1.66730   1.69067
 Alpha virt. eigenvalues --    1.69183   1.70361   1.71911   1.72781   1.73600
 Alpha virt. eigenvalues --    1.74293   1.75555   1.76719   1.77674   1.78508
 Alpha virt. eigenvalues --    1.79746   1.80990   1.81088   1.82870   1.83457
 Alpha virt. eigenvalues --    1.84861   1.86169   1.86757   1.89199   1.89474
 Alpha virt. eigenvalues --    1.90740   1.93222   1.93413   1.94438   1.96180
 Alpha virt. eigenvalues --    1.97519   1.99863   2.00835   2.01197   2.01853
 Alpha virt. eigenvalues --    2.03088   2.05672   2.07421   2.08846   2.09696
 Alpha virt. eigenvalues --    2.10172   2.10197   2.13104   2.15039   2.16310
 Alpha virt. eigenvalues --    2.17301   2.18338   2.18987   2.19807   2.20344
 Alpha virt. eigenvalues --    2.23516   2.25788   2.26346   2.27429   2.30846
 Alpha virt. eigenvalues --    2.32629   2.33850   2.34752   2.35290   2.36837
 Alpha virt. eigenvalues --    2.38374   2.40470   2.40687   2.42638   2.43866
 Alpha virt. eigenvalues --    2.45322   2.46716   2.48426   2.50678   2.52949
 Alpha virt. eigenvalues --    2.55069   2.56598   2.58010   2.61535   2.67736
 Alpha virt. eigenvalues --    2.72254   2.77230   2.79439   2.81273   2.84360
 Alpha virt. eigenvalues --    2.87620   2.94462   2.96201   2.99358   3.02370
 Alpha virt. eigenvalues --    3.15198   3.20344   3.24604   3.26942   3.30410
 Alpha virt. eigenvalues --    3.35825   3.47876   3.54993   3.68965   3.75708
 Alpha virt. eigenvalues --    3.75744   3.79591   3.85781   3.93782   4.12435
 Alpha virt. eigenvalues --    4.25590   4.43116
          Condensed to atoms (all electrons):
               1          2          3          4          5          6
     1  C    8.063301  -1.931558   0.139181   0.179438  -0.156121  -0.453573
     2  C   -1.931558  11.967544  -2.516211   0.448596   0.168642  -0.473202
     3  C    0.139181  -2.516211  13.649398  -1.819138   0.081847  -0.198233
     4  C    0.179438   0.448596  -1.819138   6.998727  -0.052354   0.149910
     5  H   -0.156121   0.168642   0.081847  -0.052354   1.563066  -0.034417
     6  S   -0.453573  -0.473202  -0.198233   0.149910  -0.034417  16.532879
     7  H    0.005325   0.051462  -0.005423   0.212018  -0.055323  -0.100804
     8  C   -0.287253  -0.606123  -3.915908   0.715384  -0.053461  -0.021673
     9  S   -0.127109   0.291109  -0.749795   0.139848   0.016216   0.053909
    10  C   -0.106610   0.029130   0.013460   0.061626   0.000893   0.033902
    11  C    0.008362  -0.000682   0.296792  -0.064120  -0.001887  -0.112699
    12  C    0.097672  -0.874152   0.080190  -0.559552  -0.004122   0.037920
    13  H   -0.012497   0.035441   0.044262   0.007101  -0.001136  -0.008863
    14  S    0.000499  -0.010783  -0.054294   0.001284   0.000048   0.019973
    15  C   -0.001749  -0.011319   0.021079   0.001267   0.000013   0.007334
    16  C   -0.004623   0.027099  -0.284930   0.002381  -0.000272   0.008619
    17  H   -0.000010   0.000086  -0.001186   0.000012   0.000001   0.000187
    18  H   -0.000547   0.002486  -0.004473   0.000420   0.000002   0.000429
    19  O    0.054949  -0.689273   0.282210  -0.049721  -0.039803   0.019657
    20  H   -0.135698  -0.015262  -0.004493  -0.011267  -0.009561   0.009985
               7          8          9         10         11         12
     1  C    0.005325  -0.287253  -0.127109  -0.106610   0.008362   0.097672
     2  C    0.051462  -0.606123   0.291109   0.029130  -0.000682  -0.874152
     3  C   -0.005423  -3.915908  -0.749795   0.013460   0.296792   0.080190
     4  C    0.212018   0.715384   0.139848   0.061626  -0.064120  -0.559552
     5  H   -0.055323  -0.053461   0.016216   0.000893  -0.001887  -0.004122
     6  S   -0.100804  -0.021673   0.053909   0.033902  -0.112699   0.037920
     7  H    1.240609   0.004661  -0.000580   0.000236   0.002087   0.002061
     8  C    0.004661  14.706803   0.368313  -0.943937  -0.660824  -3.938223
     9  S   -0.000580   0.368313  17.092905   0.274409  -0.461499  -1.153621
    10  C    0.000236  -0.943937   0.274409  10.620121  -0.583127  -0.487283
    11  C    0.002087  -0.660824  -0.461499  -0.583127  12.485858  -3.302217
    12  C    0.002061  -3.938223  -1.153621  -0.487283  -3.302217  17.594844
    13  H    0.004025   0.764923   0.036468  -0.118010   0.396923  -1.335012
    14  S   -0.000073  -0.365270   0.141702   0.171612  -0.590798   0.139054
    15  C    0.000015  -0.001352  -0.124807  -0.220498  -0.969411   0.128761
    16  C    0.000045   0.003065  -0.261982  -2.822478  -0.290260  -0.603652
    17  H   -0.000000  -0.001241   0.016544   0.079834  -0.095300   0.028405
    18  H    0.000011   0.053084   0.053862   0.499019   0.001517  -0.037889
    19  O   -0.002126   0.025041  -0.112407   0.011641  -0.009029   0.016701
    20  H    0.001058   0.018035   0.033208   0.006675   0.000232  -0.007933
              13         14         15         16         17         18
     1  C   -0.012497   0.000499  -0.001749  -0.004623  -0.000010  -0.000547
     2  C    0.035441  -0.010783  -0.011319   0.027099   0.000086   0.002486
     3  C    0.044262  -0.054294   0.021079  -0.284930  -0.001186  -0.004473
     4  C    0.007101   0.001284   0.001267   0.002381   0.000012   0.000420
     5  H   -0.001136   0.000048   0.000013  -0.000272   0.000001   0.000002
     6  S   -0.008863   0.019973   0.007334   0.008619   0.000187   0.000429
     7  H    0.004025  -0.000073   0.000015   0.000045  -0.000000   0.000011
     8  C    0.764923  -0.365270  -0.001352   0.003065  -0.001241   0.053084
     9  S    0.036468   0.141702  -0.124807  -0.261982   0.016544   0.053862
    10  C   -0.118010   0.171612  -0.220498  -2.822478   0.079834   0.499019
    11  C    0.396923  -0.590798  -0.969411  -0.290260  -0.095300   0.001517
    12  C   -1.335012   0.139054   0.128761  -0.603652   0.028405  -0.037889
    13  H    1.735903  -0.059789   0.014808  -0.031549   0.002388   0.001052
    14  S   -0.059789  16.091209   0.229678  -0.096578  -0.128181   0.002201
    15  C    0.014808   0.229678   6.660593   0.310063   0.284909  -0.114633
    16  C   -0.031549  -0.096578   0.310063  10.212493  -0.028163  -0.427299
    17  H    0.002388  -0.128181   0.284909  -0.028163   1.263207  -0.061927
    18  H    0.001052   0.002201  -0.114633  -0.427299  -0.061927   1.335865
    19  O    0.001607   0.000431  -0.000161   0.001247   0.000025   0.000091
    20  H    0.000395  -0.000005   0.000010   0.000536   0.000000   0.000068
              19         20
     1  C    0.054949  -0.135698
     2  C   -0.689273  -0.015262
     3  C    0.282210  -0.004493
     4  C   -0.049721  -0.011267
     5  H   -0.039803  -0.009561
     6  S    0.019657   0.009985
     7  H   -0.002126   0.001058
     8  C    0.025041   0.018035
     9  S   -0.112407   0.033208
    10  C    0.011641   0.006675
    11  C   -0.009029   0.000232
    12  C    0.016701  -0.007933
    13  H    0.001607   0.000395
    14  S    0.000431  -0.000005
    15  C   -0.000161   0.000010
    16  C    0.001247   0.000536
    17  H    0.000025   0.000000
    18  H    0.000091   0.000068
    19  O    9.115172   0.353068
    20  H    0.353068   0.543345
 Mulliken charges:
               1
     1  C    0.668622
     2  C    0.106970
     3  C    0.945665
     4  C   -0.361861
     5  H   -0.422271
     6  S    0.528760
     7  H   -0.359282
     8  C    0.135955
     9  S    0.473307
    10  C   -0.520616
    11  C   -0.049921
    12  C    0.178048
    13  H   -0.478440
    14  S    0.508080
    15  C   -0.214601
    16  C    0.286237
    17  H   -0.359589
    18  H   -0.303339
    19  O   -0.979322
    20  H    0.217599
 Sum of Mulliken charges =  -0.00000
 Mulliken charges with hydrogens summed into heavy atoms:
               1
     1  C    0.246352
     2  C    0.106970
     3  C    0.945665
     4  C   -0.721144
     6  S    0.528760
     8  C    0.135955
     9  S    0.473307
    10  C   -0.520616
    11  C   -0.049921
    12  C   -0.300392
    14  S    0.508080
    15  C   -0.574191
    16  C   -0.017103
    19  O   -0.761723
 Electronic spatial extent (au):  <R**2>=           4340.1027
 Charge=             -0.0000 electrons
 Dipole moment (field-independent basis, Debye):
    X=             -2.7827    Y=              1.0607    Z=              0.0854  Tot=              2.9792
 Quadrupole moment (field-independent basis, Debye-Ang):
   XX=            -76.4054   YY=            -95.2986   ZZ=           -111.4826
   XY=             -1.0449   XZ=             -0.8806   YZ=             -0.0678
 Traceless Quadrupole moment (field-independent basis, Debye-Ang):
   XX=             17.9901   YY=             -0.9031   ZZ=            -17.0871
   XY=             -1.0449   XZ=             -0.8806   YZ=             -0.0678
 Octapole moment (field-independent basis, Debye-Ang**2):
  XXX=            -63.5722  YYY=             23.5280  ZZZ=              0.8823  XYY=            -26.7948
  XXY=             40.1805  XXZ=              1.0016  XZZ=             -4.9034  YZZ=              3.9440
  YYZ=              0.9541  XYZ=             -4.5896
 Hexadecapole moment (field-independent basis, Debye-Ang**3):
 XXXX=          -3996.1570 YYYY=          -1011.0217 ZZZZ=           -146.5350 XXXY=            -16.6538
 XXXZ=            -14.9708 YYYX=            -50.4565 YYYZ=              2.6113 ZZZX=             -1.0805
 ZZZY=              2.4393 XXYY=           -837.2028 XXZZ=           -927.9632 YYZZ=           -222.0212
 XXYZ=              9.1448 YYXZ=             -7.0933 ZZXY=            -14.7310
 N-N= 1.123068807379D+03 E-N=-6.152666217240D+03  KE= 1.648704301944D+03
 Unable to Open any file for archive entry.
 1\1\GINC-CX3-6-28\FOpt\RMP2-FC\Aug-CC-pVDZ\C10H6O1S3\NS5018\27-Oct-202
 1\0\\# opt=modredundant mp2/aug-cc-pvdz\\pBTTT_-10.pdb\\0,1\C,-4.03952
 0918,0.3926481214,0.0608581859\C,-2.6995421414,0.871628702,0.083124235
 8\C,-1.7321799262,-0.1395699615,0.0014909127\C,-4.0992661909,-0.991755
 7278,-0.0388969639\H,-4.924811604,1.031776598,0.1157414352\S,-2.519173
 7763,-1.6970739518,-0.1109544918\H,-4.9822587195,-1.6293466792,-0.0774
 012829\C,-0.2870433172,-0.0341949326,0.0165168935\S,0.5125880172,1.540
 8052759,-0.1115771358\C,2.0820868062,0.7884956402,-0.0688550733\C,1.97
 09137429,-0.6196267656,0.0404058018\C,0.6330622635,-1.088307414,0.0910
 827455\H,0.3295342265,-2.133980015,0.182553877\S,3.5468120889,-1.36138
 10884,0.0991038326\C,4.3257619629,0.2014510637,-0.0212436023\C,3.42759
 86993,1.2588364074,-0.1014254391\H,5.41555721,0.2518532017,-0.02855905
 92\H,3.7381545181,2.3021733966,-0.1816938228\O,-2.3148163557,2.1928781
 213,0.1741580249\H,-3.1104565862,2.7426900077,0.2175709263\\Version=ES
 64L-G16RevC.01\State=1-A\HF=-1649.6306828\MP2=-1651.6235181\RMSD=5.459
 e-09\RMSF=1.490e-04\Dipole=-0.8449767,0.3668215,0.0286032\PG=C01 [X(C1
 0H6O1S3)]\\@
 The archive entry for this job was punched.


      TO SUSPECT YOUR OWN MORTALITY IS TO KNOW THE BEGINNING OF TERROR.
      TO LEARN IRREFUTABLY THAT YOU ARE MORTAL IS TO KNOW THE END
      OF TERROR.

                                                  -- JESSICA
                                                     CHILDREN OF DUNE
                                                     BY FRANK HERBERT
 Job cpu time:       0 days  7 hours 35 minutes 36.7 seconds.
 Elapsed time:       0 days  1 hours  0 minutes 54.9 seconds.
 File lengths (MBytes):  RWF=    106 Int=      0 D2E=      0 Chk=     16 Scr=      1
 Normal termination of Gaussian 16 at Wed Oct 27 05:45:18 2021.
