 Entering Gaussian System, Link 0=g16
 Input=pBTTT_-50.gjf
 Output=pBTTT_-50.log
 Initial command:
 /apps/gaussian/g16-c01-avx/g16/l1.exe "/tmp/pbs.4766300[125].pbs/Gau-1857854.inp" -scrdir="/tmp/pbs.4766300[125].pbs/"
 Entering Link 1 = /apps/gaussian/g16-c01-avx/g16/l1.exe PID=   1857855.
  
 Copyright (c) 1988-2019, Gaussian, Inc.  All Rights Reserved.
  
 This is part of the Gaussian(R) 16 program.  It is based on
 the Gaussian(R) 09 system (copyright 2009, Gaussian, Inc.),
 the Gaussian(R) 03 system (copyright 2003, Gaussian, Inc.),
 the Gaussian(R) 98 system (copyright 1998, Gaussian, Inc.),
 the Gaussian(R) 94 system (copyright 1995, Gaussian, Inc.),
 the Gaussian 92(TM) system (copyright 1992, Gaussian, Inc.),
 the Gaussian 90(TM) system (copyright 1990, Gaussian, Inc.),
 the Gaussian 88(TM) system (copyright 1988, Gaussian, Inc.),
 the Gaussian 86(TM) system (copyright 1986, Carnegie Mellon
 University), and the Gaussian 82(TM) system (copyright 1983,
 Carnegie Mellon University). Gaussian is a federally registered
 trademark of Gaussian, Inc.
  
 This software contains proprietary and confidential information,
 including trade secrets, belonging to Gaussian, Inc.
  
 This software is provided under written license and may be
 used, copied, transmitted, or stored only in accord with that
 written license.
  
 The following legend is applicable only to US Government
 contracts under FAR:
  
                    RESTRICTED RIGHTS LEGEND
  
 Use, reproduction and disclosure by the US Government is
 subject to restrictions as set forth in subparagraphs (a)
 and (c) of the Commercial Computer Software - Restricted
 Rights clause in FAR 52.227-19.
  
 Gaussian, Inc.
 340 Quinnipiac St., Bldg. 40, Wallingford CT 06492
  
  
 ---------------------------------------------------------------
 Warning -- This program may not be used in any manner that
 competes with the business of Gaussian, Inc. or will provide
 assistance to any competitor of Gaussian, Inc.  The licensee
 of this program is prohibited from giving any competitor of
 Gaussian, Inc. access to this program.  By using this program,
 the user acknowledges that Gaussian, Inc. is engaged in the
 business of creating and licensing software in the field of
 computational chemistry and represents and warrants to the
 licensee that it is not a competitor of Gaussian, Inc. and that
 it will not use this program in any manner prohibited above.
 ---------------------------------------------------------------
  

 Cite this work as:
 Gaussian 16, Revision C.01,
 M. J. Frisch, G. W. Trucks, H. B. Schlegel, G. E. Scuseria, 
 M. A. Robb, J. R. Cheeseman, G. Scalmani, V. Barone, 
 G. A. Petersson, H. Nakatsuji, X. Li, M. Caricato, A. V. Marenich, 
 J. Bloino, B. G. Janesko, R. Gomperts, B. Mennucci, H. P. Hratchian, 
 J. V. Ortiz, A. F. Izmaylov, J. L. Sonnenberg, D. Williams-Young, 
 F. Ding, F. Lipparini, F. Egidi, J. Goings, B. Peng, A. Petrone, 
 T. Henderson, D. Ranasinghe, V. G. Zakrzewski, J. Gao, N. Rega, 
 G. Zheng, W. Liang, M. Hada, M. Ehara, K. Toyota, R. Fukuda, 
 J. Hasegawa, M. Ishida, T. Nakajima, Y. Honda, O. Kitao, H. Nakai, 
 T. Vreven, K. Throssell, J. A. Montgomery, Jr., J. E. Peralta, 
 F. Ogliaro, M. J. Bearpark, J. J. Heyd, E. N. Brothers, K. N. Kudin, 
 V. N. Staroverov, T. A. Keith, R. Kobayashi, J. Normand, 
 K. Raghavachari, A. P. Rendell, J. C. Burant, S. S. Iyengar, 
 J. Tomasi, M. Cossi, J. M. Millam, M. Klene, C. Adamo, R. Cammi, 
 J. W. Ochterski, R. L. Martin, K. Morokuma, O. Farkas, 
 J. B. Foresman, and D. J. Fox, Gaussian, Inc., Wallingford CT, 2019.
 
 ******************************************
 Gaussian 16:  ES64L-G16RevC.01  3-Jul-2019
                27-Oct-2021 
 ******************************************
 %mem=100GB
 %nprocshared=8
 Will use up to    8 processors via shared memory.
 ----------------------------------
 # opt=modredundant mp2/aug-cc-pvdz
 ----------------------------------
 1/18=120,19=15,38=1/1,3;
 2/9=110,12=2,17=6,18=5,40=1/2;
 3/5=16,7=10,11=9,25=1,30=1,71=1/1,2,3;
 4//1;
 5/5=2,38=5/2;
 8/6=4,10=1/1;
 9/15=2,16=-3/6;
 10/5=1/2;
 6/7=2,8=2,9=2,10=2/1;
 7/12=2/1,2,3,16;
 1/18=20,19=15/3(2);
 2/9=110/2;
 99//99;
 2/9=110/2;
 3/5=16,7=10,11=9,25=1,30=1,71=1/1,2,3;
 4/5=5,16=3,69=1/1;
 5/5=2,38=5/2;
 8/6=4,10=1/1;
 9/15=2,16=-3/6;
 10/5=1/2;
 7/12=2/1,2,3,16;
 1/18=20,19=15/3(-8);
 2/9=110/2;
 6/7=2,8=2,9=2,10=2/1;
 99/9=10/99;
 -------------
 pBTTT_-50.pdb
 -------------
 Symbolic Z-matrix:
 Charge =  0 Multiplicity = 1
 C                    -4.016     0.339     0.314 
 C                    -2.66      0.796     0.441 
 C                    -1.739    -0.102     0.015 
 C                    -4.089    -0.903    -0.207 
 H                    -4.875     0.923     0.61 
 S                    -2.534    -1.546    -0.57 
 H                    -4.979    -1.478    -0.403 
 C                    -0.275    -0.002     0.015 
 S                     0.537     1.411    -0.645 
 C                     2.089     0.698    -0.334 
 C                     1.96     -0.538     0.226 
 C                     0.602    -0.948     0.429 
 H                     0.299    -1.885     0.866 
 S                     3.513    -1.245     0.552 
 C                     4.31      0.17     -0.085 
 C                     3.45      1.117    -0.514 
 H                     5.386     0.211    -0.104 
 H                     3.757     2.06     -0.938 
 O                    -2.321     2.        0.949 
 H                    -3.087     2.494     1.187 
 
 The following ModRedundant input section has been read:
 D       2       3       8       9 F                                           
 

 GradGradGradGradGradGradGradGradGradGradGradGradGradGradGradGradGradGrad
 Berny optimization.
 Initialization pass.
                           ----------------------------
                           !    Initial Parameters    !
                           ! (Angstroms and Degrees)  !
 --------------------------                            --------------------------
 ! Name  Definition              Value          Derivative Info.                !
 --------------------------------------------------------------------------------
 ! R1    R(1,2)                  1.4366         estimate D2E/DX2                !
 ! R2    R(1,4)                  1.3488         estimate D2E/DX2                !
 ! R3    R(1,5)                  1.0801         estimate D2E/DX2                !
 ! R4    R(2,3)                  1.355          estimate D2E/DX2                !
 ! R5    R(2,19)                 1.35           estimate D2E/DX2                !
 ! R6    R(3,6)                  1.7491         estimate D2E/DX2                !
 ! R7    R(3,8)                  1.4674         estimate D2E/DX2                !
 ! R8    R(4,6)                  1.7214         estimate D2E/DX2                !
 ! R9    R(4,7)                  1.0776         estimate D2E/DX2                !
 ! R10   R(8,9)                  1.7583         estimate D2E/DX2                !
 ! R11   R(8,12)                 1.3548         estimate D2E/DX2                !
 ! R12   R(9,10)                 1.736          estimate D2E/DX2                !
 ! R13   R(10,11)                1.3631         estimate D2E/DX2                !
 ! R14   R(10,16)                1.4354         estimate D2E/DX2                !
 ! R15   R(11,12)                1.433          estimate D2E/DX2                !
 ! R16   R(11,14)                1.7372         estimate D2E/DX2                !
 ! R17   R(12,13)                1.0774         estimate D2E/DX2                !
 ! R18   R(14,15)                1.7445         estimate D2E/DX2                !
 ! R19   R(15,16)                1.3492         estimate D2E/DX2                !
 ! R20   R(15,17)                1.0769         estimate D2E/DX2                !
 ! R21   R(16,18)                1.0786         estimate D2E/DX2                !
 ! R22   R(19,20)                0.942          estimate D2E/DX2                !
 ! A1    A(2,1,4)              112.2197         estimate D2E/DX2                !
 ! A2    A(2,1,5)              123.6748         estimate D2E/DX2                !
 ! A3    A(4,1,5)              124.1039         estimate D2E/DX2                !
 ! A4    A(1,2,3)              113.763          estimate D2E/DX2                !
 ! A5    A(1,2,19)             123.6416         estimate D2E/DX2                !
 ! A6    A(3,2,19)             122.5919         estimate D2E/DX2                !
 ! A7    A(2,3,6)              110.0798         estimate D2E/DX2                !
 ! A8    A(2,3,8)              129.2677         estimate D2E/DX2                !
 ! A9    A(6,3,8)              120.6452         estimate D2E/DX2                !
 ! A10   A(1,4,6)              112.1177         estimate D2E/DX2                !
 ! A11   A(1,4,7)              127.323          estimate D2E/DX2                !
 ! A12   A(6,4,7)              120.5585         estimate D2E/DX2                !
 ! A13   A(3,6,4)               91.8153         estimate D2E/DX2                !
 ! A14   A(3,8,9)              121.0315         estimate D2E/DX2                !
 ! A15   A(3,8,12)             126.7444         estimate D2E/DX2                !
 ! A16   A(9,8,12)             112.142          estimate D2E/DX2                !
 ! A17   A(8,9,10)              90.8916         estimate D2E/DX2                !
 ! A18   A(9,10,11)            111.1871         estimate D2E/DX2                !
 ! A19   A(9,10,16)            134.8554         estimate D2E/DX2                !
 ! A20   A(11,10,16)           113.9511         estimate D2E/DX2                !
 ! A21   A(10,11,12)           114.0372         estimate D2E/DX2                !
 ! A22   A(10,11,14)           111.194          estimate D2E/DX2                !
 ! A23   A(12,11,14)           134.7608         estimate D2E/DX2                !
 ! A24   A(8,12,11)            111.7393         estimate D2E/DX2                !
 ! A25   A(8,12,13)            123.3106         estimate D2E/DX2                !
 ! A26   A(11,12,13)           124.9467         estimate D2E/DX2                !
 ! A27   A(11,14,15)            90.561          estimate D2E/DX2                !
 ! A28   A(14,15,16)           113.2167         estimate D2E/DX2                !
 ! A29   A(14,15,17)           119.59           estimate D2E/DX2                !
 ! A30   A(16,15,17)           127.1932         estimate D2E/DX2                !
 ! A31   A(10,16,15)           111.0764         estimate D2E/DX2                !
 ! A32   A(10,16,18)           125.0587         estimate D2E/DX2                !
 ! A33   A(15,16,18)           123.8645         estimate D2E/DX2                !
 ! A34   A(2,19,20)            111.0115         estimate D2E/DX2                !
 ! D1    D(4,1,2,3)              0.0807         estimate D2E/DX2                !
 ! D2    D(4,1,2,19)          -179.2494         estimate D2E/DX2                !
 ! D3    D(5,1,2,3)            179.6388         estimate D2E/DX2                !
 ! D4    D(5,1,2,19)             0.3087         estimate D2E/DX2                !
 ! D5    D(2,1,4,6)             -0.5202         estimate D2E/DX2                !
 ! D6    D(2,1,4,7)            179.7833         estimate D2E/DX2                !
 ! D7    D(5,1,4,6)            179.924          estimate D2E/DX2                !
 ! D8    D(5,1,4,7)              0.2274         estimate D2E/DX2                !
 ! D9    D(1,2,3,6)              0.3845         estimate D2E/DX2                !
 ! D10   D(1,2,3,8)           -178.6244         estimate D2E/DX2                !
 ! D11   D(19,2,3,6)           179.7226         estimate D2E/DX2                !
 ! D12   D(19,2,3,8)             0.7137         estimate D2E/DX2                !
 ! D13   D(1,2,19,20)           -1.1313         estimate D2E/DX2                !
 ! D14   D(3,2,19,20)          179.5964         estimate D2E/DX2                !
 ! D15   D(2,3,6,4)             -0.5692         estimate D2E/DX2                !
 ! D16   D(8,3,6,4)            178.539          estimate D2E/DX2                !
 ! D17   D(2,3,8,9)            -49.9389         Frozen                          !
 ! D18   D(2,3,8,12)           133.6238         estimate D2E/DX2                !
 ! D19   D(6,3,8,9)            131.143          estimate D2E/DX2                !
 ! D20   D(6,3,8,12)           -45.2942         estimate D2E/DX2                !
 ! D21   D(1,4,6,3)              0.6284         estimate D2E/DX2                !
 ! D22   D(7,4,6,3)           -179.6518         estimate D2E/DX2                !
 ! D23   D(3,8,9,10)          -177.4122         estimate D2E/DX2                !
 ! D24   D(12,8,9,10)           -0.4939         estimate D2E/DX2                !
 ! D25   D(3,8,12,11)          177.1165         estimate D2E/DX2                !
 ! D26   D(3,8,12,13)           -3.5246         estimate D2E/DX2                !
 ! D27   D(9,8,12,11)            0.4122         estimate D2E/DX2                !
 ! D28   D(9,8,12,13)          179.7711         estimate D2E/DX2                !
 ! D29   D(8,9,10,11)            0.442          estimate D2E/DX2                !
 ! D30   D(8,9,10,16)         -178.5528         estimate D2E/DX2                !
 ! D31   D(9,10,11,12)          -0.2992         estimate D2E/DX2                !
 ! D32   D(9,10,11,14)        -179.4288         estimate D2E/DX2                !
 ! D33   D(16,10,11,12)        178.9211         estimate D2E/DX2                !
 ! D34   D(16,10,11,14)         -0.2085         estimate D2E/DX2                !
 ! D35   D(9,10,16,15)         179.2738         estimate D2E/DX2                !
 ! D36   D(9,10,16,18)          -0.9256         estimate D2E/DX2                !
 ! D37   D(11,10,16,15)          0.2993         estimate D2E/DX2                !
 ! D38   D(11,10,16,18)       -179.9            estimate D2E/DX2                !
 ! D39   D(10,11,12,8)          -0.0755         estimate D2E/DX2                !
 ! D40   D(10,11,12,13)       -179.4218         estimate D2E/DX2                !
 ! D41   D(14,11,12,8)         178.7816         estimate D2E/DX2                !
 ! D42   D(14,11,12,13)         -0.5647         estimate D2E/DX2                !
 ! D43   D(10,11,14,15)          0.0549         estimate D2E/DX2                !
 ! D44   D(12,11,14,15)       -178.8256         estimate D2E/DX2                !
 ! D45   D(11,14,15,16)          0.1193         estimate D2E/DX2                !
 ! D46   D(11,14,15,17)       -179.7374         estimate D2E/DX2                !
 ! D47   D(14,15,16,10)         -0.2518         estimate D2E/DX2                !
 ! D48   D(14,15,16,18)        179.9447         estimate D2E/DX2                !
 ! D49   D(17,15,16,10)        179.5917         estimate D2E/DX2                !
 ! D50   D(17,15,16,18)         -0.2117         estimate D2E/DX2                !
 --------------------------------------------------------------------------------
 Trust Radius=3.00D-01 FncErr=1.00D-07 GrdErr=1.00D-07 EigMax=2.50D+02 EigMin=1.00D-04
 Number of steps in this run=    116 maximum allowed number of steps=    120.
 GradGradGradGradGradGradGradGradGradGradGradGradGradGradGradGradGradGrad

                          Input orientation:                          
 ---------------------------------------------------------------------
 Center     Atomic      Atomic             Coordinates (Angstroms)
 Number     Number       Type             X           Y           Z
 ---------------------------------------------------------------------
      1          6           0       -4.016000    0.339000    0.314000
      2          6           0       -2.660000    0.796000    0.441000
      3          6           0       -1.739000   -0.102000    0.015000
      4          6           0       -4.089000   -0.903000   -0.207000
      5          1           0       -4.875000    0.923000    0.610000
      6         16           0       -2.534000   -1.546000   -0.570000
      7          1           0       -4.979000   -1.478000   -0.403000
      8          6           0       -0.275000   -0.002000    0.015000
      9         16           0        0.537000    1.411000   -0.645000
     10          6           0        2.089000    0.698000   -0.334000
     11          6           0        1.960000   -0.538000    0.226000
     12          6           0        0.602000   -0.948000    0.429000
     13          1           0        0.299000   -1.885000    0.866000
     14         16           0        3.513000   -1.245000    0.552000
     15          6           0        4.310000    0.170000   -0.085000
     16          6           0        3.450000    1.117000   -0.514000
     17          1           0        5.386000    0.211000   -0.104000
     18          1           0        3.757000    2.060000   -0.938000
     19          8           0       -2.321000    2.000000    0.949000
     20          1           0       -3.087000    2.494000    1.187000
 ---------------------------------------------------------------------
                    Distance matrix (angstroms):
                    1          2          3          4          5
     1  C    0.000000
     2  C    1.436563   0.000000
     3  C    2.338506   1.355035   0.000000
     4  C    1.348827   2.312692   2.492666   0.000000
     5  H    1.080071   2.225065   3.352484   2.149316   0.000000
     6  S    2.555583   2.554009   1.749110   1.721407   3.601200
     7  H    2.177831   3.355767   3.544813   1.077563   2.608023
     8  C    3.768390   2.550785   1.467411   3.925262   4.729656
     9  S    4.774796   3.431972   2.811573   5.190984   5.576999
    10  C    6.149781   4.812819   3.926243   6.383339   7.031291
    11  C    6.040650   4.813541   3.730579   6.075452   6.999943
    12  C    4.795364   3.698963   2.523369   4.734132   5.790590
    13  H    4.885704   4.015478   2.838439   4.622791   5.892425
    14  S    7.697502   6.502610   5.401696   7.647447   8.663840
    15  C    8.337268   7.017795   6.055938   8.468141   9.241983
    16  C    7.551955   6.192509   5.356447   7.810965   8.402776
    17  H    9.412158   8.085627   7.132864   9.540819  10.310425
    18  H    8.059086   6.684102   5.982346   8.418637   8.843104
    19  O    2.456659   1.350037   2.372653   3.590205   2.792448
    20  H    2.503836   1.903168   3.151175   3.806159   2.449064
                    6          7          8          9         10
     6  S    0.000000
     7  H    2.451640   0.000000
     8  C    2.798078   4.947819   0.000000
     9  S    4.263862   6.231464   1.758270   0.000000
    10  C    5.144255   7.395699   2.490040   1.736028   0.000000
    11  C    4.673940   7.030573   2.308039   2.565574   1.363062
    12  C    3.345161   5.667511   1.354784   2.592794   2.345774
    13  H    3.194199   5.443647   2.144613   3.633646   3.363925
    14  S    6.157572   8.548706   4.022731   4.164579   2.566714
    15  C    7.072497   9.439415   4.589315   4.011136   2.296438
    16  C    6.550035   8.820113   3.925255   2.930728   1.435368
    17  H    8.125922  10.505967   5.666255   5.024488   3.340700
    18  H    7.260533   9.440411   4.627859   3.297795   2.236534
    19  O    3.863528   4.581414   3.011059   3.325045   4.773824
    20  H    4.440097   4.678092   3.938394   4.202676   5.685950
                   11         12         13         14         15
    11  C    0.000000
    12  C    1.432994   0.000000
    13  H    2.232248   1.077380   0.000000
    14  S    1.737220   2.928696   3.292111   0.000000
    15  C    2.473961   3.906838   4.606034   1.744478   0.000000
    16  C    2.346641   3.642057   4.565655   2.592175   1.349241
    17  H    3.522411   4.951164   5.586742   2.461382   1.076948
    18  H    3.366557   4.568455   5.547540   3.633547   2.146047
    19  O    5.029029   4.183902   4.686631   6.687540   6.956164
    20  H    5.965631   5.102024   5.544698   7.612053   7.857135
                   16         17         18         19         20
    16  C    0.000000
    17  H    2.176472   0.000000
    18  H    1.078552   2.601538   0.000000
    19  O    6.018679   7.981678   6.364468   0.000000
    20  H    6.893613   8.869639   7.179437   0.942038   0.000000
 Stoichiometry    C10H6OS3
 Framework group  C1[X(C10H6OS3)]
 Deg. of freedom    54
 Full point group                 C1      NOp   1
 Largest Abelian subgroup         C1      NOp   1
 Largest concise Abelian subgroup C1      NOp   1
                         Standard orientation:                         
 ---------------------------------------------------------------------
 Center     Atomic      Atomic             Coordinates (Angstroms)
 Number     Number       Type             X           Y           Z
 ---------------------------------------------------------------------
      1          6           0       -4.015832    0.339082    0.313984
      2          6           0       -2.659817    0.796035    0.440984
      3          6           0       -1.738848   -0.101997    0.014984
      4          6           0       -4.088876   -0.902915   -0.207016
      5          1           0       -4.874812    0.923112    0.609984
      6         16           0       -2.533898   -1.545969   -0.570016
      7          1           0       -4.978896   -1.477884   -0.403016
      8          6           0       -0.274844   -0.002048    0.014984
      9         16           0        0.537205    1.410924   -0.645016
     10          6           0        2.089180    0.697870   -0.334016
     11          6           0        1.960137   -0.538126    0.225984
     12          6           0        0.602123   -0.948078    0.428984
     13          1           0        0.299090   -1.885068    0.865984
     14         16           0        3.513112   -1.245180    0.551984
     15          6           0        4.310162    0.169793   -0.085016
     16          6           0        3.450195    1.116822   -0.514016
     17          1           0        5.386163    0.210755   -0.104016
     18          1           0        3.757227    2.059812   -0.938016
     19          8           0       -2.320775    2.000023    0.948984
     20          1           0       -3.086757    2.494050    1.186984
 ---------------------------------------------------------------------
 Rotational constants (GHZ):           1.3025856           0.2739120           0.2398214
 Standard basis: Aug-CC-pVDZ (5D, 7F)
 There are   416 symmetry adapted cartesian basis functions of A   symmetry.
 There are   388 symmetry adapted basis functions of A   symmetry.
   388 basis functions,   782 primitive gaussians,   416 cartesian basis functions
    61 alpha electrons       61 beta electrons
       nuclear repulsion energy      1128.3545081837 Hartrees.
 NAtoms=   20 NActive=   20 NUniq=   20 SFac= 1.00D+00 NAtFMM=   60 NAOKFM=F Big=F
 Integral buffers will be    131072 words long.
 Raffenetti 1 integral format.
 Two-electron integral symmetry is turned on.
 One-electron integrals computed using PRISM.
 NBasis=   388 RedAO= T EigKep=  3.33D-06  NBF=   388
 NBsUse=   388 1.00D-06 EigRej= -1.00D+00 NBFU=   388
 ExpMin= 2.97D-02 ExpMax= 1.11D+05 ExpMxC= 1.07D+03 IAcc=3 IRadAn=         5 AccDes= 0.00D+00
 Harris functional with IExCor=  205 and IRadAn=       5 diagonalized for initial guess.
 HarFok:  IExCor=  205 AccDes= 0.00D+00 IRadAn=         5 IDoV= 1 UseB2=F ITyADJ=14
 ICtDFT=  3500011 ScaDFX=  1.000000  1.000000  1.000000  1.000000
 FoFCou: FMM=F IPFlag=           0 FMFlag=      100000 FMFlg1=           0
         NFxFlg=           0 DoJE=T BraDBF=F KetDBF=T FulRan=T
         wScrn=  0.000000 ICntrl=       500 IOpCl=  0 I1Cent=   200000004 NGrid=           0
         NMat0=    1 NMatS0=      1 NMatT0=    0 NMatD0=    1 NMtDS0=    0 NMtDT0=    0
 Petite list used in FoFCou.
 Requested convergence on RMS density matrix=1.00D-08 within 128 cycles.
 Requested convergence on MAX density matrix=1.00D-06.
 Requested convergence on             energy=1.00D-06.
 No special actions if energy rises.
 SCF Done:  E(RHF) =  -1649.64206579     A.U. after   17 cycles
            NFock= 17  Conv=0.61D-08     -V/T= 2.0000
 ExpMin= 2.97D-02 ExpMax= 1.11D+05 ExpMxC= 1.07D+03 IAcc=3 IRadAn=         5 AccDes= 0.00D+00
 HarFok:  IExCor=  205 AccDes= 0.00D+00 IRadAn=         5 IDoV=-2 UseB2=F ITyADJ=14
 ICtDFT= 12500011 ScaDFX=  1.000000  1.000000  1.000000  1.000000
 GSVD:  LWork=        -884 too small for GESVD, short by        3770 words or        3770 for optimal perf.
 Range of M.O.s used for correlation:    27   388
 NBasis=   388 NAE=    61 NBE=    61 NFC=    26 NFV=     0
 NROrb=    362 NOA=    35 NOB=    35 NVA=   327 NVB=   327

 **** Warning!!: The largest alpha MO coefficient is  0.83886725D+02

 Fully direct method using O(ONN) memory.
 JobTyp=1 Pass  1:  I=  27 to  61 NPSUse=  8 ParTrn=T ParDer=T DoDerP=T.
 Spin components of T(2) and E(2):
     alpha-alpha T2 =       0.1137046792D+00 E2=     -0.2740419899D+00
     alpha-beta  T2 =       0.5541671185D+00 E2=     -0.1420861996D+01
     beta-beta   T2 =       0.1137046792D+00 E2=     -0.2740419899D+00
 ANorm=    0.1334757085D+01
 E2 =    -0.1968945976D+01 EUMP2 =    -0.16516110117664D+04
          IDoAtm=11111111111111111111
          Differentiating once with respect to electric field.
                with respect to dipole field.
          Differentiating once with respect to nuclear coordinates.
 Keep R1 ints in memory in canonical form, NReq=2883857471.
          There are     1 degrees of freedom in the 1st order CPHF.  IDoFFX=0 NUNeed=     1.
 LinEq1:  Iter=  0 NonCon=     1 RMS=2.86D-03 Max=5.89D-02 NDo=     1
 AX will form     1 AO Fock derivatives at one time.
 LinEq1:  Iter=  1 NonCon=     1 RMS=6.79D-04 Max=1.14D-02 NDo=     1
 LinEq1:  Iter=  2 NonCon=     1 RMS=3.45D-04 Max=9.69D-03 NDo=     1
 LinEq1:  Iter=  3 NonCon=     1 RMS=8.93D-05 Max=2.11D-03 NDo=     1
 LinEq1:  Iter=  4 NonCon=     1 RMS=3.39D-05 Max=6.20D-04 NDo=     1
 LinEq1:  Iter=  5 NonCon=     1 RMS=1.40D-05 Max=5.33D-04 NDo=     1
 LinEq1:  Iter=  6 NonCon=     1 RMS=5.89D-06 Max=1.83D-04 NDo=     1
 LinEq1:  Iter=  7 NonCon=     1 RMS=2.66D-06 Max=1.00D-04 NDo=     1
 LinEq1:  Iter=  8 NonCon=     1 RMS=1.07D-06 Max=3.95D-05 NDo=     1
 LinEq1:  Iter=  9 NonCon=     1 RMS=4.46D-07 Max=1.47D-05 NDo=     1
 LinEq1:  Iter= 10 NonCon=     1 RMS=1.71D-07 Max=2.22D-06 NDo=     1
 LinEq1:  Iter= 11 NonCon=     1 RMS=7.45D-08 Max=3.20D-06 NDo=     1
 LinEq1:  Iter= 12 NonCon=     1 RMS=2.69D-08 Max=4.51D-07 NDo=     1
 LinEq1:  Iter= 13 NonCon=     1 RMS=1.17D-08 Max=2.40D-07 NDo=     1
 LinEq1:  Iter= 14 NonCon=     1 RMS=4.25D-09 Max=8.13D-08 NDo=     1
 LinEq1:  Iter= 15 NonCon=     1 RMS=1.73D-09 Max=4.89D-08 NDo=     1
 LinEq1:  Iter= 16 NonCon=     1 RMS=5.94D-10 Max=1.26D-08 NDo=     1
 LinEq1:  Iter= 17 NonCon=     1 RMS=2.44D-10 Max=7.48D-09 NDo=     1
 LinEq1:  Iter= 18 NonCon=     1 RMS=8.82D-11 Max=1.45D-09 NDo=     1
 LinEq1:  Iter= 19 NonCon=     0 RMS=3.02D-11 Max=4.81D-10 NDo=     1
 Linear equations converged to 1.000D-10 1.000D-09 after    19 iterations.
 End of Minotr F.D. properties file   721 does not exist.
 End of Minotr F.D. properties file   722 does not exist.
 End of Minotr F.D. properties file   788 does not exist.

 **********************************************************************

            Population analysis using the SCF Density.

 **********************************************************************

 Orbital symmetries:
       Occupied  (A) (A) (A) (A) (A) (A) (A) (A) (A) (A) (A) (A)
                 (A) (A) (A) (A) (A) (A) (A) (A) (A) (A) (A) (A)
                 (A) (A) (A) (A) (A) (A) (A) (A) (A) (A) (A) (A)
                 (A) (A) (A) (A) (A) (A) (A) (A) (A) (A) (A) (A)
                 (A) (A) (A) (A) (A) (A) (A) (A) (A) (A) (A) (A)
                 (A)
       Virtual   (A) (A) (A) (A) (A) (A) (A) (A) (A) (A) (A) (A)
                 (A) (A) (A) (A) (A) (A) (A) (A) (A) (A) (A) (A)
                 (A) (A) (A) (A) (A) (A) (A) (A) (A) (A) (A) (A)
                 (A) (A) (A) (A) (A) (A) (A) (A) (A) (A) (A) (A)
                 (A) (A) (A) (A) (A) (A) (A) (A) (A) (A) (A) (A)
                 (A) (A) (A) (A) (A) (A) (A) (A) (A) (A) (A) (A)
                 (A) (A) (A) (A) (A) (A) (A) (A) (A) (A) (A) (A)
                 (A) (A) (A) (A) (A) (A) (A) (A) (A) (A) (A) (A)
                 (A) (A) (A) (A) (A) (A) (A) (A) (A) (A) (A) (A)
                 (A) (A) (A) (A) (A) (A) (A) (A) (A) (A) (A) (A)
                 (A) (A) (A) (A) (A) (A) (A) (A) (A) (A) (A) (A)
                 (A) (A) (A) (A) (A) (A) (A) (A) (A) (A) (A) (A)
                 (A) (A) (A) (A) (A) (A) (A) (A) (A) (A) (A) (A)
                 (A) (A) (A) (A) (A) (A) (A) (A) (A) (A) (A) (A)
                 (A) (A) (A) (A) (A) (A) (A) (A) (A) (A) (A) (A)
                 (A) (A) (A) (A) (A) (A) (A) (A) (A) (A) (A) (A)
                 (A) (A) (A) (A) (A) (A) (A) (A) (A) (A) (A) (A)
                 (A) (A) (A) (A) (A) (A) (A) (A) (A) (A) (A) (A)
                 (A) (A) (A) (A) (A) (A) (A) (A) (A) (A) (A) (A)
                 (A) (A) (A) (A) (A) (A) (A) (A) (A) (A) (A) (A)
                 (A) (A) (A) (A) (A) (A) (A) (A) (A) (A) (A) (A)
                 (A) (A) (A) (A) (A) (A) (A) (A) (A) (A) (A) (A)
                 (A) (A) (A) (A) (A) (A) (A) (A) (A) (A) (A) (A)
                 (A) (A) (A) (A) (A) (A) (A) (A) (A) (A) (A) (A)
                 (A) (A) (A) (A) (A) (A) (A) (A) (A) (A) (A) (A)
                 (A) (A) (A) (A) (A) (A) (A) (A) (A) (A) (A) (A)
                 (A) (A) (A) (A) (A) (A) (A) (A) (A) (A) (A) (A)
                 (A) (A) (A)
 The electronic state is 1-A.
 Alpha  occ. eigenvalues --  -91.99120 -91.98576 -91.98356 -20.61044 -11.31821
 Alpha  occ. eigenvalues --  -11.28641 -11.28434 -11.27327 -11.27140 -11.26755
 Alpha  occ. eigenvalues --  -11.26608 -11.25604 -11.25378 -11.25201  -8.99317
 Alpha  occ. eigenvalues --   -8.98761  -8.98524  -6.67485  -6.67393  -6.67193
 Alpha  occ. eigenvalues --   -6.66929  -6.66851  -6.66687  -6.66644  -6.66605
 Alpha  occ. eigenvalues --   -6.66395  -1.43081  -1.21267  -1.18530  -1.12586
 Alpha  occ. eigenvalues --   -1.02960  -1.01971  -0.98777  -0.95669  -0.94150
 Alpha  occ. eigenvalues --   -0.82681  -0.81318  -0.77066  -0.75179  -0.71613
 Alpha  occ. eigenvalues --   -0.69950  -0.66865  -0.66480  -0.62019  -0.61152
 Alpha  occ. eigenvalues --   -0.58674  -0.56353  -0.56074  -0.53835  -0.52934
 Alpha  occ. eigenvalues --   -0.52681  -0.51000  -0.49482  -0.48344  -0.46245
 Alpha  occ. eigenvalues --   -0.45674  -0.38514  -0.35429  -0.33650  -0.31691
 Alpha  occ. eigenvalues --   -0.28401
 Alpha virt. eigenvalues --    0.02774   0.03722   0.03968   0.05002   0.05111
 Alpha virt. eigenvalues --    0.06265   0.07531   0.08513   0.08686   0.09141
 Alpha virt. eigenvalues --    0.10311   0.10461   0.10533   0.10920   0.11323
 Alpha virt. eigenvalues --    0.12316   0.12735   0.12880   0.13089   0.13229
 Alpha virt. eigenvalues --    0.13863   0.14206   0.14311   0.14631   0.15119
 Alpha virt. eigenvalues --    0.15290   0.15659   0.16525   0.16877   0.17349
 Alpha virt. eigenvalues --    0.17857   0.18063   0.18515   0.19040   0.19226
 Alpha virt. eigenvalues --    0.19353   0.19902   0.20717   0.21780   0.21901
 Alpha virt. eigenvalues --    0.22226   0.22600   0.23084   0.23232   0.23302
 Alpha virt. eigenvalues --    0.24104   0.24457   0.25298   0.25578   0.25666
 Alpha virt. eigenvalues --    0.26284   0.27052   0.27425   0.27746   0.28198
 Alpha virt. eigenvalues --    0.28728   0.29971   0.30556   0.31016   0.31462
 Alpha virt. eigenvalues --    0.32023   0.32385   0.32731   0.32940   0.33292
 Alpha virt. eigenvalues --    0.33885   0.34127   0.34721   0.35253   0.36107
 Alpha virt. eigenvalues --    0.36271   0.37306   0.37877   0.38324   0.39206
 Alpha virt. eigenvalues --    0.40374   0.40767   0.41090   0.41360   0.42100
 Alpha virt. eigenvalues --    0.43137   0.43881   0.44987   0.45622   0.45787
 Alpha virt. eigenvalues --    0.46024   0.46927   0.47193   0.47581   0.48559
 Alpha virt. eigenvalues --    0.49057   0.49659   0.50019   0.51247   0.52354
 Alpha virt. eigenvalues --    0.52649   0.53525   0.53951   0.54813   0.55361
 Alpha virt. eigenvalues --    0.56160   0.57045   0.58823   0.58944   0.59847
 Alpha virt. eigenvalues --    0.60908   0.61350   0.61380   0.61994   0.62520
 Alpha virt. eigenvalues --    0.63006   0.63504   0.64656   0.65361   0.66028
 Alpha virt. eigenvalues --    0.66808   0.67037   0.67604   0.68162   0.68890
 Alpha virt. eigenvalues --    0.69138   0.69550   0.69776   0.70238   0.70844
 Alpha virt. eigenvalues --    0.71174   0.71918   0.72548   0.72990   0.73743
 Alpha virt. eigenvalues --    0.74310   0.74324   0.75144   0.76063   0.76580
 Alpha virt. eigenvalues --    0.77744   0.78184   0.78663   0.79616   0.79760
 Alpha virt. eigenvalues --    0.81022   0.82416   0.84040   0.84106   0.85186
 Alpha virt. eigenvalues --    0.85271   0.86418   0.86769   0.87612   0.87798
 Alpha virt. eigenvalues --    0.88044   0.89276   0.90412   0.90873   0.91566
 Alpha virt. eigenvalues --    0.91792   0.92506   0.94499   0.94733   0.95019
 Alpha virt. eigenvalues --    0.95767   0.96829   0.97564   0.98360   0.98445
 Alpha virt. eigenvalues --    1.00058   1.00863   1.01000   1.01349   1.03006
 Alpha virt. eigenvalues --    1.04358   1.04749   1.05566   1.07312   1.08320
 Alpha virt. eigenvalues --    1.08977   1.10363   1.11244   1.11926   1.13808
 Alpha virt. eigenvalues --    1.14108   1.15417   1.16335   1.18130   1.18553
 Alpha virt. eigenvalues --    1.19593   1.21080   1.21978   1.23032   1.23828
 Alpha virt. eigenvalues --    1.24491   1.25096   1.26274   1.26528   1.28035
 Alpha virt. eigenvalues --    1.28349   1.29055   1.29757   1.31900   1.32669
 Alpha virt. eigenvalues --    1.34580   1.35088   1.35596   1.36432   1.37686
 Alpha virt. eigenvalues --    1.38290   1.40105   1.40409   1.41389   1.41485
 Alpha virt. eigenvalues --    1.43836   1.44464   1.44881   1.47428   1.48697
 Alpha virt. eigenvalues --    1.50545   1.52715   1.55696   1.55937   1.56030
 Alpha virt. eigenvalues --    1.57868   1.59273   1.59473   1.60886   1.61511
 Alpha virt. eigenvalues --    1.62249   1.63144   1.64594   1.66649   1.67741
 Alpha virt. eigenvalues --    1.68036   1.69319   1.69808   1.71133   1.72164
 Alpha virt. eigenvalues --    1.73756   1.74074   1.75498   1.76690   1.77906
 Alpha virt. eigenvalues --    1.79786   1.80649   1.81503   1.83713   1.84160
 Alpha virt. eigenvalues --    1.85200   1.86703   1.88531   1.90356   1.90789
 Alpha virt. eigenvalues --    1.91332   1.92264   1.95059   1.96297   1.97519
 Alpha virt. eigenvalues --    1.98310   2.00571   2.02347   2.04279   2.04566
 Alpha virt. eigenvalues --    2.05654   2.08047   2.08631   2.09064   2.09949
 Alpha virt. eigenvalues --    2.10933   2.11910   2.13363   2.14664   2.15902
 Alpha virt. eigenvalues --    2.17168   2.19678   2.21488   2.21739   2.23030
 Alpha virt. eigenvalues --    2.24077   2.25356   2.27777   2.29149   2.31779
 Alpha virt. eigenvalues --    2.32588   2.33410   2.34601   2.36124   2.37734
 Alpha virt. eigenvalues --    2.38503   2.41023   2.45441   2.45883   2.47696
 Alpha virt. eigenvalues --    2.48712   2.49597   2.49887   2.51549   2.53416
 Alpha virt. eigenvalues --    2.57118   2.57365   2.60331   2.60661   2.64679
 Alpha virt. eigenvalues --    2.75369   2.81729   2.83596   2.85791   2.87935
 Alpha virt. eigenvalues --    2.92027   2.94956   2.98785   3.00684   3.03651
 Alpha virt. eigenvalues --    3.13714   3.18323   3.24111   3.27148   3.35302
 Alpha virt. eigenvalues --    3.42183   3.52393   3.55523   3.66912   3.76267
 Alpha virt. eigenvalues --    3.77390   3.80407   3.88166   3.89488   4.23698
 Alpha virt. eigenvalues --    4.24893   4.48675
          Condensed to atoms (all electrons):
               1          2          3          4          5          6
     1  C    7.937647  -2.261947   0.136778   0.110368  -0.169171  -0.372546
     2  C   -2.261947  11.594070  -2.946272   0.456131   0.163535  -0.463824
     3  C    0.136778  -2.946272  11.075000  -1.187295   0.015920   0.128366
     4  C    0.110368   0.456131  -1.187295   6.370452  -0.031643   0.328240
     5  H   -0.169171   0.163535   0.015920  -0.031643   1.654831  -0.018401
     6  S   -0.372546  -0.463824   0.128366   0.328240  -0.018401  16.174593
     7  H    0.023468   0.050175   0.022932   0.185158  -0.065531  -0.147000
     8  C    0.141128   0.265134  -1.649758   0.248906  -0.013272  -0.373149
     9  S   -0.039451   0.393241  -0.466088   0.015006   0.003175  -0.104674
    10  C   -0.030871   0.125979  -0.241210   0.015931  -0.000303   0.006055
    11  C   -0.026821   0.045307   0.285291  -0.015508   0.000583  -0.006112
    12  C    0.024366  -1.152899   0.201409  -0.167462  -0.005494   0.399319
    13  H   -0.020186   0.092270  -0.016014   0.014604  -0.001318  -0.004821
    14  S    0.001145  -0.013278  -0.051068  -0.001337   0.000074   0.001413
    15  C   -0.001803   0.004957   0.023170   0.000333  -0.000083  -0.002921
    16  C   -0.000770   0.005380  -0.309306  -0.001522  -0.000255   0.010651
    17  H   -0.000098   0.000471  -0.000457  -0.000000  -0.000006  -0.000071
    18  H    0.000293   0.001069  -0.006839  -0.000154   0.000030   0.000051
    19  O    0.174466  -0.853190   0.331466  -0.090927  -0.062296   0.015054
    20  H   -0.125392   0.034225  -0.061504  -0.008121  -0.011063   0.011077
               7          8          9         10         11         12
     1  C    0.023468   0.141128  -0.039451  -0.030871  -0.026821   0.024366
     2  C    0.050175   0.265134   0.393241   0.125979   0.045307  -1.152899
     3  C    0.022932  -1.649758  -0.466088  -0.241210   0.285291   0.201409
     4  C    0.185158   0.248906   0.015006   0.015931  -0.015508  -0.167462
     5  H   -0.065531  -0.013272   0.003175  -0.000303   0.000583  -0.005494
     6  S   -0.147000  -0.373149  -0.104674   0.006055  -0.006112   0.399319
     7  H    1.255288   0.012426  -0.000969   0.000441   0.000685   0.001723
     8  C    0.012426  12.539570   0.339305  -0.425104  -0.445181  -4.924682
     9  S   -0.000969   0.339305  16.529590   0.202824  -0.431894  -0.745567
    10  C    0.000441  -0.425104   0.202824  10.939815  -0.965445  -1.133034
    11  C    0.000685  -0.445181  -0.431894  -0.965445  13.009236  -3.605575
    12  C    0.001723  -4.924682  -0.745567  -1.133034  -3.605575  18.173114
    13  H    0.002296   0.488267   0.032089  -0.102266   0.656399  -1.326767
    14  S   -0.000125  -0.348137   0.117116   0.050422  -0.419435   0.112731
    15  C    0.000026   0.064335  -0.091864  -0.080424  -1.072512  -0.056908
    16  C   -0.000079  -0.253905  -0.177045  -2.311842  -0.801530  -0.018138
    17  H    0.000003   0.001459   0.012381   0.098959  -0.084028   0.028466
    18  H   -0.000010   0.082229   0.016664   0.483379   0.085184  -0.062232
    19  O   -0.002081   0.065190  -0.048255   0.005345  -0.014448   0.045914
    20  H    0.001078   0.016314   0.006351   0.003900  -0.001943  -0.007106
              13         14         15         16         17         18
     1  C   -0.020186   0.001145  -0.001803  -0.000770  -0.000098   0.000293
     2  C    0.092270  -0.013278   0.004957   0.005380   0.000471   0.001069
     3  C   -0.016014  -0.051068   0.023170  -0.309306  -0.000457  -0.006839
     4  C    0.014604  -0.001337   0.000333  -0.001522  -0.000000  -0.000154
     5  H   -0.001318   0.000074  -0.000083  -0.000255  -0.000006   0.000030
     6  S   -0.004821   0.001413  -0.002921   0.010651  -0.000071   0.000051
     7  H    0.002296  -0.000125   0.000026  -0.000079   0.000003  -0.000010
     8  C    0.488267  -0.348137   0.064335  -0.253905   0.001459   0.082229
     9  S    0.032089   0.117116  -0.091864  -0.177045   0.012381   0.016664
    10  C   -0.102266   0.050422  -0.080424  -2.311842   0.098959   0.483379
    11  C    0.656399  -0.419435  -1.072512  -0.801530  -0.084028   0.085184
    12  C   -1.326767   0.112731  -0.056908  -0.018138   0.028466  -0.062232
    13  H    1.748734  -0.048803   0.013198  -0.039629   0.001899  -0.000498
    14  S   -0.048803  16.018906   0.191888  -0.050903  -0.151352  -0.003489
    15  C    0.013198   0.191888   6.931809   0.104333   0.204874  -0.124443
    16  C   -0.039629  -0.050903   0.104333   9.881454   0.039049  -0.503056
    17  H    0.001899  -0.151352   0.204874   0.039049   1.295118  -0.069780
    18  H   -0.000498  -0.003489  -0.124443  -0.503056  -0.069780   1.419855
    19  O   -0.001471   0.000989  -0.000005   0.000549   0.000001   0.000127
    20  H    0.000901  -0.000204   0.000200   0.001093   0.000010   0.000005
              19         20
     1  C    0.174466  -0.125392
     2  C   -0.853190   0.034225
     3  C    0.331466  -0.061504
     4  C   -0.090927  -0.008121
     5  H   -0.062296  -0.011063
     6  S    0.015054   0.011077
     7  H   -0.002081   0.001078
     8  C    0.065190   0.016314
     9  S   -0.048255   0.006351
    10  C    0.005345   0.003900
    11  C   -0.014448  -0.001943
    12  C    0.045914  -0.007106
    13  H   -0.001471   0.000901
    14  S    0.000989  -0.000204
    15  C   -0.000005   0.000200
    16  C    0.000549   0.001093
    17  H    0.000001   0.000010
    18  H    0.000127   0.000005
    19  O    9.012148   0.359149
    20  H    0.359149   0.613574
 Mulliken charges:
               1
     1  C    0.499395
     2  C    0.459467
     3  C    0.715478
     4  C   -0.241160
     5  H   -0.459311
     6  S    0.418701
     7  H   -0.339902
     8  C    0.168925
     9  S    0.438065
    10  C   -0.642550
    11  C   -0.192254
    12  C    0.218821
    13  H   -0.488884
    14  S    0.593448
    15  C   -0.108160
    16  C    0.425471
    17  H   -0.376897
    18  H   -0.318385
    19  O   -0.937725
    20  H    0.167456
 Sum of Mulliken charges =  -0.00000
 Mulliken charges with hydrogens summed into heavy atoms:
               1
     1  C    0.040084
     2  C    0.459467
     3  C    0.715478
     4  C   -0.581062
     6  S    0.418701
     8  C    0.168925
     9  S    0.438065
    10  C   -0.642550
    11  C   -0.192254
    12  C   -0.270063
    14  S    0.593448
    15  C   -0.485057
    16  C    0.107086
    19  O   -0.770268
 Electronic spatial extent (au):  <R**2>=           4302.5791
 Charge=             -0.0000 electrons
 Dipole moment (field-independent basis, Debye):
    X=             -2.4114    Y=              0.9691    Z=              0.4894  Tot=              2.6445
 Quadrupole moment (field-independent basis, Debye-Ang):
   XX=            -76.0424   YY=            -98.3867   ZZ=           -108.0940
   XY=             -0.6989   XZ=             -4.8295   YZ=             -0.1165
 Traceless Quadrupole moment (field-independent basis, Debye-Ang):
   XX=             18.1320   YY=             -4.2123   ZZ=            -13.9197
   XY=             -0.6989   XZ=             -4.8295   YZ=             -0.1165
 Octapole moment (field-independent basis, Debye-Ang**2):
  XXX=            -56.0552  YYY=             19.6803  ZZZ=              6.3494  XYY=            -22.8525
  XXY=             36.6005  XXZ=              5.6574  XZZ=             -8.3424  YZZ=              6.2312
  YYZ=              4.6877  XYZ=            -20.7692
 Hexadecapole moment (field-independent basis, Debye-Ang**3):
 XXXX=          -3955.3201 YYYY=           -885.9233 ZZZZ=           -300.3737 XXXY=             -4.1218
 XXXZ=            -77.7511 YYYX=            -43.9241 YYYZ=             15.2003 ZZZX=            -16.9454
 ZZZY=             12.6030 XXYY=           -847.2258 XXZZ=           -898.9155 YYZZ=           -193.9008
 XXYZ=             44.4028 YYXZ=            -32.4898 ZZXY=            -18.2723
 N-N= 1.128354508184D+03 E-N=-6.164142159530D+03  KE= 1.649570661593D+03
 Calling FoFJK, ICntrl=  10002127 FMM=F ISym2X=0 I1Cent= 0 IOpClX= 0 NMat=1 NMatS=1 NMatT=0.
 ***** Axes restored to original set *****
 -------------------------------------------------------------------
 Center     Atomic                   Forces (Hartrees/Bohr)
 Number     Number              X              Y              Z
 -------------------------------------------------------------------
      1        6           0.012448071    0.028863586    0.011440137
      2        6          -0.039544717    0.011510874    0.005750761
      3        6           0.031100975   -0.022634652   -0.011275254
      4        6          -0.001423745   -0.027427550   -0.011393805
      5        1          -0.007812247    0.005229699    0.002680566
      6       16           0.006000679   -0.005352868   -0.002549002
      7        1          -0.006905039   -0.006291805   -0.002176972
      8        6          -0.029283086    0.020712525   -0.010296090
      9       16          -0.004032053    0.008520783   -0.003010304
     10        6           0.008278821    0.038635605   -0.017337661
     11        6          -0.010393602   -0.039184800    0.017294126
     12        6           0.030710327   -0.019503609    0.008087160
     13        1          -0.003754108   -0.009145259    0.004560223
     14       16           0.002925238   -0.007427154    0.003324865
     15        6           0.014565459   -0.022217428    0.010104113
     16        6          -0.027615803    0.020030869   -0.008928761
     17        1           0.010308786   -0.000713708    0.000300037
     18        1           0.002848539    0.008255055   -0.003744692
     19        8           0.034518319    0.006543134    0.001312033
     20        1          -0.022940814    0.011596701    0.005858521
 -------------------------------------------------------------------
 Cartesian Forces:  Max     0.039544717 RMS     0.016660668

 GradGradGradGradGradGradGradGradGradGradGradGradGradGradGradGradGradGrad
 Berny optimization.
 FormGI is forming the generalized inverse of G from B-inverse, IUseBI=4.
 Internal  Forces:  Max     0.043778988 RMS     0.009808618
 Search for a local minimum.
 Step number   1 out of a maximum of  116
 All quantities printed in internal units (Hartrees-Bohrs-Radians)
 Mixed Optimization -- RFO/linear search
 Second derivative matrix not updated -- first step.
 ITU=  0
     Eigenvalues ---    0.01487   0.01584   0.01632   0.01707   0.01755
     Eigenvalues ---    0.01761   0.01979   0.02021   0.02061   0.02130
     Eigenvalues ---    0.02215   0.02266   0.02321   0.02353   0.02376
     Eigenvalues ---    0.02442   0.15999   0.15999   0.16000   0.16000
     Eigenvalues ---    0.16000   0.16000   0.22526   0.22566   0.23644
     Eigenvalues ---    0.24760   0.24779   0.24959   0.24988   0.24996
     Eigenvalues ---    0.24998   0.29199   0.29957   0.30345   0.31035
     Eigenvalues ---    0.31217   0.32623   0.35986   0.36052   0.36170
     Eigenvalues ---    0.36290   0.36313   0.36366   0.39032   0.39130
     Eigenvalues ---    0.39429   0.45960   0.50466   0.52116   0.53607
     Eigenvalues ---    0.54136   0.55013   0.595231000.000001000.00000
     Eigenvalues --- 1000.000001000.000001000.000001000.000001000.00000
     Eigenvalues --- 1000.000001000.000001000.000001000.000001000.00000
     Eigenvalues --- 1000.000001000.000001000.000001000.000001000.00000
     Eigenvalues --- 1000.000001000.000001000.000001000.000001000.00000
     Eigenvalues --- 1000.000001000.000001000.000001000.000001000.00000
     Eigenvalues --- 1000.000001000.000001000.000001000.000001000.00000
     Eigenvalues --- 1000.000001000.000001000.000001000.000001000.00000
     Eigenvalues --- 1000.000001000.000001000.000001000.000001000.00000
     Eigenvalues --- 1000.000001000.000001000.000001000.000001000.00000
     Eigenvalues --- 1000.000001000.000001000.000001000.000001000.00000
     Eigenvalues --- 1000.00000
 RFO step:  Lambda=-1.92714017D-02 EMin= 1.48687223D-02
 Linear search not attempted -- first point.
 Iteration  1 RMS(Cart)=  0.02589524 RMS(Int)=  0.00013636
 Iteration  2 RMS(Cart)=  0.00025605 RMS(Int)=  0.00004209
 Iteration  3 RMS(Cart)=  0.00000003 RMS(Int)=  0.00004209
 Iteration  1 RMS(Cart)=  0.00000392 RMS(Int)=  0.00000181
 Iteration  2 RMS(Cart)=  0.00000215 RMS(Int)=  0.00000202
 Iteration  3 RMS(Cart)=  0.00000118 RMS(Int)=  0.00000228
 Iteration  4 RMS(Cart)=  0.00000065 RMS(Int)=  0.00000246
 Variable       Old X    -DE/DX   Delta X   Delta X   Delta X     New X
                                 (Linear)    (Quad)   (Total)
    R1        2.71471  -0.00218   0.00000  -0.00285  -0.00279   2.71192
    R2        2.54891   0.03932   0.00000   0.06963   0.06966   2.61857
    R3        2.04104   0.00978   0.00000   0.02578   0.02578   2.06682
    R4        2.56065   0.03883   0.00000   0.06995   0.06996   2.63061
    R5        2.55120   0.02178   0.00000   0.03826   0.03826   2.58946
    R6        3.30534   0.00302   0.00000   0.00681   0.00676   3.31210
    R7        2.77301  -0.00557   0.00000  -0.01466  -0.01466   2.75835
    R8        3.25299   0.00745   0.00000   0.01937   0.01933   3.27232
    R9        2.03630   0.00946   0.00000   0.02474   0.02474   2.06104
   R10        3.32265   0.00656   0.00000   0.01774   0.01768   3.34033
   R11        2.56017   0.03897   0.00000   0.06981   0.06982   2.62999
   R12        3.28062   0.00567   0.00000   0.01534   0.01530   3.29592
   R13        2.57581   0.04378   0.00000   0.08333   0.08341   2.65922
   R14        2.71245  -0.00238   0.00000  -0.00320  -0.00314   2.70931
   R15        2.70797  -0.00427   0.00000  -0.00767  -0.00760   2.70036
   R16        3.28287   0.00550   0.00000   0.01489   0.01486   3.29773
   R17        2.03595   0.01086   0.00000   0.02840   0.02840   2.06435
   R18        3.29659   0.00686   0.00000   0.01783   0.01778   3.31437
   R19        2.54970   0.03872   0.00000   0.06789   0.06790   2.61759
   R20        2.03514   0.01027   0.00000   0.02681   0.02681   2.06195
   R21        2.03817   0.00950   0.00000   0.02494   0.02494   2.06311
   R22        1.78019   0.02622   0.00000   0.04266   0.04266   1.82285
    A1        1.95860  -0.00195   0.00000  -0.00181  -0.00172   1.95688
    A2        2.15853   0.00104   0.00000   0.00126   0.00121   2.15975
    A3        2.16602   0.00091   0.00000   0.00054   0.00049   2.16651
    A4        1.98554  -0.00424   0.00000  -0.01107  -0.01099   1.97455
    A5        2.15795   0.00769   0.00000   0.02623   0.02619   2.18414
    A6        2.13963  -0.00345   0.00000  -0.01516  -0.01520   2.12443
    A7        1.92126   0.00319   0.00000   0.01040   0.01037   1.93162
    A8        2.25615  -0.00157   0.00000  -0.00520  -0.00520   2.25095
    A9        2.10566  -0.00161   0.00000  -0.00532  -0.00532   2.10034
   A10        1.95682   0.00024   0.00000   0.00129   0.00130   1.95812
   A11        2.22221   0.00151   0.00000   0.00845   0.00845   2.23066
   A12        2.10414  -0.00175   0.00000  -0.00975  -0.00975   2.09439
   A13        1.60248   0.00276   0.00000   0.00117   0.00102   1.60350
   A14        2.11240  -0.00424   0.00000  -0.01508  -0.01507   2.09733
   A15        2.21211   0.00039   0.00000   0.00211   0.00212   2.21422
   A16        1.95725   0.00387   0.00000   0.01296   0.01294   1.97019
   A17        1.58636   0.00133   0.00000  -0.00290  -0.00306   1.58330
   A18        1.94058   0.00164   0.00000   0.00479   0.00476   1.94534
   A19        2.35367   0.00148   0.00000   0.00056   0.00050   2.35417
   A20        1.98882  -0.00312   0.00000  -0.00535  -0.00525   1.98357
   A21        1.99033  -0.00284   0.00000  -0.00422  -0.00411   1.98622
   A22        1.94070   0.00116   0.00000   0.00290   0.00286   1.94356
   A23        2.35202   0.00167   0.00000   0.00127   0.00120   2.35322
   A24        1.95022  -0.00400   0.00000  -0.01065  -0.01055   1.93967
   A25        2.15218   0.00125   0.00000   0.00115   0.00110   2.15328
   A26        2.18073   0.00275   0.00000   0.00949   0.00944   2.19017
   A27        1.58059   0.00246   0.00000   0.00072   0.00058   1.58117
   A28        1.97600   0.00264   0.00000   0.00908   0.00907   1.98507
   A29        2.08724  -0.00255   0.00000  -0.01139  -0.01138   2.07586
   A30        2.21994  -0.00009   0.00000   0.00230   0.00231   2.22225
   A31        1.93865  -0.00314   0.00000  -0.00735  -0.00726   1.93139
   A32        2.18269   0.00172   0.00000   0.00453   0.00448   2.18717
   A33        2.16184   0.00142   0.00000   0.00282   0.00277   2.16462
   A34        1.93752  -0.00498   0.00000  -0.02780  -0.02780   1.90972
    D1        0.00141  -0.00007   0.00000   0.00086   0.00087   0.00228
    D2       -3.12849  -0.00002   0.00000   0.00156   0.00157  -3.12693
    D3        3.13529  -0.00009   0.00000  -0.00103  -0.00103   3.13426
    D4        0.00539  -0.00003   0.00000  -0.00033  -0.00033   0.00506
    D5       -0.00908  -0.00007   0.00000  -0.00184  -0.00184  -0.01092
    D6        3.13781  -0.00004   0.00000  -0.00217  -0.00218   3.13563
    D7        3.14027  -0.00006   0.00000   0.00005   0.00006   3.14033
    D8        0.00397  -0.00002   0.00000  -0.00028  -0.00028   0.00369
    D9        0.00671   0.00018   0.00000   0.00053   0.00051   0.00722
   D10       -3.11758   0.00007   0.00000   0.00887   0.00888  -3.10871
   D11        3.13675   0.00021   0.00000   0.00015   0.00015   3.13690
   D12        0.01246   0.00010   0.00000   0.00849   0.00852   0.02097
   D13       -0.01975   0.00006   0.00000   0.00160   0.00160  -0.01814
   D14        3.13455   0.00011   0.00000   0.00230   0.00230   3.13685
   D15       -0.00993  -0.00022   0.00000  -0.00137  -0.00136  -0.01130
   D16        3.11609  -0.00013   0.00000  -0.00889  -0.00892   3.10717
   D17       -0.87160   0.00105   0.00000   0.00000   0.00000  -0.87160
   D18        2.33218   0.00050   0.00000  -0.00010  -0.00010   2.33208
   D19        2.28888   0.00090   0.00000   0.00897   0.00895   2.29782
   D20       -0.79053   0.00034   0.00000   0.00887   0.00884  -0.78169
   D21        0.01097   0.00017   0.00000   0.00184   0.00182   0.01279
   D22       -3.13552   0.00014   0.00000   0.00220   0.00219  -3.13333
   D23       -3.09643  -0.00028   0.00000  -0.00015  -0.00016  -3.09659
   D24       -0.00862   0.00013   0.00000  -0.00026  -0.00027  -0.00889
   D25        3.09127   0.00005   0.00000  -0.00234  -0.00235   3.08892
   D26       -0.06152   0.00006   0.00000  -0.00317  -0.00319  -0.06471
   D27        0.00719  -0.00023   0.00000  -0.00160  -0.00162   0.00558
   D28        3.13760  -0.00021   0.00000  -0.00244  -0.00246   3.13514
   D29        0.00771  -0.00001   0.00000   0.00208   0.00206   0.00978
   D30       -3.11633   0.00004   0.00000   0.00150   0.00147  -3.11487
   D31       -0.00522  -0.00010   0.00000  -0.00342  -0.00344  -0.00866
   D32       -3.13162  -0.00001   0.00000  -0.00087  -0.00089  -3.13251
   D33        3.12276  -0.00010   0.00000  -0.00293  -0.00294   3.11982
   D34       -0.00364  -0.00001   0.00000  -0.00037  -0.00039  -0.00403
   D35        3.12892  -0.00003   0.00000   0.00102   0.00103   3.12995
   D36       -0.01615  -0.00005   0.00000   0.00013   0.00014  -0.01602
   D37        0.00522  -0.00001   0.00000   0.00035   0.00035   0.00558
   D38       -3.13985  -0.00003   0.00000  -0.00054  -0.00054  -3.14039
   D39       -0.00132   0.00023   0.00000   0.00333   0.00329   0.00197
   D40       -3.13150   0.00023   0.00000   0.00424   0.00422  -3.12728
   D41        3.12033   0.00008   0.00000  -0.00004  -0.00007   3.12026
   D42       -0.00986   0.00008   0.00000   0.00088   0.00087  -0.00899
   D43        0.00096  -0.00003   0.00000   0.00015   0.00016   0.00112
   D44       -3.12110   0.00015   0.00000   0.00350   0.00351  -3.11758
   D45        0.00208   0.00002   0.00000   0.00005   0.00004   0.00212
   D46       -3.13701  -0.00000   0.00000   0.00031   0.00031  -3.13670
   D47       -0.00440  -0.00004   0.00000  -0.00029  -0.00029  -0.00468
   D48        3.14063  -0.00002   0.00000   0.00058   0.00058   3.14121
   D49        3.13447  -0.00002   0.00000  -0.00060  -0.00060   3.13386
   D50       -0.00370  -0.00000   0.00000   0.00027   0.00027  -0.00343
         Item               Value     Threshold  Converged?
 Maximum Force            0.043774     0.000450     NO 
 RMS     Force            0.009854     0.000300     NO 
 Maximum Displacement     0.099179     0.001800     NO 
 RMS     Displacement     0.025838     0.001200     NO 
 Predicted change in Energy=-1.000219D-02
 GradGradGradGradGradGradGradGradGradGradGradGradGradGradGradGradGradGrad

                          Input orientation:                          
 ---------------------------------------------------------------------
 Center     Atomic      Atomic             Coordinates (Angstroms)
 Number     Number       Type             X           Y           Z
 ---------------------------------------------------------------------
      1          6           0       -4.029047    0.358228    0.317811
      2          6           0       -2.676663    0.821464    0.444066
      3          6           0       -1.737203   -0.107383    0.005339
      4          6           0       -4.095386   -0.919791   -0.213602
      5          1           0       -4.902545    0.944813    0.616362
      6         16           0       -2.527778   -1.558707   -0.578242
      7          1           0       -4.986941   -1.515603   -0.412773
      8          6           0       -0.280624   -0.012908    0.011604
      9         16           0        0.519602    1.417689   -0.649859
     10          6           0        2.084447    0.712097   -0.341048
     11          6           0        1.968030   -0.568095    0.231459
     12          6           0        0.617470   -0.987365    0.436784
     13          1           0        0.308615   -1.937483    0.878639
     14         16           0        3.535096   -1.265502    0.552771
     15          6           0        4.323072    0.167103   -0.081943
     16          6           0        3.440760    1.141147   -0.519506
     17          1           0        5.413373    0.206720   -0.097856
     18          1           0        3.749184    2.098454   -0.944186
     19          8           0       -2.303900    2.038167    0.952349
     20          1           0       -3.091561    2.538954    1.195830
 ---------------------------------------------------------------------
                    Distance matrix (angstroms):
                    1          2          3          4          5
     1  C    0.000000
     2  C    1.435085   0.000000
     3  C    2.359445   1.392058   0.000000
     4  C    1.385688   2.340357   2.503791   0.000000
     5  H    1.093715   2.235945   3.391143   2.194788   0.000000
     6  S    2.594487   2.594706   1.752689   1.731639   3.651604
     7  H    2.227679   3.396092   3.566328   1.090656   2.668312
     8  C    3.779177   2.573753   1.459654   3.927540   4.758688
     9  S    4.769596   3.430491   2.801481   5.191555   5.588076
    10  C    6.159069   4.826649   3.923843   6.392937   7.056121
    11  C    6.068810   4.852757   3.740606   6.089892   7.045696
    12  C    4.838894   3.758089   2.550490   4.758002   5.851164
    13  H    4.939648   4.088096   2.880502   4.650152   5.960923
    14  S    7.740024   6.553869   5.425685   7.676659   8.722575
    15  C    8.363864   7.049905   6.067116   8.489352   9.284635
    16  C    7.557254   6.201092   5.352158   7.818858   8.422558
    17  H    9.452779   8.131438   7.158216   9.575956  10.366921
    18  H    8.069814   6.696974   5.988970   8.436874   8.866713
    19  O    2.490174   1.370281   2.412750   3.649436   2.839237
    20  H    2.530882   1.920171   3.202288   3.867438   2.481276
                    6          7          8          9         10
     6  S    0.000000
     7  H    2.465101   0.000000
     8  C    2.790541   4.958590   0.000000
     9  S    4.260351   6.243591   1.767626   0.000000
    10  C    5.146401   7.414333   2.498711   1.744123   0.000000
    11  C    4.674314   7.048718   2.326588   2.611130   1.407199
    12  C    3.353997   5.692997   1.391732   2.640957   2.375966
    13  H    3.211090   5.467050   2.191562   3.692967   3.414893
    14  S    6.174431   8.580206   4.052354   4.211774   2.610401
    15  C    7.082293   9.466641   4.608163   4.043869   2.318532
    16  C    6.551039   8.837186   3.932254   2.937113   1.433707
    17  H    8.149195  10.546663   5.699282   5.071504   3.375840
    18  H    7.273857   9.469091   4.648734   3.313649   2.248802
    19  O    3.915398   4.657419   3.030768   3.305182   4.763290
    20  H    4.500668   4.755996   3.976902   4.207647   5.700040
                   11         12         13         14         15
    11  C    0.000000
    12  C    1.428970   0.000000
    13  H    2.246715   1.092407   0.000000
    14  S    1.745084   2.933147   3.311787   0.000000
    15  C    2.486958   3.915783   4.633343   1.753888   0.000000
    16  C    2.377896   3.662789   4.609025   2.636407   1.385171
    17  H    3.546714   4.971153   5.622252   2.473597   1.091137
    18  H    3.415426   4.608361   5.607941   3.688213   2.191558
    19  O    5.055855   4.237223   4.757779   6.720697   6.963289
    20  H    6.015248   5.173778   5.630301   7.668115   7.888926
                   16         17         18         19         20
    16  C    0.000000
    17  H    2.223093   0.000000
    18  H    1.091748   2.657904   0.000000
    19  O    5.997677   8.000839   6.343525   0.000000
    20  H    6.896916   8.913295   7.181190   0.964613   0.000000
 Stoichiometry    C10H6OS3
 Framework group  C1[X(C10H6OS3)]
 Deg. of freedom    54
 Full point group                 C1      NOp   1
 Largest Abelian subgroup         C1      NOp   1
 Largest concise Abelian subgroup C1      NOp   1
                         Standard orientation:                         
 ---------------------------------------------------------------------
 Center     Atomic      Atomic             Coordinates (Angstroms)
 Number     Number       Type             X           Y           Z
 ---------------------------------------------------------------------
      1          6           0       -4.031382    0.347201    0.322849
      2          6           0       -2.680415    0.815000    0.447438
      3          6           0       -1.738305   -0.111158    0.008706
      4          6           0       -4.094002   -0.931520   -0.207324
      5          1           0       -4.906531    0.931187    0.621659
      6         16           0       -2.524634   -1.565614   -0.572811
      7          1           0       -4.983773   -1.530445   -0.405130
      8          6           0       -0.282039   -0.011887    0.013551
      9         16           0        0.512871    1.420721   -0.649964
     10          6           0        2.080311    0.720565   -0.341936
     11          6           0        1.968628   -0.559472    0.231857
     12          6           0        0.619643   -0.982992    0.438806
     13          1           0        0.314318   -1.933712    0.881820
     14         16           0        3.538273   -1.251425    0.552376
     15          6           0        4.320952    0.183176   -0.084380
     16          6           0        3.435042    1.153908   -0.522033
     17          1           0        5.411102    0.226365   -0.101328
     18          1           0        3.739927    2.111831   -0.947878
     19          8           0       -2.311192    2.033392    0.954257
     20          1           0       -3.100273    2.531810    1.197997
 ---------------------------------------------------------------------
 Rotational constants (GHZ):           1.2669797           0.2727772           0.2379498
 Standard basis: Aug-CC-pVDZ (5D, 7F)
 There are   416 symmetry adapted cartesian basis functions of A   symmetry.
 There are   388 symmetry adapted basis functions of A   symmetry.
   388 basis functions,   782 primitive gaussians,   416 cartesian basis functions
    61 alpha electrons       61 beta electrons
       nuclear repulsion energy      1119.8612197380 Hartrees.
 NAtoms=   20 NActive=   20 NUniq=   20 SFac= 1.00D+00 NAtFMM=   60 NAOKFM=F Big=F
 Integral buffers will be    131072 words long.
 Raffenetti 1 integral format.
 Two-electron integral symmetry is turned on.
 One-electron integrals computed using PRISM.
 NBasis=   388 RedAO= T EigKep=  3.78D-06  NBF=   388
 NBsUse=   388 1.00D-06 EigRej= -1.00D+00 NBFU=   388
 Initial guess from the checkpoint file:  "/tmp/pbs.4766300[125].pbs/Gau-1857855.chk"
 B after Tr=     0.000000   -0.000000    0.000000
         Rot=    0.999999    0.000360   -0.000502   -0.001439 Ang=   0.18 deg.
 ExpMin= 2.97D-02 ExpMax= 1.11D+05 ExpMxC= 1.07D+03 IAcc=3 IRadAn=         5 AccDes= 0.00D+00
 Harris functional with IExCor=  205 and IRadAn=       5 diagonalized for initial guess.
 HarFok:  IExCor=  205 AccDes= 0.00D+00 IRadAn=         5 IDoV= 1 UseB2=F ITyADJ=14
 ICtDFT=  3500011 ScaDFX=  1.000000  1.000000  1.000000  1.000000
 FoFCou: FMM=F IPFlag=           0 FMFlag=      100000 FMFlg1=           0
         NFxFlg=           0 DoJE=T BraDBF=F KetDBF=T FulRan=T
         wScrn=  0.000000 ICntrl=       500 IOpCl=  0 I1Cent=   200000004 NGrid=           0
         NMat0=    1 NMatS0=      1 NMatT0=    0 NMatD0=    1 NMtDS0=    0 NMtDT0=    0
 Petite list used in FoFCou.
 Requested convergence on RMS density matrix=1.00D-08 within 128 cycles.
 Requested convergence on MAX density matrix=1.00D-06.
 Requested convergence on             energy=1.00D-06.
 No special actions if energy rises.
 SCF Done:  E(RHF) =  -1649.63282586     A.U. after   15 cycles
            NFock= 15  Conv=0.44D-08     -V/T= 2.0006
 ExpMin= 2.97D-02 ExpMax= 1.11D+05 ExpMxC= 1.07D+03 IAcc=3 IRadAn=         5 AccDes= 0.00D+00
 HarFok:  IExCor=  205 AccDes= 0.00D+00 IRadAn=         5 IDoV=-2 UseB2=F ITyADJ=14
 ICtDFT= 12500011 ScaDFX=  1.000000  1.000000  1.000000  1.000000
 GSVD:  LWork=        -884 too small for GESVD, short by        3770 words or        3770 for optimal perf.
 Range of M.O.s used for correlation:    27   388
 NBasis=   388 NAE=    61 NBE=    61 NFC=    26 NFV=     0
 NROrb=    362 NOA=    35 NOB=    35 NVA=   327 NVB=   327

 **** Warning!!: The largest alpha MO coefficient is  0.75303283D+02

 Fully direct method using O(ONN) memory.
 JobTyp=1 Pass  1:  I=  27 to  61 NPSUse=  8 ParTrn=T ParDer=T DoDerP=T.
 Spin components of T(2) and E(2):
     alpha-alpha T2 =       0.1170715189D+00 E2=     -0.2768784013D+00
     alpha-beta  T2 =       0.5698211226D+00 E2=     -0.1434634657D+01
     beta-beta   T2 =       0.1170715189D+00 E2=     -0.2768784013D+00
 ANorm=    0.1343117329D+01
 E2 =    -0.1988391460D+01 EUMP2 =    -0.16516212173220D+04
          IDoAtm=11111111111111111111
          Differentiating once with respect to electric field.
                with respect to dipole field.
          Differentiating once with respect to nuclear coordinates.
 Keep R1 ints in memory in canonical form, NReq=2883857471.
          There are     1 degrees of freedom in the 1st order CPHF.  IDoFFX=0 NUNeed=     1.
 LinEq1:  Iter=  0 NonCon=     1 RMS=2.90D-03 Max=6.74D-02 NDo=     1
 AX will form     1 AO Fock derivatives at one time.
 LinEq1:  Iter=  1 NonCon=     1 RMS=7.14D-04 Max=1.02D-02 NDo=     1
 LinEq1:  Iter=  2 NonCon=     1 RMS=3.66D-04 Max=1.21D-02 NDo=     1
 LinEq1:  Iter=  3 NonCon=     1 RMS=9.85D-05 Max=2.40D-03 NDo=     1
 LinEq1:  Iter=  4 NonCon=     1 RMS=3.84D-05 Max=6.76D-04 NDo=     1
 LinEq1:  Iter=  5 NonCon=     1 RMS=1.65D-05 Max=7.01D-04 NDo=     1
 LinEq1:  Iter=  6 NonCon=     1 RMS=6.98D-06 Max=2.44D-04 NDo=     1
 LinEq1:  Iter=  7 NonCon=     1 RMS=3.32D-06 Max=1.49D-04 NDo=     1
 LinEq1:  Iter=  8 NonCon=     1 RMS=1.33D-06 Max=5.43D-05 NDo=     1
 LinEq1:  Iter=  9 NonCon=     1 RMS=6.04D-07 Max=2.27D-05 NDo=     1
 LinEq1:  Iter= 10 NonCon=     1 RMS=2.28D-07 Max=4.02D-06 NDo=     1
 LinEq1:  Iter= 11 NonCon=     1 RMS=1.06D-07 Max=4.75D-06 NDo=     1
 LinEq1:  Iter= 12 NonCon=     1 RMS=3.94D-08 Max=7.51D-07 NDo=     1
 LinEq1:  Iter= 13 NonCon=     1 RMS=1.72D-08 Max=3.78D-07 NDo=     1
 LinEq1:  Iter= 14 NonCon=     1 RMS=6.46D-09 Max=1.47D-07 NDo=     1
 LinEq1:  Iter= 15 NonCon=     1 RMS=2.72D-09 Max=9.15D-08 NDo=     1
 LinEq1:  Iter= 16 NonCon=     1 RMS=9.77D-10 Max=2.24D-08 NDo=     1
 LinEq1:  Iter= 17 NonCon=     1 RMS=4.12D-10 Max=1.31D-08 NDo=     1
 LinEq1:  Iter= 18 NonCon=     1 RMS=1.45D-10 Max=2.48D-09 NDo=     1
 LinEq1:  Iter= 19 NonCon=     0 RMS=4.86D-11 Max=7.84D-10 NDo=     1
 Linear equations converged to 1.000D-10 1.000D-09 after    19 iterations.
 End of Minotr F.D. properties file   721 does not exist.
 End of Minotr F.D. properties file   722 does not exist.
 End of Minotr F.D. properties file   788 does not exist.
 Calling FoFJK, ICntrl=  10002127 FMM=F ISym2X=0 I1Cent= 0 IOpClX= 0 NMat=1 NMatS=1 NMatT=0.
 ***** Axes restored to original set *****
 -------------------------------------------------------------------
 Center     Atomic                   Forces (Hartrees/Bohr)
 Number     Number              X              Y              Z
 -------------------------------------------------------------------
      1        6           0.007389759    0.004975274    0.001669201
      2        6          -0.015027790   -0.002961082   -0.001683636
      3        6           0.007857814   -0.004597199   -0.001151000
      4        6          -0.002016514   -0.004213128   -0.001577058
      5        1          -0.000532577   -0.000886287   -0.000328709
      6       16          -0.000401687    0.004708665    0.002303319
      7        1           0.000206047    0.000057845    0.000042838
      8        6          -0.007335101    0.002546644   -0.001786089
      9       16           0.001184316   -0.002997718    0.002387908
     10        6           0.006015189    0.008084819   -0.003569397
     11        6          -0.005999971   -0.008060171    0.003282744
     12        6           0.008804999   -0.001154786   -0.000180533
     13        1          -0.001271098    0.000743991   -0.000005299
     14       16          -0.000897450    0.003731913   -0.001658043
     15        6           0.003399896   -0.002281096    0.001085288
     16        6          -0.007049270    0.000131925    0.000054993
     17        1           0.000059555   -0.000146647    0.000016998
     18        1           0.000886751   -0.000516494    0.000226704
     19        8           0.007894793    0.002711370    0.000557523
     20        1          -0.003167661    0.000122162    0.000312246
 -------------------------------------------------------------------
 Cartesian Forces:  Max     0.015027790 RMS     0.004102887

 GradGradGradGradGradGradGradGradGradGradGradGradGradGradGradGradGradGrad
 Berny optimization.
 Using GEDIIS/GDIIS optimizer.
 FormGI is forming the generalized inverse of G from B-inverse, IUseBI=4.
 Internal  Forces:  Max     0.005381263 RMS     0.001631733
 Search for a local minimum.
 Step number   2 out of a maximum of  116
 All quantities printed in internal units (Hartrees-Bohrs-Radians)
 Mixed Optimization -- RFO/linear search
 Update second derivatives using D2CorX and points    1    2
 DE= -1.02D-02 DEPred=-1.00D-02 R= 1.02D+00
 TightC=F SS=  1.41D+00  RLast= 1.96D-01 DXNew= 5.0454D-01 5.8741D-01
 Trust test= 1.02D+00 RLast= 1.96D-01 DXMaxT set to 5.05D-01
 ITU=  1  0
 Use linear search instead of GDIIS.
     Eigenvalues ---    0.01490   0.01583   0.01630   0.01712   0.01753
     Eigenvalues ---    0.01760   0.01978   0.02019   0.02067   0.02138
     Eigenvalues ---    0.02220   0.02265   0.02320   0.02353   0.02378
     Eigenvalues ---    0.02445   0.15771   0.15999   0.15999   0.16000
     Eigenvalues ---    0.16000   0.16032   0.22505   0.22604   0.23693
     Eigenvalues ---    0.24327   0.24768   0.24901   0.24964   0.24991
     Eigenvalues ---    0.25217   0.29253   0.29928   0.30362   0.31073
     Eigenvalues ---    0.31361   0.32701   0.35849   0.36024   0.36201
     Eigenvalues ---    0.36299   0.36347   0.36671   0.38891   0.39169
     Eigenvalues ---    0.39430   0.45454   0.50153   0.51627   0.53170
     Eigenvalues ---    0.53968   0.55197   0.593811000.000001000.00000
     Eigenvalues --- 1000.000001000.000001000.000001000.000001000.00000
     Eigenvalues --- 1000.000001000.000001000.000001000.000001000.00000
     Eigenvalues --- 1000.000001000.000001000.000001000.000001000.00000
     Eigenvalues --- 1000.000001000.000001000.000001000.000001000.00000
     Eigenvalues --- 1000.000001000.000001000.000001000.000001000.00000
     Eigenvalues --- 1000.000001000.000001000.000001000.000001000.00000
     Eigenvalues --- 1000.000001000.000001000.000001000.000001000.00000
     Eigenvalues --- 1000.000001000.000001000.000001000.000001000.00000
     Eigenvalues --- 1000.000001000.000001000.000001000.000001000.00000
     Eigenvalues --- 1000.000001000.000001000.000001000.000001000.00000
     Eigenvalues --- 1000.00000
 RFO step:  Lambda=-8.96858925D-04 EMin= 1.49026009D-02
 Quartic linear search produced a step of  0.10936.
 Iteration  1 RMS(Cart)=  0.01446757 RMS(Int)=  0.00011841
 Iteration  2 RMS(Cart)=  0.00017536 RMS(Int)=  0.00002115
 Iteration  3 RMS(Cart)=  0.00000002 RMS(Int)=  0.00002115
 Iteration  1 RMS(Cart)=  0.00000956 RMS(Int)=  0.00000439
 Iteration  2 RMS(Cart)=  0.00000523 RMS(Int)=  0.00000491
 Iteration  3 RMS(Cart)=  0.00000286 RMS(Int)=  0.00000554
 Iteration  4 RMS(Cart)=  0.00000157 RMS(Int)=  0.00000597
 Iteration  5 RMS(Cart)=  0.00000086 RMS(Int)=  0.00000621
 Variable       Old X    -DE/DX   Delta X   Delta X   Delta X     New X
                                 (Linear)    (Quad)   (Total)
    R1        2.71192  -0.00522  -0.00031  -0.01427  -0.01458   2.69734
    R2        2.61857   0.00286   0.00762   0.00162   0.00923   2.62780
    R3        2.06682  -0.00014   0.00282  -0.00186   0.00096   2.06778
    R4        2.63061   0.00435   0.00765   0.00484   0.01250   2.64311
    R5        2.58946   0.00412   0.00418   0.00606   0.01024   2.59970
    R6        3.31210  -0.00303   0.00074  -0.01131  -0.01056   3.30155
    R7        2.75835  -0.00219  -0.00160  -0.00592  -0.00752   2.75083
    R8        3.27232  -0.00074   0.00211  -0.00352  -0.00141   3.27091
    R9        2.06104  -0.00021   0.00271  -0.00201   0.00070   2.06174
   R10        3.34033  -0.00084   0.00193  -0.00442  -0.00249   3.33784
   R11        2.62999   0.00389   0.00764   0.00378   0.01141   2.64141
   R12        3.29592  -0.00126   0.00167  -0.00516  -0.00349   3.29243
   R13        2.65922   0.00538   0.00912   0.00696   0.01608   2.67530
   R14        2.70931  -0.00352  -0.00034  -0.00939  -0.00974   2.69957
   R15        2.70036  -0.00354  -0.00083  -0.00906  -0.00989   2.69047
   R16        3.29773  -0.00133   0.00163  -0.00529  -0.00366   3.29407
   R17        2.06435  -0.00029   0.00311  -0.00246   0.00064   2.06499
   R18        3.31437  -0.00132   0.00194  -0.00606  -0.00411   3.31026
   R19        2.61759   0.00255   0.00743   0.00097   0.00839   2.62598
   R20        2.06195   0.00005   0.00293  -0.00133   0.00160   2.06355
   R21        2.06311  -0.00029   0.00273  -0.00228   0.00045   2.06356
   R22        1.82285   0.00273   0.00467   0.00255   0.00722   1.83007
    A1        1.95688   0.00042  -0.00019   0.00235   0.00216   1.95904
    A2        2.15975   0.00090   0.00013   0.00646   0.00660   2.16634
    A3        2.16651  -0.00132   0.00005  -0.00884  -0.00878   2.15773
    A4        1.97455   0.00152  -0.00120   0.00745   0.00626   1.98081
    A5        2.18414   0.00261   0.00286   0.01009   0.01295   2.19709
    A6        2.12443  -0.00413  -0.00166  -0.01756  -0.01923   2.10520
    A7        1.93162  -0.00230   0.00113  -0.01069  -0.00960   1.92203
    A8        2.25095   0.00040  -0.00057   0.00177   0.00111   2.25206
    A9        2.10034   0.00191  -0.00058   0.00847   0.00781   2.10814
   A10        1.95812  -0.00182   0.00014  -0.00901  -0.00887   1.94925
   A11        2.23066   0.00097   0.00092   0.00453   0.00546   2.23612
   A12        2.09439   0.00085  -0.00107   0.00448   0.00341   2.09781
   A13        1.60350   0.00218   0.00011   0.00991   0.01005   1.61355
   A14        2.09733   0.00056  -0.00165   0.00338   0.00172   2.09904
   A15        2.21422   0.00133   0.00023   0.00582   0.00604   2.22026
   A16        1.97019  -0.00187   0.00142  -0.00966  -0.00825   1.96194
   A17        1.58330   0.00252  -0.00033   0.01083   0.01051   1.59381
   A18        1.94534  -0.00242   0.00052  -0.01079  -0.01027   1.93507
   A19        2.35417   0.00152   0.00005   0.00596   0.00601   2.36018
   A20        1.98357   0.00090  -0.00057   0.00483   0.00425   1.98783
   A21        1.98622   0.00101  -0.00045   0.00498   0.00451   1.99073
   A22        1.94356  -0.00254   0.00031  -0.01087  -0.01055   1.93301
   A23        2.35322   0.00153   0.00013   0.00578   0.00591   2.35913
   A24        1.93967   0.00077  -0.00115   0.00457   0.00341   1.94308
   A25        2.15328  -0.00184   0.00012  -0.01221  -0.01209   2.14119
   A26        2.19017   0.00108   0.00103   0.00758   0.00861   2.19878
   A27        1.58117   0.00231   0.00006   0.01007   0.01014   1.59131
   A28        1.98507  -0.00139   0.00099  -0.00805  -0.00707   1.97800
   A29        2.07586   0.00055  -0.00124   0.00331   0.00207   2.07793
   A30        2.22225   0.00084   0.00025   0.00474   0.00499   2.22724
   A31        1.93139   0.00072  -0.00079   0.00402   0.00321   1.93460
   A32        2.18717   0.00068   0.00049   0.00513   0.00563   2.19280
   A33        2.16462  -0.00140   0.00030  -0.00916  -0.00885   2.15577
   A34        1.90972  -0.00299  -0.00304  -0.01935  -0.02239   1.88732
    D1        0.00228  -0.00008   0.00009   0.00318   0.00326   0.00553
    D2       -3.12693  -0.00004   0.00017   0.00424   0.00440  -3.12252
    D3        3.13426  -0.00007  -0.00011   0.00017   0.00003   3.13429
    D4        0.00506  -0.00002  -0.00004   0.00123   0.00118   0.00624
    D5       -0.01092  -0.00004  -0.00020  -0.00165  -0.00184  -0.01276
    D6        3.13563   0.00003  -0.00024  -0.00231  -0.00254   3.13309
    D7        3.14033  -0.00007   0.00001   0.00127   0.00126   3.14159
    D8        0.00369  -0.00000  -0.00003   0.00061   0.00057   0.00426
    D9        0.00722   0.00017   0.00006  -0.00318  -0.00309   0.00413
   D10       -3.10871  -0.00003   0.00097   0.01777   0.01866  -3.09005
   D11        3.13690   0.00018   0.00002  -0.00399  -0.00392   3.13297
   D12        0.02097  -0.00002   0.00093   0.01696   0.01782   0.03880
   D13       -0.01814   0.00011   0.00018   0.00484   0.00502  -0.01313
   D14        3.13685   0.00012   0.00025   0.00580   0.00605  -3.14029
   D15       -0.01130  -0.00017  -0.00015   0.00187   0.00168  -0.00962
   D16        3.10717  -0.00001  -0.00098  -0.01709  -0.01807   3.08911
   D17       -0.87160   0.00110   0.00000   0.00000  -0.00001  -0.87160
   D18        2.33208   0.00078  -0.00001   0.01024   0.01023   2.34231
   D19        2.29782   0.00094   0.00098   0.02296   0.02400   2.32182
   D20       -0.78169   0.00062   0.00097   0.03320   0.03424  -0.74745
   D21        0.01279   0.00013   0.00020  -0.00007   0.00013   0.01292
   D22       -3.13333   0.00007   0.00024   0.00054   0.00078  -3.13255
   D23       -3.09659  -0.00023  -0.00002   0.00442   0.00435  -3.09224
   D24       -0.00889   0.00015  -0.00003  -0.00401  -0.00404  -0.01293
   D25        3.08892   0.00014  -0.00026  -0.00766  -0.00792   3.08099
   D26       -0.06471   0.00010  -0.00035  -0.01222  -0.01253  -0.07724
   D27        0.00558  -0.00022  -0.00018   0.00159   0.00138   0.00696
   D28        3.13514  -0.00026  -0.00027  -0.00296  -0.00322   3.13191
   D29        0.00978  -0.00004   0.00023   0.00531   0.00550   0.01528
   D30       -3.11487   0.00002   0.00016   0.00567   0.00581  -3.10906
   D31       -0.00866  -0.00007  -0.00038  -0.00550  -0.00585  -0.01451
   D32       -3.13251   0.00003  -0.00010  -0.00065  -0.00076  -3.13327
   D33        3.11982  -0.00010  -0.00032  -0.00573  -0.00603   3.11379
[...]
 Center     Atomic      Atomic             Coordinates (Angstroms)
 Number     Number       Type             X           Y           Z
 ---------------------------------------------------------------------
      1          6           0       -4.031429    0.348613    0.322746
      2          6           0       -2.692465    0.820582    0.421052
      3          6           0       -1.737699   -0.106086   -0.015735
      4          6           0       -4.096130   -0.947122   -0.180993
      5          1           0       -4.913645    0.924878    0.614879
      6         16           0       -2.525391   -1.568610   -0.550097
      7          1           0       -4.982867   -1.554710   -0.361929
      8          6           0       -0.287642   -0.004354    0.013798
      9         16           0        0.519975    1.432283   -0.618500
     10          6           0        2.086349    0.728854   -0.330510
     11          6           0        1.962321   -0.573709    0.215368
     12          6           0        0.618921   -0.991827    0.412405
     13          1           0        0.295306   -1.944587    0.837177
     14         16           0        3.531443   -1.264560    0.525337
     15          6           0        4.323827    0.178003   -0.068093
     16          6           0        3.436092    1.161358   -0.487091
     17          1           0        5.414070    0.217388   -0.080451
     18          1           0        3.755772    2.125639   -0.886145
     19          8           0       -2.298815    2.053134    0.895799
     20          1           0       -3.087414    2.534636    1.184539
 ---------------------------------------------------------------------
 Rotational constants (GHZ):           1.2709760           0.2737994           0.2374499

 **********************************************************************

            Population analysis using the SCF Density.

 **********************************************************************

 Orbital symmetries:
       Occupied  (A) (A) (A) (A) (A) (A) (A) (A) (A) (A) (A) (A)
                 (A) (A) (A) (A) (A) (A) (A) (A) (A) (A) (A) (A)
                 (A) (A) (A) (A) (A) (A) (A) (A) (A) (A) (A) (A)
                 (A) (A) (A) (A) (A) (A) (A) (A) (A) (A) (A) (A)
                 (A) (A) (A) (A) (A) (A) (A) (A) (A) (A) (A) (A)
                 (A)
       Virtual   (A) (A) (A) (A) (A) (A) (A) (A) (A) (A) (A) (A)
                 (A) (A) (A) (A) (A) (A) (A) (A) (A) (A) (A) (A)
                 (A) (A) (A) (A) (A) (A) (A) (A) (A) (A) (A) (A)
                 (A) (A) (A) (A) (A) (A) (A) (A) (A) (A) (A) (A)
                 (A) (A) (A) (A) (A) (A) (A) (A) (A) (A) (A) (A)
                 (A) (A) (A) (A) (A) (A) (A) (A) (A) (A) (A) (A)
                 (A) (A) (A) (A) (A) (A) (A) (A) (A) (A) (A) (A)
                 (A) (A) (A) (A) (A) (A) (A) (A) (A) (A) (A) (A)
                 (A) (A) (A) (A) (A) (A) (A) (A) (A) (A) (A) (A)
                 (A) (A) (A) (A) (A) (A) (A) (A) (A) (A) (A) (A)
                 (A) (A) (A) (A) (A) (A) (A) (A) (A) (A) (A) (A)
                 (A) (A) (A) (A) (A) (A) (A) (A) (A) (A) (A) (A)
                 (A) (A) (A) (A) (A) (A) (A) (A) (A) (A) (A) (A)
                 (A) (A) (A) (A) (A) (A) (A) (A) (A) (A) (A) (A)
                 (A) (A) (A) (A) (A) (A) (A) (A) (A) (A) (A) (A)
                 (A) (A) (A) (A) (A) (A) (A) (A) (A) (A) (A) (A)
                 (A) (A) (A) (A) (A) (A) (A) (A) (A) (A) (A) (A)
                 (A) (A) (A) (A) (A) (A) (A) (A) (A) (A) (A) (A)
                 (A) (A) (A) (A) (A) (A) (A) (A) (A) (A) (A) (A)
                 (A) (A) (A) (A) (A) (A) (A) (A) (A) (A) (A) (A)
                 (A) (A) (A) (A) (A) (A) (A) (A) (A) (A) (A) (A)
                 (A) (A) (A) (A) (A) (A) (A) (A) (A) (A) (A) (A)
                 (A) (A) (A) (A) (A) (A) (A) (A) (A) (A) (A) (A)
                 (A) (A) (A) (A) (A) (A) (A) (A) (A) (A) (A) (A)
                 (A) (A) (A) (A) (A) (A) (A) (A) (A) (A) (A) (A)
                 (A) (A) (A) (A) (A) (A) (A) (A) (A) (A) (A) (A)
                 (A) (A) (A) (A) (A) (A) (A) (A) (A) (A) (A) (A)
                 (A) (A) (A)
 The electronic state is 1-A.
 Alpha  occ. eigenvalues --  -91.99745 -91.99015 -91.98775 -20.61444 -11.32510
 Alpha  occ. eigenvalues --  -11.29285 -11.29183 -11.28012 -11.27834 -11.27514
 Alpha  occ. eigenvalues --  -11.27392 -11.26487 -11.26085 -11.25963  -8.99874
 Alpha  occ. eigenvalues --   -8.99128  -8.98868  -6.68037  -6.67945  -6.67759
 Alpha  occ. eigenvalues --   -6.67294  -6.67215  -6.67028  -6.67017  -6.66943
 Alpha  occ. eigenvalues --   -6.66744  -1.41516  -1.20136  -1.17655  -1.11571
 Alpha  occ. eigenvalues --   -1.02373  -1.01858  -0.98861  -0.94442  -0.93796
 Alpha  occ. eigenvalues --   -0.82499  -0.80528  -0.76367  -0.73964  -0.71389
 Alpha  occ. eigenvalues --   -0.69527  -0.66405  -0.65824  -0.60920  -0.60367
 Alpha  occ. eigenvalues --   -0.58533  -0.56574  -0.55493  -0.54048  -0.52759
 Alpha  occ. eigenvalues --   -0.52537  -0.50826  -0.49545  -0.48360  -0.45815
 Alpha  occ. eigenvalues --   -0.45662  -0.38687  -0.35219  -0.33456  -0.31632
 Alpha  occ. eigenvalues --   -0.26943
 Alpha virt. eigenvalues --    0.02791   0.03735   0.03945   0.04963   0.05111
 Alpha virt. eigenvalues --    0.06232   0.06356   0.08405   0.08575   0.09156
 Alpha virt. eigenvalues --    0.10245   0.10403   0.10465   0.10718   0.11161
 Alpha virt. eigenvalues --    0.12256   0.12738   0.12922   0.12954   0.13254
 Alpha virt. eigenvalues --    0.13868   0.14201   0.14309   0.14551   0.15073
 Alpha virt. eigenvalues --    0.15287   0.15626   0.16506   0.16837   0.17280
 Alpha virt. eigenvalues --    0.17861   0.18000   0.18432   0.18957   0.19159
 Alpha virt. eigenvalues --    0.19163   0.19843   0.20595   0.21724   0.21796
 Alpha virt. eigenvalues --    0.22095   0.22436   0.22936   0.23060   0.23150
 Alpha virt. eigenvalues --    0.23931   0.24416   0.25179   0.25477   0.25543
 Alpha virt. eigenvalues --    0.26194   0.26952   0.27443   0.27613   0.28061
 Alpha virt. eigenvalues --    0.28629   0.29806   0.30468   0.31011   0.31394
 Alpha virt. eigenvalues --    0.31913   0.32288   0.32436   0.32816   0.33178
 Alpha virt. eigenvalues --    0.33665   0.33818   0.34479   0.35088   0.35709
 Alpha virt. eigenvalues --    0.36022   0.37191   0.37745   0.38085   0.38763
 Alpha virt. eigenvalues --    0.39969   0.40739   0.40754   0.40975   0.41904
 Alpha virt. eigenvalues --    0.42672   0.43525   0.44717   0.45251   0.45542
 Alpha virt. eigenvalues --    0.45633   0.46675   0.46844   0.47291   0.48326
 Alpha virt. eigenvalues --    0.48852   0.49405   0.49624   0.50735   0.51985
 Alpha virt. eigenvalues --    0.52289   0.53332   0.53762   0.54451   0.54715
 Alpha virt. eigenvalues --    0.55618   0.56270   0.58205   0.58547   0.59287
 Alpha virt. eigenvalues --    0.60143   0.60827   0.61276   0.61646   0.62305
 Alpha virt. eigenvalues --    0.62671   0.62720   0.63852   0.65096   0.65476
 Alpha virt. eigenvalues --    0.66554   0.66765   0.67015   0.67568   0.68324
 Alpha virt. eigenvalues --    0.68624   0.68913   0.69396   0.69953   0.70344
 Alpha virt. eigenvalues --    0.70451   0.71609   0.72031   0.72642   0.73393
 Alpha virt. eigenvalues --    0.73889   0.74010   0.74561   0.75506   0.75585
 Alpha virt. eigenvalues --    0.76931   0.77526   0.77623   0.78859   0.79530
 Alpha virt. eigenvalues --    0.80627   0.82249   0.83580   0.84072   0.84812
 Alpha virt. eigenvalues --    0.85338   0.86144   0.86727   0.87261   0.87511
 Alpha virt. eigenvalues --    0.87559   0.88954   0.90206   0.90597   0.91226
 Alpha virt. eigenvalues --    0.91446   0.92049   0.93842   0.94509   0.94618
 Alpha virt. eigenvalues --    0.95236   0.95618   0.96887   0.97577   0.98378
 Alpha virt. eigenvalues --    0.99401   1.00231   1.00543   1.01153   1.02870
 Alpha virt. eigenvalues --    1.04152   1.04393   1.05057   1.06459   1.07357
 Alpha virt. eigenvalues --    1.08167   1.09677   1.10878   1.11485   1.13175
 Alpha virt. eigenvalues --    1.14265   1.14585   1.15378   1.17646   1.18091
 Alpha virt. eigenvalues --    1.19143   1.20035   1.21652   1.22258   1.23634
 Alpha virt. eigenvalues --    1.24000   1.24609   1.25636   1.26500   1.27622
 Alpha virt. eigenvalues --    1.27917   1.28949   1.29431   1.31252   1.31887
 Alpha virt. eigenvalues --    1.33750   1.34587   1.35139   1.35826   1.37079
 Alpha virt. eigenvalues --    1.37848   1.39187   1.39412   1.40377   1.41951
 Alpha virt. eigenvalues --    1.43239   1.44125   1.44825   1.47264   1.48046
 Alpha virt. eigenvalues --    1.49755   1.52449   1.54842   1.55588   1.56701
 Alpha virt. eigenvalues --    1.57505   1.58948   1.59813   1.60449   1.61552
 Alpha virt. eigenvalues --    1.62231   1.63199   1.64260   1.66678   1.67542
 Alpha virt. eigenvalues --    1.67861   1.69016   1.69170   1.70144   1.71786
 Alpha virt. eigenvalues --    1.73333   1.73536   1.75038   1.75759   1.77233
 Alpha virt. eigenvalues --    1.79335   1.80266   1.81046   1.82689   1.83657
 Alpha virt. eigenvalues --    1.84294   1.85489   1.87390   1.89704   1.90390
 Alpha virt. eigenvalues --    1.90789   1.91262   1.94457   1.95703   1.96721
 Alpha virt. eigenvalues --    1.97510   1.99603   2.01028   2.02832   2.03477
 Alpha virt. eigenvalues --    2.04077   2.06795   2.07464   2.08315   2.08520
 Alpha virt. eigenvalues --    2.09622   2.10588   2.12251   2.12551   2.14712
 Alpha virt. eigenvalues --    2.16036   2.18067   2.19207   2.19553   2.21226
 Alpha virt. eigenvalues --    2.22137   2.23873   2.25413   2.26967   2.29592
 Alpha virt. eigenvalues --    2.30320   2.31772   2.32274   2.34225   2.36272
 Alpha virt. eigenvalues --    2.36457   2.39611   2.42511   2.43130   2.45242
 Alpha virt. eigenvalues --    2.46195   2.46463   2.47949   2.48784   2.50709
 Alpha virt. eigenvalues --    2.54344   2.55563   2.56245   2.57528   2.62093
 Alpha virt. eigenvalues --    2.70999   2.77412   2.79126   2.81208   2.83731
 Alpha virt. eigenvalues --    2.87469   2.89621   2.94332   2.96478   3.00126
 Alpha virt. eigenvalues --    3.11913   3.14418   3.20890   3.23667   3.31127
 Alpha virt. eigenvalues --    3.36468   3.45135   3.48706   3.61756   3.75261
 Alpha virt. eigenvalues --    3.76886   3.77825   3.86602   3.89667   4.20129
 Alpha virt. eigenvalues --    4.24151   4.44121
          Condensed to atoms (all electrons):
               1          2          3          4          5          6
     1  C    7.765083  -2.178922   0.104715   0.261516  -0.040659  -0.296484
     2  C   -2.178922  10.637115  -2.029831   0.315466   0.133992  -0.426630
     3  C    0.104715  -2.029831  10.386928  -1.054109   0.014399   0.035969
     4  C    0.261516   0.315466  -1.054109   6.185953  -0.075188   0.304061
     5  H   -0.040659   0.133992   0.014399  -0.075188   1.544360  -0.016012
     6  S   -0.296484  -0.426630   0.035969   0.304061  -0.016012  16.109126
     7  H   -0.039757   0.041337   0.021181   0.266844  -0.060529  -0.136246
     8  C    0.045140   0.094214  -1.689653   0.273536  -0.017616  -0.295071
     9  S   -0.056280   0.336322  -0.397665   0.021807   0.002634  -0.089280
    10  C   -0.037766   0.082567  -0.146222   0.018823  -0.000672   0.010379
    11  C   -0.018931   0.027310   0.348616  -0.022766   0.000651  -0.001128
    12  C    0.061137  -0.906087  -0.168969  -0.168560  -0.004028   0.340654
    13  H   -0.018180   0.064704   0.042628   0.013692  -0.001161  -0.000262
    14  S    0.001080  -0.009958  -0.056407  -0.001059   0.000057   0.001558
    15  C   -0.001666   0.003265   0.013935   0.000263  -0.000089  -0.001874
    16  C   -0.001631  -0.000068  -0.281973  -0.000780  -0.000304   0.012981
    17  H   -0.000091   0.000441  -0.000820  -0.000000  -0.000006  -0.000049
    18  H    0.000205   0.000381  -0.005437  -0.000113   0.000024   0.000243
    19  O    0.142600  -0.769150   0.273066  -0.073847  -0.054571   0.015298
    20  H   -0.133918   0.040098  -0.036179  -0.008337  -0.009435   0.010440
               7          8          9         10         11         12
     1  C   -0.039757   0.045140  -0.056280  -0.037766  -0.018931   0.061137
     2  C    0.041337   0.094214   0.336322   0.082567   0.027310  -0.906087
     3  C    0.021181  -1.689653  -0.397665  -0.146222   0.348616  -0.168969
     4  C    0.266844   0.273536   0.021807   0.018823  -0.022766  -0.168560
     5  H   -0.060529  -0.017616   0.002634  -0.000672   0.000651  -0.004028
     6  S   -0.136246  -0.295071  -0.089280   0.010379  -0.001128   0.340654
     7  H    1.207356   0.014915  -0.000626   0.000624   0.000447   0.000948
     8  C    0.014915  11.640693   0.289665  -0.376967  -0.483017  -3.750153
     9  S   -0.000626   0.289665  16.402593   0.169588  -0.300426  -0.637567
    10  C    0.000624  -0.376967   0.169588   9.865221  -0.191426  -0.856337
    11  C    0.000447  -0.483017  -0.300426  -0.191426  11.658899  -3.454305
    12  C    0.000948  -3.750153  -0.637567  -0.856337  -3.454305  16.300835
    13  H    0.002173   0.398762   0.030442  -0.101517   0.532196  -1.071261
    14  S   -0.000113  -0.320084   0.106454   0.056563  -0.368179   0.086976
    15  C    0.000027   0.061409  -0.086038  -0.164723  -0.861716  -0.024150
    16  C   -0.000038  -0.219428  -0.234787  -2.273811  -0.629640   0.125479
    17  H    0.000003   0.000691   0.009479   0.065991  -0.066126   0.028218
    18  H   -0.000008   0.072202   0.019007   0.430795   0.049906  -0.053614
    19  O   -0.002109   0.069693  -0.048858   0.007712  -0.012125   0.033318
    20  H    0.001001   0.007674   0.008301   0.004144  -0.002048  -0.005395
              13         14         15         16         17         18
     1  C   -0.018180   0.001080  -0.001666  -0.001631  -0.000091   0.000205
     2  C    0.064704  -0.009958   0.003265  -0.000068   0.000441   0.000381
     3  C    0.042628  -0.056407   0.013935  -0.281973  -0.000820  -0.005437
     4  C    0.013692  -0.001059   0.000263  -0.000780  -0.000000  -0.000113
     5  H   -0.001161   0.000057  -0.000089  -0.000304  -0.000006   0.000024
     6  S   -0.000262   0.001558  -0.001874   0.012981  -0.000049   0.000243
     7  H    0.002173  -0.000113   0.000027  -0.000038   0.000003  -0.000008
     8  C    0.398762  -0.320084   0.061409  -0.219428   0.000691   0.072202
     9  S    0.030442   0.106454  -0.086038  -0.234787   0.009479   0.019007
    10  C   -0.101517   0.056563  -0.164723  -2.273811   0.065991   0.430795
    11  C    0.532196  -0.368179  -0.861716  -0.629640  -0.066126   0.049906
    12  C   -1.071261   0.086976  -0.024150   0.125479   0.028218  -0.053614
    13  H    1.623772  -0.044758   0.012435  -0.040121   0.001649  -0.000696
    14  S   -0.044758  15.930568   0.193437  -0.032041  -0.143368  -0.000718
    15  C    0.012435   0.193437   6.544572   0.305267   0.294717  -0.133455
    16  C   -0.040121  -0.032041   0.305267   9.282736  -0.022696  -0.366938
    17  H    0.001649  -0.143368   0.294717  -0.022696   1.243208  -0.061343
    18  H   -0.000696  -0.000718  -0.133455  -0.366938  -0.061343   1.338635
    19  O   -0.000326   0.000794   0.000156   0.001004   0.000008   0.000091
    20  H    0.000687  -0.000144   0.000190   0.000975   0.000011   0.000008
              19         20
     1  C    0.142600  -0.133918
     2  C   -0.769150   0.040098
     3  C    0.273066  -0.036179
     4  C   -0.073847  -0.008337
     5  H   -0.054571  -0.009435
     6  S    0.015298   0.010440
     7  H   -0.002109   0.001001
     8  C    0.069693   0.007674
     9  S   -0.048858   0.008301
    10  C    0.007712   0.004144
    11  C   -0.012125  -0.002048
    12  C    0.033318  -0.005395
    13  H   -0.000326   0.000687
    14  S    0.000794  -0.000144
    15  C    0.000156   0.000190
    16  C    0.001004   0.000975
    17  H    0.000008   0.000011
    18  H    0.000091   0.000008
    19  O    9.036069   0.348007
    20  H    0.348007   0.578582
 Mulliken charges:
               1
     1  C    0.442807
     2  C    0.543433
     3  C    0.625826
     4  C   -0.257201
     5  H   -0.415846
     6  S    0.422327
     7  H   -0.317429
     8  C    0.183394
     9  S    0.455233
    10  C   -0.562969
    11  C   -0.206191
    12  C    0.122861
    13  H   -0.444858
    14  S    0.599341
    15  C   -0.155961
    16  C    0.375814
    17  H   -0.349917
    18  H   -0.289176
    19  O   -0.966830
    20  H    0.195340
 Sum of Mulliken charges =  -0.00000
 Mulliken charges with hydrogens summed into heavy atoms:
               1
     1  C    0.026961
     2  C    0.543433
     3  C    0.625826
     4  C   -0.574630
     6  S    0.422327
     8  C    0.183394
     9  S    0.455233
    10  C   -0.562969
    11  C   -0.206191
    12  C   -0.321997
    14  S    0.599341
    15  C   -0.505878
    16  C    0.086639
    19  O   -0.771490
 Electronic spatial extent (au):  <R**2>=           4333.8013
 Charge=              0.0000 electrons
 Dipole moment (field-independent basis, Debye):
    X=             -2.4568    Y=              0.7876    Z=              0.5408  Tot=              2.6360
 Quadrupole moment (field-independent basis, Debye-Ang):
   XX=            -76.5343   YY=            -97.9572   ZZ=           -108.7175
   XY=             -0.3823   XZ=             -4.7976   YZ=             -0.0012
 Traceless Quadrupole moment (field-independent basis, Debye-Ang):
   XX=             17.8687   YY=             -3.5542   ZZ=            -14.3145
   XY=             -0.3823   XZ=             -4.7976   YZ=             -0.0012
 Octapole moment (field-independent basis, Debye-Ang**2):
  XXX=            -56.4790  YYY=             18.4766  ZZZ=              6.0039  XYY=            -22.7859
  XXY=             34.8699  XXZ=              8.1348  XZZ=             -8.7401  YZZ=              6.5487
  YYZ=              4.8992  XYZ=            -21.7659
 Hexadecapole moment (field-independent basis, Debye-Ang**3):
 XXXX=          -3989.2011 YYYY=           -918.5738 ZZZZ=           -288.3702 XXXY=             -4.1671
 XXXZ=            -78.2576 YYYX=            -39.5035 YYYZ=             15.2294 ZZZX=            -14.7602
 ZZZY=             13.2471 XXYY=           -850.8294 XXZZ=           -909.4181 YYZZ=           -198.3990
 XXYZ=             45.2660 YYXZ=            -33.5704 ZZXY=            -20.9092
 N-N= 1.120777939918D+03 E-N=-6.148122308496D+03  KE= 1.648689804560D+03
 Unable to Open any file for archive entry.
 1\1\GINC-CX3-11-7\FOpt\RMP2-FC\Aug-CC-pVDZ\C10H6O1S3\NS5018\27-Oct-202
 1\0\\# opt=modredundant mp2/aug-cc-pvdz\\pBTTT_-50.pdb\\0,1\C,-4.02884
 65283,0.3600743511,0.3228214668\C,-2.6884287726,0.828265386,0.41937156
 \C,-1.7367441953,-0.1017370176,-0.0170548763\C,-4.0977570223,-0.936107
 7192,-0.1792058538\H,-4.9091274069,0.9392784926,0.6149788215\S,-2.5291
 542767,-1.5626396928,-0.5488692807\H,-4.9864159749,-1.5413396083,-0.35
 86023505\C,-0.2863714091,-0.0041925292,0.0110985262\S,0.5248783568,1.4
 29278304,-0.6237291763\C,2.0894457852,0.7216563929,-0.3361914034\C,1.9
 620972539,-0.5798432613,0.211456635\C,0.6176564531,-0.9937937226,0.410
 1852384\H,0.2916349959,-1.9450644597,0.836451847\S,3.5294681881,-1.274
 8665854,0.5209556261\C,4.3255359702,0.1646241176,-0.0749985686\C,3.440
 3061381,1.1500262007,-0.4944870828\H,5.4158777574,0.2008163169,-0.0883
 466597\H,3.7624482158,2.1128621019,-0.8950474962\O,-2.2907802699,2.060
 26914,0.8922047447\H,-3.0777232585,2.5444337922,1.1810082825\\Version=
 ES64L-G16RevC.01\State=1-A\HF=-1649.6301214\MP2=-1651.6219157\RMSD=7.6
 63e-09\RMSF=6.282e-04\Dipole=-0.7469987,0.270905,0.1775056\PG=C01 [X(C
 10H6O1S3)]\\@
 The archive entry for this job was punched.


 IF YOU GET CONFUSED, LOGIC OUT YOUR DILEMMA

           --  PICKER X-RAY CORP.    DIGITAL PRINTER MANUAL CA. 1964
 Job cpu time:       0 days 17 hours 53 minutes 55.9 seconds.
 Elapsed time:       0 days  2 hours 26 minutes 38.0 seconds.
 File lengths (MBytes):  RWF=    106 Int=      0 D2E=      0 Chk=     16 Scr=      1
 Normal termination of Gaussian 16 at Wed Oct 27 06:50:20 2021.
