 Entering Gaussian System, Link 0=g16
 Input=pBTTT_-110.gjf
 Output=pBTTT_-110.log
 Initial command:
 /apps/gaussian/g16-c01-avx/g16/l1.exe "/tmp/pbs.4766300[65].pbs/Gau-4101799.inp" -scrdir="/tmp/pbs.4766300[65].pbs/"
 Entering Link 1 = /apps/gaussian/g16-c01-avx/g16/l1.exe PID=   4101801.
  
 Copyright (c) 1988-2019, Gaussian, Inc.  All Rights Reserved.
  
 This is part of the Gaussian(R) 16 program.  It is based on
 the Gaussian(R) 09 system (copyright 2009, Gaussian, Inc.),
 the Gaussian(R) 03 system (copyright 2003, Gaussian, Inc.),
 the Gaussian(R) 98 system (copyright 1998, Gaussian, Inc.),
 the Gaussian(R) 94 system (copyright 1995, Gaussian, Inc.),
 the Gaussian 92(TM) system (copyright 1992, Gaussian, Inc.),
 the Gaussian 90(TM) system (copyright 1990, Gaussian, Inc.),
 the Gaussian 88(TM) system (copyright 1988, Gaussian, Inc.),
 the Gaussian 86(TM) system (copyright 1986, Carnegie Mellon
 University), and the Gaussian 82(TM) system (copyright 1983,
 Carnegie Mellon University). Gaussian is a federally registered
 trademark of Gaussian, Inc.
  
 This software contains proprietary and confidential information,
 including trade secrets, belonging to Gaussian, Inc.
  
 This software is provided under written license and may be
 used, copied, transmitted, or stored only in accord with that
 written license.
  
 The following legend is applicable only to US Government
 contracts under FAR:
  
                    RESTRICTED RIGHTS LEGEND
  
 Use, reproduction and disclosure by the US Government is
 subject to restrictions as set forth in subparagraphs (a)
 and (c) of the Commercial Computer Software - Restricted
 Rights clause in FAR 52.227-19.
  
 Gaussian, Inc.
 340 Quinnipiac St., Bldg. 40, Wallingford CT 06492
  
  
 ---------------------------------------------------------------
 Warning -- This program may not be used in any manner that
 competes with the business of Gaussian, Inc. or will provide
 assistance to any competitor of Gaussian, Inc.  The licensee
 of this program is prohibited from giving any competitor of
 Gaussian, Inc. access to this program.  By using this program,
 the user acknowledges that Gaussian, Inc. is engaged in the
 business of creating and licensing software in the field of
 computational chemistry and represents and warrants to the
 licensee that it is not a competitor of Gaussian, Inc. and that
 it will not use this program in any manner prohibited above.
 ---------------------------------------------------------------
  

 Cite this work as:
 Gaussian 16, Revision C.01,
 M. J. Frisch, G. W. Trucks, H. B. Schlegel, G. E. Scuseria, 
 M. A. Robb, J. R. Cheeseman, G. Scalmani, V. Barone, 
 G. A. Petersson, H. Nakatsuji, X. Li, M. Caricato, A. V. Marenich, 
 J. Bloino, B. G. Janesko, R. Gomperts, B. Mennucci, H. P. Hratchian, 
 J. V. Ortiz, A. F. Izmaylov, J. L. Sonnenberg, D. Williams-Young, 
 F. Ding, F. Lipparini, F. Egidi, J. Goings, B. Peng, A. Petrone, 
 T. Henderson, D. Ranasinghe, V. G. Zakrzewski, J. Gao, N. Rega, 
 G. Zheng, W. Liang, M. Hada, M. Ehara, K. Toyota, R. Fukuda, 
 J. Hasegawa, M. Ishida, T. Nakajima, Y. Honda, O. Kitao, H. Nakai, 
 T. Vreven, K. Throssell, J. A. Montgomery, Jr., J. E. Peralta, 
 F. Ogliaro, M. J. Bearpark, J. J. Heyd, E. N. Brothers, K. N. Kudin, 
 V. N. Staroverov, T. A. Keith, R. Kobayashi, J. Normand, 
 K. Raghavachari, A. P. Rendell, J. C. Burant, S. S. Iyengar, 
 J. Tomasi, M. Cossi, J. M. Millam, M. Klene, C. Adamo, R. Cammi, 
 J. W. Ochterski, R. L. Martin, K. Morokuma, O. Farkas, 
 J. B. Foresman, and D. J. Fox, Gaussian, Inc., Wallingford CT, 2019.
 
 ******************************************
 Gaussian 16:  ES64L-G16RevC.01  3-Jul-2019
                27-Oct-2021 
 ******************************************
 %mem=100GB
 %nprocshared=8
 Will use up to    8 processors via shared memory.
 ----------------------------------
 # opt=modredundant mp2/aug-cc-pvdz
 ----------------------------------
 1/18=120,19=15,38=1/1,3;
 2/9=110,12=2,17=6,18=5,40=1/2;
 3/5=16,7=10,11=9,25=1,30=1,71=1/1,2,3;
 4//1;
 5/5=2,38=5/2;
 8/6=4,10=1/1;
 9/15=2,16=-3/6;
 10/5=1/2;
 6/7=2,8=2,9=2,10=2/1;
 7/12=2/1,2,3,16;
 1/18=20,19=15/3(2);
 2/9=110/2;
 99//99;
 2/9=110/2;
 3/5=16,7=10,11=9,25=1,30=1,71=1/1,2,3;
 4/5=5,16=3,69=1/1;
 5/5=2,38=5/2;
 8/6=4,10=1/1;
 9/15=2,16=-3/6;
 10/5=1/2;
 7/12=2/1,2,3,16;
 1/18=20,19=15/3(-8);
 2/9=110/2;
 6/7=2,8=2,9=2,10=2/1;
 99/9=10/99;
 --------------
 pBTTT_-110.pdb
 --------------
 Symbolic Z-matrix:
 Charge =  0 Multiplicity = 1
 C                     3.946     0.732     0.264 
 C                     2.543     0.965     0.478 
 C                     1.744     0.035    -0.094 
 C                     4.172    -0.382    -0.461 
 H                     4.726     1.376     0.644 
 S                     2.71     -1.172    -0.914 
 H                     5.125    -0.783    -0.761 
 C                     0.276    -0.04     -0.052 
 S                    -0.529    -1.307     0.868 
 C                    -2.084    -0.673     0.431 
 C                    -1.959     0.437    -0.353 
 C                    -0.603     0.802    -0.637 
 H                    -0.3       1.643    -1.24 
 S                    -3.516     1.073    -0.792 
 C                    -4.306    -0.196     0.107 
 C                    -3.444    -1.046     0.701 
 H                    -5.382    -0.232     0.141 
 H                    -3.747    -1.891     1.298 
 O                     2.057     2.011     1.179 
 H                     2.756     2.497     1.583 
 
 The following ModRedundant input section has been read:
 D       2       3       8       9 F                                           
 

 GradGradGradGradGradGradGradGradGradGradGradGradGradGradGradGradGradGrad
 Berny optimization.
 Initialization pass.
                           ----------------------------
                           !    Initial Parameters    !
                           ! (Angstroms and Degrees)  !
 --------------------------                            --------------------------
 ! Name  Definition              Value          Derivative Info.                !
 --------------------------------------------------------------------------------
 ! R1    R(1,2)                  1.4382         estimate D2E/DX2                !
 ! R2    R(1,4)                  1.3482         estimate D2E/DX2                !
 ! R3    R(1,5)                  1.0805         estimate D2E/DX2                !
 ! R4    R(2,3)                  1.353          estimate D2E/DX2                !
 ! R5    R(2,19)                 1.3497         estimate D2E/DX2                !
 ! R6    R(3,6)                  1.75           estimate D2E/DX2                !
 ! R7    R(3,8)                  1.4705         estimate D2E/DX2                !
 ! R8    R(4,6)                  1.7224         estimate D2E/DX2                !
 ! R9    R(4,7)                  1.0766         estimate D2E/DX2                !
 ! R10   R(8,9)                  1.7606         estimate D2E/DX2                !
 ! R11   R(8,12)                 1.3505         estimate D2E/DX2                !
 ! R12   R(9,10)                 1.7352         estimate D2E/DX2                !
 ! R13   R(10,11)                1.3647         estimate D2E/DX2                !
 ! R14   R(10,16)                1.4358         estimate D2E/DX2                !
 ! R15   R(11,12)                1.4327         estimate D2E/DX2                !
 ! R16   R(11,14)                1.7382         estimate D2E/DX2                !
 ! R17   R(12,13)                1.0783         estimate D2E/DX2                !
 ! R18   R(14,15)                1.7443         estimate D2E/DX2                !
 ! R19   R(15,16)                1.3485         estimate D2E/DX2                !
 ! R20   R(15,17)                1.0771         estimate D2E/DX2                !
 ! R21   R(16,18)                1.0781         estimate D2E/DX2                !
 ! R22   R(19,20)                0.9423         estimate D2E/DX2                !
 ! A1    A(2,1,4)              112.1725         estimate D2E/DX2                !
 ! A2    A(2,1,5)              123.7318         estimate D2E/DX2                !
 ! A3    A(4,1,5)              124.0955         estimate D2E/DX2                !
 ! A4    A(1,2,3)              113.6925         estimate D2E/DX2                !
 ! A5    A(1,2,19)             123.648          estimate D2E/DX2                !
 ! A6    A(3,2,19)             122.6593         estimate D2E/DX2                !
 ! A7    A(2,3,6)              110.2561         estimate D2E/DX2                !
 ! A8    A(2,3,8)              127.7729         estimate D2E/DX2                !
 ! A9    A(6,3,8)              121.9562         estimate D2E/DX2                !
 ! A10   A(1,4,6)              112.2173         estimate D2E/DX2                !
 ! A11   A(1,4,7)              127.3013         estimate D2E/DX2                !
 ! A12   A(6,4,7)              120.4806         estimate D2E/DX2                !
 ! A13   A(3,6,4)               91.6597         estimate D2E/DX2                !
 ! A14   A(3,8,9)              120.5358         estimate D2E/DX2                !
 ! A15   A(3,8,12)             127.2713         estimate D2E/DX2                !
 ! A16   A(9,8,12)             112.1749         estimate D2E/DX2                !
 ! A17   A(8,9,10)              90.8713         estimate D2E/DX2                !
 ! A18   A(9,10,11)            111.0868         estimate D2E/DX2                !
 ! A19   A(9,10,16)            134.9541         estimate D2E/DX2                !
 ! A20   A(11,10,16)           113.959          estimate D2E/DX2                !
 ! A21   A(10,11,12)           114.0661         estimate D2E/DX2                !
 ! A22   A(10,11,14)           111.1399         estimate D2E/DX2                !
 ! A23   A(12,11,14)           134.7896         estimate D2E/DX2                !
 ! A24   A(8,12,11)            111.7973         estimate D2E/DX2                !
 ! A25   A(8,12,13)            123.067          estimate D2E/DX2                !
 ! A26   A(11,12,13)           125.1356         estimate D2E/DX2                !
 ! A27   A(11,14,15)            90.5345         estimate D2E/DX2                !
 ! A28   A(14,15,16)           113.3341         estimate D2E/DX2                !
 ! A29   A(14,15,17)           119.5381         estimate D2E/DX2                !
 ! A30   A(16,15,17)           127.1277         estimate D2E/DX2                !
 ! A31   A(10,16,15)           111.0324         estimate D2E/DX2                !
 ! A32   A(10,16,18)           125.0268         estimate D2E/DX2                !
 ! A33   A(15,16,18)           123.9408         estimate D2E/DX2                !
 ! A34   A(2,19,20)            110.8091         estimate D2E/DX2                !
 ! D1    D(4,1,2,3)             -0.4738         estimate D2E/DX2                !
 ! D2    D(4,1,2,19)           179.6714         estimate D2E/DX2                !
 ! D3    D(5,1,2,3)            179.6747         estimate D2E/DX2                !
 ! D4    D(5,1,2,19)            -0.1801         estimate D2E/DX2                !
 ! D5    D(2,1,4,6)              0.4075         estimate D2E/DX2                !
 ! D6    D(2,1,4,7)           -179.9399         estimate D2E/DX2                !
 ! D7    D(5,1,4,6)           -179.7416         estimate D2E/DX2                !
 ! D8    D(5,1,4,7)             -0.089          estimate D2E/DX2                !
 ! D9    D(1,2,3,6)              0.3122         estimate D2E/DX2                !
 ! D10   D(1,2,3,8)            178.9177         estimate D2E/DX2                !
 ! D11   D(19,2,3,6)          -179.8314         estimate D2E/DX2                !
 ! D12   D(19,2,3,8)            -1.2259         estimate D2E/DX2                !
 ! D13   D(1,2,19,20)           -6.5348         estimate D2E/DX2                !
 ! D14   D(3,2,19,20)          173.6232         estimate D2E/DX2                !
 ! D15   D(2,3,6,4)             -0.0707         estimate D2E/DX2                !
 ! D16   D(8,3,6,4)           -178.7716         estimate D2E/DX2                !
 ! D17   D(2,3,8,9)           -109.9733         Frozen                          !
 ! D18   D(2,3,8,12)            68.3571         estimate D2E/DX2                !
 ! D19   D(6,3,8,9)             68.4848         estimate D2E/DX2                !
 ! D20   D(6,3,8,12)          -113.1849         estimate D2E/DX2                !
 ! D21   D(1,4,6,3)             -0.2009         estimate D2E/DX2                !
 ! D22   D(7,4,6,3)           -179.8803         estimate D2E/DX2                !
 ! D23   D(3,8,9,10)           178.9196         estimate D2E/DX2                !
 ! D24   D(12,8,9,10)            0.3543         estimate D2E/DX2                !
 ! D25   D(3,8,12,11)         -178.5179         estimate D2E/DX2                !
 ! D26   D(3,8,12,13)            1.38           estimate D2E/DX2                !
 ! D27   D(9,8,12,11)           -0.0708         estimate D2E/DX2                !
 ! D28   D(9,8,12,13)          179.8271         estimate D2E/DX2                !
 ! D29   D(8,9,10,11)           -0.5508         estimate D2E/DX2                !
 ! D30   D(8,9,10,16)          179.3477         estimate D2E/DX2                !
 ! D31   D(9,10,11,12)           0.6251         estimate D2E/DX2                !
 ! D32   D(9,10,11,14)         179.9826         estimate D2E/DX2                !
 ! D33   D(16,10,11,12)       -179.2963         estimate D2E/DX2                !
 ! D34   D(16,10,11,14)          0.0612         estimate D2E/DX2                !
 ! D35   D(9,10,16,15)        -179.956          estimate D2E/DX2                !
 ! D36   D(9,10,16,18)           0.058          estimate D2E/DX2                !
 ! D37   D(11,10,16,15)         -0.0596         estimate D2E/DX2                !
 ! D38   D(11,10,16,18)        179.9543         estimate D2E/DX2                !
 ! D39   D(10,11,12,8)          -0.3621         estimate D2E/DX2                !
 ! D40   D(10,11,12,13)        179.7426         estimate D2E/DX2                !
 ! D41   D(14,11,12,8)        -179.5176         estimate D2E/DX2                !
 ! D42   D(14,11,12,13)          0.587          estimate D2E/DX2                !
 ! D43   D(10,11,14,15)         -0.0365         estimate D2E/DX2                !
 ! D44   D(12,11,14,15)        179.1368         estimate D2E/DX2                !
 ! D45   D(11,14,15,16)          0.0026         estimate D2E/DX2                !
 ! D46   D(11,14,15,17)        179.8871         estimate D2E/DX2                !
 ! D47   D(14,15,16,10)          0.0303         estimate D2E/DX2                !
 ! D48   D(14,15,16,18)       -179.9835         estimate D2E/DX2                !
 ! D49   D(17,15,16,10)       -179.8437         estimate D2E/DX2                !
 ! D50   D(17,15,16,18)          0.1426         estimate D2E/DX2                !
 --------------------------------------------------------------------------------
 Trust Radius=3.00D-01 FncErr=1.00D-07 GrdErr=1.00D-07 EigMax=2.50D+02 EigMin=1.00D-04
 Number of steps in this run=    116 maximum allowed number of steps=    120.
 GradGradGradGradGradGradGradGradGradGradGradGradGradGradGradGradGradGrad

                          Input orientation:                          
 ---------------------------------------------------------------------
 Center     Atomic      Atomic             Coordinates (Angstroms)
 Number     Number       Type             X           Y           Z
 ---------------------------------------------------------------------
      1          6           0        3.946000    0.732000    0.264000
      2          6           0        2.543000    0.965000    0.478000
      3          6           0        1.744000    0.035000   -0.094000
      4          6           0        4.172000   -0.382000   -0.461000
      5          1           0        4.726000    1.376000    0.644000
      6         16           0        2.710000   -1.172000   -0.914000
      7          1           0        5.125000   -0.783000   -0.761000
      8          6           0        0.276000   -0.040000   -0.052000
      9         16           0       -0.529000   -1.307000    0.868000
     10          6           0       -2.084000   -0.673000    0.431000
     11          6           0       -1.959000    0.437000   -0.353000
     12          6           0       -0.603000    0.802000   -0.637000
     13          1           0       -0.300000    1.643000   -1.240000
     14         16           0       -3.516000    1.073000   -0.792000
     15          6           0       -4.306000   -0.196000    0.107000
     16          6           0       -3.444000   -1.046000    0.701000
     17          1           0       -5.382000   -0.232000    0.141000
     18          1           0       -3.747000   -1.891000    1.298000
     19          8           0        2.057000    2.011000    1.179000
     20          1           0        2.756000    2.497000    1.583000
 ---------------------------------------------------------------------
                    Distance matrix (angstroms):
                    1          2          3          4          5
     1  C    0.000000
     2  C    1.438226   0.000000
     3  C    2.337258   1.352954   0.000000
     4  C    1.348220   2.312957   2.490735   0.000000
     5  H    1.080526   2.227547   3.351902   2.149071   0.000000
     6  S    2.557459   2.555841   1.749973   1.722426   3.603321
     7  H    2.176210   3.355197   3.541917   1.076573   2.606628
     8  C    3.763607   2.535787   1.470515   3.932310   4.721437
     9  S    4.954590   3.840738   2.809437   4.972049   5.904548
    10  C    6.193772   4.908603   3.928164   6.325969   7.114764
    11  C    5.944471   4.608400   3.733751   6.186403   6.823852
    12  C    4.637898   3.341723   2.528151   4.922749   5.510778
    13  H    4.595699   3.390259   2.841992   4.970538   5.374144
    14  S    7.544061   6.191611   5.406685   7.831470   8.371647
    15  C    8.305500   6.956606   6.057744   8.499041   9.183495
    16  C    7.613432   6.319653   5.358725   7.732697   8.521633
    17  H    9.378486   8.021970   7.134871   9.574122  10.247455
    18  H    8.193384   6.956525   5.983161   8.251165   9.104545
    19  O    2.457923   1.349708   2.371302   3.590164   2.795176
    20  H    2.504214   1.900899   3.146096   3.804160   2.453418
                    6          7          8          9         10
     6  S    0.000000
     7  H    2.450909   0.000000
     8  C    2.819366   4.956564   0.000000
     9  S    3.699307   5.907278   1.760600   0.000000
    10  C    5.004045   7.307711   2.490698   1.735209   0.000000
    11  C    4.970228   7.199856   2.305072   2.564620   1.364691
    12  C    3.866442   5.944542   1.350493   2.591984   2.347256
    13  H    4.134078   5.962008   2.139067   3.632988   3.367306
    14  S    6.619515   8.838132   4.020651   4.164393   2.568048
    15  C    7.156764   9.489033   4.587411   4.009884   2.295602
    16  C    6.363632   8.696803   3.926505   2.931422   1.435837
    17  H    8.214444  10.560031   5.664546   5.023521   3.339968
    18  H    6.863145   9.174940   4.629604   3.298709   2.236243
    19  O    3.865042   4.580683   2.982268   4.218204   4.991116
    20  H    4.438320   4.675992   3.906404   5.076698   5.899288
                   11         12         13         14         15
    11  C    0.000000
    12  C    1.432696   0.000000
    13  H    2.234611   1.078285   0.000000
    14  S    1.738236   2.929682   3.296704   0.000000
    15  C    2.474004   3.906629   4.609161   1.744323   0.000000
    16  C    2.348495   3.643711   4.569785   2.593144   1.348473
    17  H    3.522574   4.951089   5.590126   2.460786   1.077139
    18  H    3.367837   4.569596   5.550893   3.634110   2.145690
    19  O    4.577418   3.440223   3.397416   5.985233   6.819663
    20  H    5.497538   4.368559   4.247091   6.856120   7.700823
                   16         17         18         19         20
    16  C    0.000000
    17  H    2.175325   0.000000
    18  H    1.078074   2.600799   0.000000
    19  O    6.311476   7.838827   6.994725   0.000000
    20  H    7.195191   8.703669   7.850145   0.942344   0.000000
 Stoichiometry    C10H6OS3
 Framework group  C1[X(C10H6OS3)]
 Deg. of freedom    54
 Full point group                 C1      NOp   1
 Largest Abelian subgroup         C1      NOp   1
 Largest concise Abelian subgroup C1      NOp   1
                         Standard orientation:                         
 ---------------------------------------------------------------------
 Center     Atomic      Atomic             Coordinates (Angstroms)
 Number     Number       Type             X           Y           Z
 ---------------------------------------------------------------------
      1          6           0        3.946164    0.731774    0.264057
      2          6           0        2.543174    0.964837    0.478057
      3          6           0        1.744133    0.034873   -0.093943
      4          6           0        4.172114   -0.382236   -0.460943
      5          1           0        4.726193    1.375739    0.644057
      6         16           0        2.710079   -1.172171   -0.913943
      7          1           0        5.125096   -0.783279   -0.760943
      8          6           0        0.276129   -0.040062   -0.051943
      9         16           0       -0.528928   -1.307025    0.868057
     10          6           0       -2.083899   -0.672956    0.431057
     11          6           0       -1.958849    0.437039   -0.352943
     12          6           0       -0.602833    0.801978   -0.636943
     13          1           0       -0.299795    1.642964   -1.239943
     14         16           0       -3.515821    1.073109   -0.791943
     15          6           0       -4.305878   -0.195856    0.107057
     16          6           0       -3.443916   -1.045895    0.701057
     17          1           0       -5.381879   -0.231808    0.141057
     18          1           0       -3.746954   -1.890881    1.298057
     19          8           0        2.057221    2.010858    1.179057
     20          1           0        2.756243    2.496827    1.583057
 ---------------------------------------------------------------------
 Rotational constants (GHZ):           1.3154397           0.2651864           0.2467157
 Standard basis: Aug-CC-pVDZ (5D, 7F)
 There are   416 symmetry adapted cartesian basis functions of A   symmetry.
 There are   388 symmetry adapted basis functions of A   symmetry.
   388 basis functions,   782 primitive gaussians,   416 cartesian basis functions
    61 alpha electrons       61 beta electrons
       nuclear repulsion energy      1126.8409105073 Hartrees.
 NAtoms=   20 NActive=   20 NUniq=   20 SFac= 1.00D+00 NAtFMM=   60 NAOKFM=F Big=F
 Integral buffers will be    131072 words long.
 Raffenetti 1 integral format.
 Two-electron integral symmetry is turned on.
 One-electron integrals computed using PRISM.
 NBasis=   388 RedAO= T EigKep=  3.54D-06  NBF=   388
 NBsUse=   388 1.00D-06 EigRej= -1.00D+00 NBFU=   388
 ExpMin= 2.97D-02 ExpMax= 1.11D+05 ExpMxC= 1.07D+03 IAcc=3 IRadAn=         5 AccDes= 0.00D+00
 Harris functional with IExCor=  205 and IRadAn=       5 diagonalized for initial guess.
 HarFok:  IExCor=  205 AccDes= 0.00D+00 IRadAn=         5 IDoV= 1 UseB2=F ITyADJ=14
 ICtDFT=  3500011 ScaDFX=  1.000000  1.000000  1.000000  1.000000
 FoFCou: FMM=F IPFlag=           0 FMFlag=      100000 FMFlg1=           0
         NFxFlg=           0 DoJE=T BraDBF=F KetDBF=T FulRan=T
         wScrn=  0.000000 ICntrl=       500 IOpCl=  0 I1Cent=   200000004 NGrid=           0
         NMat0=    1 NMatS0=      1 NMatT0=    0 NMatD0=    1 NMtDS0=    0 NMtDT0=    0
 Petite list used in FoFCou.
 Requested convergence on RMS density matrix=1.00D-08 within 128 cycles.
 Requested convergence on MAX density matrix=1.00D-06.
 Requested convergence on             energy=1.00D-06.
 No special actions if energy rises.
 SCF Done:  E(RHF) =  -1649.64169263     A.U. after   17 cycles
            NFock= 17  Conv=0.59D-08     -V/T= 2.0000
 ExpMin= 2.97D-02 ExpMax= 1.11D+05 ExpMxC= 1.07D+03 IAcc=3 IRadAn=         5 AccDes= 0.00D+00
 HarFok:  IExCor=  205 AccDes= 0.00D+00 IRadAn=         5 IDoV=-2 UseB2=F ITyADJ=14
 ICtDFT= 12500011 ScaDFX=  1.000000  1.000000  1.000000  1.000000
 GSVD:  LWork=        -884 too small for GESVD, short by        3770 words or        3770 for optimal perf.
 Range of M.O.s used for correlation:    27   388
 NBasis=   388 NAE=    61 NBE=    61 NFC=    26 NFV=     0
 NROrb=    362 NOA=    35 NOB=    35 NVA=   327 NVB=   327

 **** Warning!!: The largest alpha MO coefficient is  0.85729497D+02

 Fully direct method using O(ONN) memory.
 JobTyp=1 Pass  1:  I=  27 to  61 NPSUse=  8 ParTrn=T ParDer=T DoDerP=T.
 Spin components of T(2) and E(2):
     alpha-alpha T2 =       0.1135015622D+00 E2=     -0.2737642610D+00
     alpha-beta  T2 =       0.5539523997D+00 E2=     -0.1420577482D+01
     beta-beta   T2 =       0.1135015622D+00 E2=     -0.2737642610D+00
 ANorm=    0.1334524456D+01
 E2 =    -0.1968106004D+01 EUMP2 =    -0.16516097986309D+04
          IDoAtm=11111111111111111111
          Differentiating once with respect to electric field.
                with respect to dipole field.
          Differentiating once with respect to nuclear coordinates.
 Keep R1 ints in memory in canonical form, NReq=2883857471.
          There are     1 degrees of freedom in the 1st order CPHF.  IDoFFX=0 NUNeed=     1.
 LinEq1:  Iter=  0 NonCon=     1 RMS=2.87D-03 Max=5.84D-02 NDo=     1
 AX will form     1 AO Fock derivatives at one time.
 LinEq1:  Iter=  1 NonCon=     1 RMS=6.77D-04 Max=8.94D-03 NDo=     1
 LinEq1:  Iter=  2 NonCon=     1 RMS=3.47D-04 Max=9.34D-03 NDo=     1
 LinEq1:  Iter=  3 NonCon=     1 RMS=9.14D-05 Max=1.61D-03 NDo=     1
 LinEq1:  Iter=  4 NonCon=     1 RMS=3.72D-05 Max=6.52D-04 NDo=     1
 LinEq1:  Iter=  5 NonCon=     1 RMS=1.50D-05 Max=3.22D-04 NDo=     1
 LinEq1:  Iter=  6 NonCon=     1 RMS=6.46D-06 Max=1.88D-04 NDo=     1
 LinEq1:  Iter=  7 NonCon=     1 RMS=2.85D-06 Max=5.78D-05 NDo=     1
 LinEq1:  Iter=  8 NonCon=     1 RMS=1.08D-06 Max=2.30D-05 NDo=     1
 LinEq1:  Iter=  9 NonCon=     1 RMS=4.24D-07 Max=8.71D-06 NDo=     1
 LinEq1:  Iter= 10 NonCon=     1 RMS=1.62D-07 Max=2.87D-06 NDo=     1
 LinEq1:  Iter= 11 NonCon=     1 RMS=6.49D-08 Max=2.37D-06 NDo=     1
 LinEq1:  Iter= 12 NonCon=     1 RMS=2.38D-08 Max=4.69D-07 NDo=     1
 LinEq1:  Iter= 13 NonCon=     1 RMS=9.39D-09 Max=1.62D-07 NDo=     1
 LinEq1:  Iter= 14 NonCon=     1 RMS=3.04D-09 Max=4.25D-08 NDo=     1
 LinEq1:  Iter= 15 NonCon=     1 RMS=1.15D-09 Max=1.99D-08 NDo=     1
 LinEq1:  Iter= 16 NonCon=     1 RMS=4.22D-10 Max=7.43D-09 NDo=     1
 LinEq1:  Iter= 17 NonCon=     1 RMS=1.85D-10 Max=5.65D-09 NDo=     1
 LinEq1:  Iter= 18 NonCon=     1 RMS=7.40D-11 Max=1.86D-09 NDo=     1
 LinEq1:  Iter= 19 NonCon=     0 RMS=2.71D-11 Max=4.29D-10 NDo=     1
 Linear equations converged to 1.000D-10 1.000D-09 after    19 iterations.
 End of Minotr F.D. properties file   721 does not exist.
 End of Minotr F.D. properties file   722 does not exist.
 End of Minotr F.D. properties file   788 does not exist.

 **********************************************************************

            Population analysis using the SCF Density.

 **********************************************************************

 Orbital symmetries:
       Occupied  (A) (A) (A) (A) (A) (A) (A) (A) (A) (A) (A) (A)
                 (A) (A) (A) (A) (A) (A) (A) (A) (A) (A) (A) (A)
                 (A) (A) (A) (A) (A) (A) (A) (A) (A) (A) (A) (A)
                 (A) (A) (A) (A) (A) (A) (A) (A) (A) (A) (A) (A)
                 (A) (A) (A) (A) (A) (A) (A) (A) (A) (A) (A) (A)
                 (A)
       Virtual   (A) (A) (A) (A) (A) (A) (A) (A) (A) (A) (A) (A)
                 (A) (A) (A) (A) (A) (A) (A) (A) (A) (A) (A) (A)
                 (A) (A) (A) (A) (A) (A) (A) (A) (A) (A) (A) (A)
                 (A) (A) (A) (A) (A) (A) (A) (A) (A) (A) (A) (A)
                 (A) (A) (A) (A) (A) (A) (A) (A) (A) (A) (A) (A)
                 (A) (A) (A) (A) (A) (A) (A) (A) (A) (A) (A) (A)
                 (A) (A) (A) (A) (A) (A) (A) (A) (A) (A) (A) (A)
                 (A) (A) (A) (A) (A) (A) (A) (A) (A) (A) (A) (A)
                 (A) (A) (A) (A) (A) (A) (A) (A) (A) (A) (A) (A)
                 (A) (A) (A) (A) (A) (A) (A) (A) (A) (A) (A) (A)
                 (A) (A) (A) (A) (A) (A) (A) (A) (A) (A) (A) (A)
                 (A) (A) (A) (A) (A) (A) (A) (A) (A) (A) (A) (A)
                 (A) (A) (A) (A) (A) (A) (A) (A) (A) (A) (A) (A)
                 (A) (A) (A) (A) (A) (A) (A) (A) (A) (A) (A) (A)
                 (A) (A) (A) (A) (A) (A) (A) (A) (A) (A) (A) (A)
                 (A) (A) (A) (A) (A) (A) (A) (A) (A) (A) (A) (A)
                 (A) (A) (A) (A) (A) (A) (A) (A) (A) (A) (A) (A)
                 (A) (A) (A) (A) (A) (A) (A) (A) (A) (A) (A) (A)
                 (A) (A) (A) (A) (A) (A) (A) (A) (A) (A) (A) (A)
                 (A) (A) (A) (A) (A) (A) (A) (A) (A) (A) (A) (A)
                 (A) (A) (A) (A) (A) (A) (A) (A) (A) (A) (A) (A)
                 (A) (A) (A) (A) (A) (A) (A) (A) (A) (A) (A) (A)
                 (A) (A) (A) (A) (A) (A) (A) (A) (A) (A) (A) (A)
                 (A) (A) (A) (A) (A) (A) (A) (A) (A) (A) (A) (A)
                 (A) (A) (A) (A) (A) (A) (A) (A) (A) (A) (A) (A)
                 (A) (A) (A) (A) (A) (A) (A) (A) (A) (A) (A) (A)
                 (A) (A) (A) (A) (A) (A) (A) (A) (A) (A) (A) (A)
                 (A) (A) (A)
 The electronic state is 1-A.
 Alpha  occ. eigenvalues --  -91.98954 -91.98651 -91.98458 -20.60962 -11.31791
 Alpha  occ. eigenvalues --  -11.28388 -11.28365 -11.27417 -11.26919 -11.26864
 Alpha  occ. eigenvalues --  -11.26707 -11.25490 -11.25434 -11.25277  -8.99145
 Alpha  occ. eigenvalues --   -8.98833  -8.98623  -6.67313  -6.67220  -6.67022
 Alpha  occ. eigenvalues --   -6.67000  -6.66922  -6.66787  -6.66715  -6.66705
 Alpha  occ. eigenvalues --   -6.66497  -1.42972  -1.21271  -1.18401  -1.12586
 Alpha  occ. eigenvalues --   -1.02877  -1.01993  -0.98613  -0.95624  -0.94236
 Alpha  occ. eigenvalues --   -0.82569  -0.81122  -0.77005  -0.74968  -0.72254
 Alpha  occ. eigenvalues --   -0.69665  -0.66797  -0.66479  -0.62126  -0.61044
 Alpha  occ. eigenvalues --   -0.58299  -0.56329  -0.56026  -0.53818  -0.53131
 Alpha  occ. eigenvalues --   -0.52708  -0.50651  -0.49292  -0.48607  -0.46018
 Alpha  occ. eigenvalues --   -0.45819  -0.38411  -0.35005  -0.32985  -0.31712
 Alpha  occ. eigenvalues --   -0.29520
 Alpha virt. eigenvalues --    0.02760   0.03716   0.03962   0.04966   0.05093
 Alpha virt. eigenvalues --    0.06233   0.08075   0.08328   0.08638   0.09043
 Alpha virt. eigenvalues --    0.09946   0.10255   0.10444   0.10938   0.11355
 Alpha virt. eigenvalues --    0.12356   0.12508   0.12682   0.12953   0.13599
 Alpha virt. eigenvalues --    0.13749   0.14110   0.14426   0.14677   0.15009
 Alpha virt. eigenvalues --    0.15457   0.16026   0.16203   0.16462   0.16722
 Alpha virt. eigenvalues --    0.17580   0.18107   0.18287   0.18617   0.19499
 Alpha virt. eigenvalues --    0.19680   0.20206   0.20585   0.20927   0.21074
 Alpha virt. eigenvalues --    0.21874   0.22241   0.23076   0.23238   0.23474
 Alpha virt. eigenvalues --    0.23879   0.24400   0.24744   0.24916   0.25807
 Alpha virt. eigenvalues --    0.26624   0.27128   0.27834   0.27865   0.28000
 Alpha virt. eigenvalues --    0.28789   0.30028   0.30744   0.31265   0.31676
 Alpha virt. eigenvalues --    0.32087   0.32363   0.32690   0.33004   0.33175
 Alpha virt. eigenvalues --    0.33901   0.34808   0.35135   0.35373   0.35948
 Alpha virt. eigenvalues --    0.36501   0.37214   0.37380   0.38786   0.39216
 Alpha virt. eigenvalues --    0.40149   0.40619   0.40814   0.41414   0.42214
 Alpha virt. eigenvalues --    0.43418   0.43623   0.44673   0.45294   0.45580
 Alpha virt. eigenvalues --    0.45933   0.46453   0.46861   0.48257   0.48714
 Alpha virt. eigenvalues --    0.49216   0.49596   0.50049   0.51274   0.51905
 Alpha virt. eigenvalues --    0.53088   0.54175   0.54465   0.54845   0.55139
 Alpha virt. eigenvalues --    0.56144   0.57505   0.58620   0.59061   0.59632
 Alpha virt. eigenvalues --    0.60318   0.60948   0.61412   0.61946   0.62353
 Alpha virt. eigenvalues --    0.62670   0.63460   0.64610   0.64875   0.65995
 Alpha virt. eigenvalues --    0.66192   0.67154   0.67741   0.68463   0.68619
 Alpha virt. eigenvalues --    0.68991   0.69577   0.70257   0.70482   0.70856
 Alpha virt. eigenvalues --    0.72169   0.72266   0.72926   0.73507   0.74204
 Alpha virt. eigenvalues --    0.74269   0.75104   0.75580   0.76317   0.76550
 Alpha virt. eigenvalues --    0.77118   0.77889   0.78532   0.78913   0.79902
 Alpha virt. eigenvalues --    0.81269   0.81836   0.82994   0.83318   0.84086
 Alpha virt. eigenvalues --    0.85333   0.85487   0.86135   0.87468   0.88060
 Alpha virt. eigenvalues --    0.88442   0.89237   0.89698   0.90984   0.91573
 Alpha virt. eigenvalues --    0.92230   0.92528   0.93638   0.94233   0.95461
 Alpha virt. eigenvalues --    0.95858   0.96389   0.96834   0.97331   0.98286
 Alpha virt. eigenvalues --    0.99440   0.99716   1.00725   1.02914   1.03680
 Alpha virt. eigenvalues --    1.04491   1.04875   1.06016   1.06862   1.07942
 Alpha virt. eigenvalues --    1.09585   1.09599   1.10398   1.11359   1.12609
 Alpha virt. eigenvalues --    1.13508   1.14480   1.17589   1.18147   1.19053
 Alpha virt. eigenvalues --    1.20128   1.21331   1.22337   1.22593   1.23655
 Alpha virt. eigenvalues --    1.25079   1.25283   1.25336   1.25769   1.26770
 Alpha virt. eigenvalues --    1.28066   1.29146   1.30041   1.30860   1.32309
 Alpha virt. eigenvalues --    1.33144   1.34520   1.34783   1.36822   1.37035
 Alpha virt. eigenvalues --    1.38003   1.38754   1.41013   1.41894   1.42125
 Alpha virt. eigenvalues --    1.43147   1.44962   1.45676   1.47122   1.49222
 Alpha virt. eigenvalues --    1.50789   1.54411   1.54935   1.55898   1.56906
 Alpha virt. eigenvalues --    1.57078   1.58393   1.59400   1.60482   1.61579
 Alpha virt. eigenvalues --    1.62163   1.63386   1.65058   1.65837   1.66670
 Alpha virt. eigenvalues --    1.67032   1.69519   1.70380   1.71376   1.72407
 Alpha virt. eigenvalues --    1.73741   1.74483   1.75729   1.76301   1.77143
 Alpha virt. eigenvalues --    1.79762   1.80329   1.81535   1.82067   1.84552
 Alpha virt. eigenvalues --    1.86158   1.86242   1.87924   1.88582   1.90196
 Alpha virt. eigenvalues --    1.91927   1.92156   1.94160   1.95364   1.97244
 Alpha virt. eigenvalues --    1.98077   1.99405   2.02099   2.03438   2.04861
 Alpha virt. eigenvalues --    2.06145   2.07806   2.08641   2.08898   2.09993
 Alpha virt. eigenvalues --    2.10864   2.12557   2.13732   2.14984   2.16072
 Alpha virt. eigenvalues --    2.17491   2.18785   2.19959   2.20367   2.21829
 Alpha virt. eigenvalues --    2.23361   2.25714   2.28091   2.28881   2.30686
 Alpha virt. eigenvalues --    2.32581   2.33360   2.33660   2.35505   2.37935
 Alpha virt. eigenvalues --    2.40453   2.41475   2.42888   2.45282   2.45909
 Alpha virt. eigenvalues --    2.47681   2.49892   2.50502   2.51286   2.52979
 Alpha virt. eigenvalues --    2.56847   2.58431   2.60802   2.62886   2.66680
 Alpha virt. eigenvalues --    2.74372   2.81814   2.84384   2.86525   2.87777
 Alpha virt. eigenvalues --    2.92289   2.92992   2.98691   3.00118   3.03761
 Alpha virt. eigenvalues --    3.10762   3.17629   3.24924   3.26039   3.35361
 Alpha virt. eigenvalues --    3.43662   3.53328   3.58281   3.63454   3.76133
 Alpha virt. eigenvalues --    3.77980   3.80536   3.87378   3.87972   4.22941
 Alpha virt. eigenvalues --    4.24424   4.48525
          Condensed to atoms (all electrons):
               1          2          3          4          5          6
     1  C    7.578833  -1.844382  -0.088776   0.035238  -0.168227  -0.533493
     2  C   -1.844382   9.825794  -1.798182   0.500663   0.178746  -0.248883
     3  C   -0.088776  -1.798182  11.688853  -1.391428  -0.069055  -0.135730
     4  C    0.035238   0.500663  -1.391428   6.520231   0.001708   0.426008
     5  H   -0.168227   0.178746  -0.069055   0.001708   1.654477  -0.015178
     6  S   -0.533493  -0.248883  -0.135730   0.426008  -0.015178  16.350335
     7  H    0.011214   0.045955   0.059516   0.192363  -0.068371  -0.161507
     8  C    0.513908  -0.623928  -2.110082   0.210491   0.026351  -0.302265
     9  S   -0.025473   0.046896  -0.682578   0.038884  -0.003330   0.230464
    10  C    0.017705   0.057713  -0.440434   0.023107   0.001465   0.018564
    11  C   -0.044590  -0.114243   0.592240  -0.005636  -0.002963   0.061765
    12  C   -0.069114   0.376401  -0.255176  -0.110270  -0.003555  -0.129028
    13  H    0.005732  -0.019807   0.090325   0.005541   0.000656   0.014960
    14  S    0.000235   0.008747  -0.078325  -0.000909  -0.000013   0.003103
    15  C   -0.001165  -0.011662   0.035370   0.000791  -0.000058   0.004990
    16  C    0.002035   0.027221  -0.374742  -0.002330  -0.000027  -0.000060
    17  H   -0.000074   0.000149  -0.000216   0.000040  -0.000004   0.000178
    18  H   -0.000091   0.000031  -0.011371  -0.000050  -0.000012   0.001263
    19  O    0.102143  -0.703908   0.333217  -0.095014  -0.070508  -0.000473
    20  H   -0.143636   0.005858  -0.035819  -0.015835  -0.010922   0.017244
               7          8          9         10         11         12
     1  C    0.011214   0.513908  -0.025473   0.017705  -0.044590  -0.069114
     2  C    0.045955  -0.623928   0.046896   0.057713  -0.114243   0.376401
     3  C    0.059516  -2.110082  -0.682578  -0.440434   0.592240  -0.255176
     4  C    0.192363   0.210491   0.038884   0.023107  -0.005636  -0.110270
     5  H   -0.068371   0.026351  -0.003330   0.001465  -0.002963  -0.003555
     6  S   -0.161507  -0.302265   0.230464   0.018564   0.061765  -0.129028
     7  H    1.261585  -0.011492   0.002701   0.000324   0.001075   0.002794
     8  C   -0.011492  12.098457   0.310400   0.182604  -0.753472  -3.392763
     9  S    0.002701   0.310400  16.460609   0.304433  -0.468176  -0.482629
    10  C    0.000324   0.182604   0.304433  10.747959  -0.544709  -1.618208
    11  C    0.001075  -0.753472  -0.468176  -0.544709  11.854304  -2.803585
    12  C    0.002794  -3.392763  -0.482629  -1.618208  -2.803585  15.221289
    13  H    0.000353   0.220484   0.035101  -0.063430   0.617258  -1.061791
    14  S   -0.000075  -0.258268   0.094915  -0.107813  -0.298240   0.050428
    15  C    0.000069   0.075604  -0.094322  -0.104693  -0.948684  -0.171699
    16  C   -0.000068  -0.653597  -0.188094  -2.292233  -1.026795   0.434927
    17  H    0.000004   0.002123   0.007762   0.057296  -0.040045   0.034544
    18  H    0.000005   0.115901   0.011000   0.577375   0.052628  -0.072924
    19  O   -0.001218  -0.017676   0.006819  -0.003696   0.038874  -0.038006
    20  H    0.001260   0.010385  -0.001108   0.001274  -0.000826   0.004745
              13         14         15         16         17         18
     1  C    0.005732   0.000235  -0.001165   0.002035  -0.000074  -0.000091
     2  C   -0.019807   0.008747  -0.011662   0.027221   0.000149   0.000031
     3  C    0.090325  -0.078325   0.035370  -0.374742  -0.000216  -0.011371
     4  C    0.005541  -0.000909   0.000791  -0.002330   0.000040  -0.000050
     5  H    0.000656  -0.000013  -0.000058  -0.000027  -0.000004  -0.000012
     6  S    0.014960   0.003103   0.004990  -0.000060   0.000178   0.001263
     7  H    0.000353  -0.000075   0.000069  -0.000068   0.000004   0.000005
     8  C    0.220484  -0.258268   0.075604  -0.653597   0.002123   0.115901
     9  S    0.035101   0.094915  -0.094322  -0.188094   0.007762   0.011000
    10  C   -0.063430  -0.107813  -0.104693  -2.292233   0.057296   0.577375
    11  C    0.617258  -0.298240  -0.948684  -1.026795  -0.040045   0.052628
    12  C   -1.061791   0.050428  -0.171699   0.434927   0.034544  -0.072924
    13  H    1.630984  -0.042704   0.015568  -0.037525   0.001710  -0.001327
    14  S   -0.042704  15.988847   0.191546  -0.017884  -0.160364  -0.004950
    15  C    0.015568   0.191546   6.900899   0.124576   0.186547  -0.116661
    16  C   -0.037525  -0.017884   0.124576   9.939491   0.063953  -0.592895
    17  H    0.001710  -0.160364   0.186547   0.063953   1.291585  -0.068542
    18  H   -0.001327  -0.004950  -0.116661  -0.592895  -0.068542   1.435088
    19  O    0.010554  -0.003262  -0.000056  -0.001670  -0.000054   0.000138
    20  H   -0.000265   0.000421  -0.000029   0.000609   0.000010   0.000026
              19         20
     1  C    0.102143  -0.143636
     2  C   -0.703908   0.005858
     3  C    0.333217  -0.035819
     4  C   -0.095014  -0.015835
     5  H   -0.070508  -0.010922
     6  S   -0.000473   0.017244
     7  H   -0.001218   0.001260
     8  C   -0.017676   0.010385
     9  S    0.006819  -0.001108
    10  C   -0.003696   0.001274
    11  C    0.038874  -0.000826
    12  C   -0.038006   0.004745
    13  H    0.010554  -0.000265
    14  S   -0.003262   0.000421
    15  C   -0.000056  -0.000029
    16  C   -0.001670   0.000609
    17  H   -0.000054   0.000010
    18  H    0.000138   0.000026
    19  O    8.993046   0.377578
    20  H    0.377578   0.628405
 Mulliken charges:
               1
     1  C    0.651977
     2  C    0.290823
     3  C    0.672393
     4  C   -0.333594
     5  H   -0.451180
     6  S    0.397742
     7  H   -0.336486
     8  C    0.356835
     9  S    0.395725
    10  C   -0.814603
    11  C   -0.166180
    12  C    0.083621
    13  H   -0.422376
    14  S    0.634566
    15  C   -0.086932
    16  C    0.595108
    17  H   -0.376603
    18  H   -0.324633
    19  O   -0.926827
    20  H    0.160626
 Sum of Mulliken charges =  -0.00000
 Mulliken charges with hydrogens summed into heavy atoms:
               1
     1  C    0.200797
     2  C    0.290823
     3  C    0.672393
     4  C   -0.670079
     6  S    0.397742
     8  C    0.356835
     9  S    0.395725
    10  C   -0.814603
    11  C   -0.166180
    12  C   -0.338756
    14  S    0.634566
    15  C   -0.463535
    16  C    0.270475
    19  O   -0.766201
 Electronic spatial extent (au):  <R**2>=           4299.5450
 Charge=             -0.0000 electrons
 Dipole moment (field-independent basis, Debye):
    X=              2.1394    Y=              1.0410    Z=              0.7436  Tot=              2.4927
 Quadrupole moment (field-independent basis, Debye-Ang):
   XX=            -77.4019   YY=           -100.1432   ZZ=           -105.3204
   XY=              9.3444   XZ=              0.7115   YZ=              0.2415
 Traceless Quadrupole moment (field-independent basis, Debye-Ang):
   XX=             16.8866   YY=             -5.8547   ZZ=            -11.0319
   XY=              9.3444   XZ=              0.7115   YZ=              0.2415
 Octapole moment (field-independent basis, Debye-Ang**2):
  XXX=             46.2598  YYY=             20.5156  ZZZ=             10.0592  XYY=             19.5074
  XXY=              6.4186  XXZ=             22.1678  XZZ=             10.8793  YZZ=              7.9827
  YYZ=             10.6171  XYZ=             26.3707
 Hexadecapole moment (field-independent basis, Debye-Ang**3):
 XXXX=          -3989.6514 YYYY=           -748.1610 ZZZZ=           -441.4851 XXXY=            117.1547
 XXXZ=            -15.6514 YYYX=             81.2434 YYYZ=             25.2209 ZZZX=             25.2295
 ZZZY=             18.6582 XXYY=           -866.5636 XXZZ=           -893.0397 YYZZ=           -173.8814
 XXYZ=             50.9612 YYXZ=             24.0476 ZZXY=             31.9643
 N-N= 1.126840910507D+03 E-N=-6.161139646591D+03  KE= 1.649562278582D+03
 Calling FoFJK, ICntrl=  10002127 FMM=F ISym2X=0 I1Cent= 0 IOpClX= 0 NMat=1 NMatS=1 NMatT=0.
 ***** Axes restored to original set *****
 -------------------------------------------------------------------
 Center     Atomic                   Forces (Hartrees/Bohr)
 Number     Number              X              Y              Z
 -------------------------------------------------------------------
      1        6          -0.016029014    0.025258157    0.016644226
      2        6           0.038321283    0.016069418    0.008277631
      3        6          -0.028139039   -0.028138491   -0.014806365
      4        6           0.003536623   -0.025133359   -0.016009374
      5        1           0.006857267    0.005601771    0.003296436
      6       16          -0.004726927   -0.005075231   -0.002848380
      7        1           0.008388920   -0.004970588   -0.003583845
      8        6           0.030154374   -0.020914654    0.014490073
      9       16           0.004187721   -0.007146135    0.004371100
     10        6          -0.008415822   -0.033724664    0.023781320
     11        6           0.008959048    0.034021922   -0.023732098
     12        6          -0.030526182    0.019909629   -0.013077980
     13        1           0.003403591    0.007491728   -0.005522498
     14       16          -0.002377639    0.006255710   -0.004402157
     15        6          -0.015520329    0.020381721   -0.014214356
     16        6           0.028489928   -0.017905912    0.012266019
     17        1          -0.010193987    0.000662995   -0.000388097
     18        1          -0.002949515   -0.007618074    0.005424406
     19        8          -0.034401288    0.003179995    0.000128318
     20        1           0.020980987    0.011794061    0.009905622
 -------------------------------------------------------------------
 Cartesian Forces:  Max     0.038321283 RMS     0.016841122

 GradGradGradGradGradGradGradGradGradGradGradGradGradGradGradGradGradGrad
 Berny optimization.
 FormGI is forming the generalized inverse of G from B-inverse, IUseBI=4.
 Internal  Forces:  Max     0.042781048 RMS     0.009860376
 Search for a local minimum.
 Step number   1 out of a maximum of  116
 All quantities printed in internal units (Hartrees-Bohrs-Radians)
 Mixed Optimization -- RFO/linear search
 Second derivative matrix not updated -- first step.
 ITU=  0
     Eigenvalues ---    0.01462   0.01579   0.01626   0.01697   0.01750
     Eigenvalues ---    0.01754   0.01985   0.02012   0.02065   0.02136
     Eigenvalues ---    0.02215   0.02293   0.02329   0.02357   0.02383
     Eigenvalues ---    0.02445   0.16000   0.16000   0.16000   0.16000
     Eigenvalues ---    0.16000   0.16000   0.22525   0.22565   0.23647
     Eigenvalues ---    0.24761   0.24783   0.24991   0.24992   0.24997
     Eigenvalues ---    0.25000   0.29010   0.29880   0.30348   0.30953
     Eigenvalues ---    0.31288   0.32523   0.35679   0.35931   0.36202
     Eigenvalues ---    0.36228   0.36342   0.36412   0.38819   0.39069
     Eigenvalues ---    0.39464   0.45817   0.50742   0.52760   0.53828
     Eigenvalues ---    0.54374   0.55083   0.594511000.000001000.00000
     Eigenvalues --- 1000.000001000.000001000.000001000.000001000.00000
     Eigenvalues --- 1000.000001000.000001000.000001000.000001000.00000
     Eigenvalues --- 1000.000001000.000001000.000001000.000001000.00000
     Eigenvalues --- 1000.000001000.000001000.000001000.000001000.00000
     Eigenvalues --- 1000.000001000.000001000.000001000.000001000.00000
     Eigenvalues --- 1000.000001000.000001000.000001000.000001000.00000
     Eigenvalues --- 1000.000001000.000001000.000001000.000001000.00000
     Eigenvalues --- 1000.000001000.000001000.000001000.000001000.00000
     Eigenvalues --- 1000.000001000.000001000.000001000.000001000.00000
     Eigenvalues --- 1000.000001000.000001000.000001000.000001000.00000
     Eigenvalues --- 1000.00000
 RFO step:  Lambda=-1.93167658D-02 EMin= 1.46213335D-02
 Linear search not attempted -- first point.
 Iteration  1 RMS(Cart)=  0.02530277 RMS(Int)=  0.00013832
 Iteration  2 RMS(Cart)=  0.00026816 RMS(Int)=  0.00004343
 Iteration  3 RMS(Cart)=  0.00000004 RMS(Int)=  0.00004343
 Iteration  1 RMS(Cart)=  0.00000503 RMS(Int)=  0.00000205
 Iteration  2 RMS(Cart)=  0.00000276 RMS(Int)=  0.00000229
 Iteration  3 RMS(Cart)=  0.00000151 RMS(Int)=  0.00000258
 Iteration  4 RMS(Cart)=  0.00000083 RMS(Int)=  0.00000278
 Variable       Old X    -DE/DX   Delta X   Delta X   Delta X     New X
                                 (Linear)    (Quad)   (Total)
    R1        2.71785  -0.00260   0.00000  -0.00383  -0.00377   2.71408
    R2        2.54777   0.03972   0.00000   0.07011   0.07015   2.61791
    R3        2.04190   0.00945   0.00000   0.02495   0.02495   2.06685
    R4        2.55671   0.03983   0.00000   0.07125   0.07126   2.62797
    R5        2.55058   0.02165   0.00000   0.03797   0.03797   2.58855
    R6        3.30697   0.00273   0.00000   0.00596   0.00591   3.31288
    R7        2.77887  -0.00530   0.00000  -0.01410  -0.01410   2.76477
    R8        3.25491   0.00686   0.00000   0.01764   0.01761   3.27252
    R9        2.03443   0.01028   0.00000   0.02680   0.02680   2.06123
   R10        3.32705   0.00600   0.00000   0.01636   0.01630   3.34336
   R11        2.55206   0.04051   0.00000   0.07166   0.07168   2.62374
   R12        3.27907   0.00607   0.00000   0.01611   0.01607   3.29514
   R13        2.57889   0.04278   0.00000   0.08152   0.08159   2.66048
   R14        2.71334  -0.00244   0.00000  -0.00341  -0.00335   2.70999
   R15        2.70740  -0.00344   0.00000  -0.00565  -0.00559   2.70182
   R16        3.28479   0.00506   0.00000   0.01344   0.01341   3.29820
   R17        2.03766   0.00989   0.00000   0.02593   0.02593   2.06359
   R18        3.29629   0.00660   0.00000   0.01735   0.01731   3.31360
   R19        2.54825   0.03924   0.00000   0.06876   0.06877   2.61701
   R20        2.03550   0.01015   0.00000   0.02652   0.02652   2.06201
   R21        2.03726   0.00980   0.00000   0.02569   0.02569   2.06296
   R22        1.78077   0.02589   0.00000   0.04218   0.04218   1.82295
    A1        1.95778  -0.00200   0.00000  -0.00203  -0.00194   1.95584
    A2        2.15953   0.00106   0.00000   0.00132   0.00127   2.16080
    A3        2.16587   0.00095   0.00000   0.00071   0.00066   2.16653
    A4        1.98431  -0.00424   0.00000  -0.01084  -0.01076   1.97355
    A5        2.15806   0.00746   0.00000   0.02525   0.02521   2.18327
    A6        2.14081  -0.00322   0.00000  -0.01442  -0.01446   2.12635
    A7        1.92433   0.00292   0.00000   0.00964   0.00961   1.93394
    A8        2.23006  -0.00179   0.00000  -0.00608  -0.00607   2.22399
    A9        2.12854  -0.00113   0.00000  -0.00364  -0.00363   2.12491
   A10        1.95856   0.00031   0.00000   0.00136   0.00136   1.95992
   A11        2.22183   0.00139   0.00000   0.00797   0.00797   2.22979
   A12        2.10278  -0.00171   0.00000  -0.00933  -0.00933   2.09345
   A13        1.59976   0.00301   0.00000   0.00185   0.00170   1.60146
   A14        2.10375  -0.00310   0.00000  -0.01129  -0.01129   2.09246
   A15        2.22130  -0.00040   0.00000  -0.00127  -0.00128   2.22003
   A16        1.95782   0.00350   0.00000   0.01236   0.01233   1.97015
   A17        1.58600   0.00171   0.00000  -0.00192  -0.00208   1.58393
   A18        1.93883   0.00177   0.00000   0.00454   0.00451   1.94334
   A19        2.35539   0.00135   0.00000   0.00092   0.00086   2.35625
   A20        1.98896  -0.00312   0.00000  -0.00546  -0.00536   1.98360
   A21        1.99083  -0.00273   0.00000  -0.00391  -0.00380   1.98703
   A22        1.93976   0.00136   0.00000   0.00311   0.00307   1.94283
   A23        2.35252   0.00137   0.00000   0.00079   0.00071   2.35324
   A24        1.95123  -0.00425   0.00000  -0.01110  -0.01100   1.94023
   A25        2.14792   0.00146   0.00000   0.00184   0.00179   2.14971
   A26        2.18403   0.00279   0.00000   0.00926   0.00921   2.19324
   A27        1.58013   0.00267   0.00000   0.00156   0.00143   1.58156
   A28        1.97805   0.00211   0.00000   0.00750   0.00748   1.98554
   A29        2.08633  -0.00231   0.00000  -0.01072  -0.01071   2.07562
   A30        2.21880   0.00019   0.00000   0.00322   0.00323   2.22203
   A31        1.93788  -0.00302   0.00000  -0.00671  -0.00663   1.93125
   A32        2.18213   0.00172   0.00000   0.00451   0.00446   2.18659
   A33        2.16317   0.00130   0.00000   0.00221   0.00216   2.16534
   A34        1.93398  -0.00470   0.00000  -0.02622  -0.02622   1.90776
    D1       -0.00827  -0.00002   0.00000  -0.00332  -0.00330  -0.01156
    D2        3.13586   0.00007   0.00000  -0.00104  -0.00099   3.13487
    D3        3.13591   0.00000   0.00000  -0.00151  -0.00149   3.13442
    D4       -0.00314   0.00009   0.00000   0.00078   0.00081  -0.00233
    D5        0.00711   0.00014   0.00000   0.00231   0.00234   0.00945
    D6       -3.14054   0.00001   0.00000   0.00094   0.00095  -3.13960
    D7       -3.13708   0.00012   0.00000   0.00050   0.00053  -3.13655
    D8       -0.00155  -0.00002   0.00000  -0.00087  -0.00086  -0.00241
    D9        0.00545  -0.00002   0.00000   0.00289   0.00291   0.00836
   D10        3.12270   0.00019   0.00000  -0.00108  -0.00109   3.12161
   D11       -3.13865  -0.00008   0.00000   0.00070   0.00076  -3.13789
   D12       -0.02140   0.00013   0.00000  -0.00327  -0.00325  -0.02464
   D13       -0.11405   0.00011   0.00000   0.00253   0.00253  -0.11153
   D14        3.03030   0.00021   0.00000   0.00500   0.00501   3.03530
   D15       -0.00123   0.00010   0.00000  -0.00132  -0.00131  -0.00255
   D16       -3.12015  -0.00008   0.00000   0.00244   0.00248  -3.11767
   D17       -1.91940  -0.00091   0.00000   0.00000  -0.00000  -1.91940
   D18        1.19306  -0.00079   0.00000  -0.00894  -0.00890   1.18415
   D19        1.19528  -0.00063   0.00000  -0.00424  -0.00425   1.19103
   D20       -1.97545  -0.00050   0.00000  -0.01318  -0.01315  -1.98860
   D21       -0.00351  -0.00011   0.00000  -0.00056  -0.00055  -0.00405
   D22       -3.13950   0.00001   0.00000   0.00064   0.00066  -3.13884
   D23        3.12274   0.00002   0.00000  -0.00583  -0.00582   3.11691
   D24        0.00618  -0.00005   0.00000   0.00200   0.00202   0.00821
   D25       -3.11573   0.00011   0.00000   0.00745   0.00750  -3.10823
   D26        0.02408   0.00007   0.00000   0.00688   0.00692   0.03100
   D27       -0.00124   0.00014   0.00000  -0.00118  -0.00120  -0.00243
   D28        3.13857   0.00010   0.00000  -0.00176  -0.00177   3.13680
   D29       -0.00961   0.00001   0.00000  -0.00214  -0.00214  -0.01176
   D30        3.13021   0.00002   0.00000  -0.00106  -0.00106   3.12915
   D31        0.01091   0.00007   0.00000   0.00197   0.00197   0.01288
   D32        3.14129   0.00003   0.00000   0.00127   0.00127  -3.14062
   D33       -3.12931   0.00006   0.00000   0.00113   0.00113  -3.12818
   D34        0.00107   0.00002   0.00000   0.00043   0.00043   0.00150
   D35       -3.14082  -0.00004   0.00000  -0.00182  -0.00181   3.14055
   D36        0.00101   0.00001   0.00000  -0.00058  -0.00058   0.00044
   D37       -0.00104  -0.00003   0.00000  -0.00071  -0.00070  -0.00174
   D38        3.14080   0.00002   0.00000   0.00053   0.00053   3.14133
   D39       -0.00632  -0.00008   0.00000  -0.00041  -0.00040  -0.00672
   D40        3.13710  -0.00004   0.00000   0.00019   0.00021   3.13731
   D41       -3.13317  -0.00002   0.00000   0.00051   0.00051  -3.13266
   D42        0.01025   0.00002   0.00000   0.00111   0.00112   0.01136
   D43       -0.00064   0.00001   0.00000  -0.00003  -0.00003  -0.00066
   D44        3.12653  -0.00008   0.00000  -0.00097  -0.00096   3.12557
   D45        0.00005  -0.00003   0.00000  -0.00039  -0.00038  -0.00034
   D46        3.13962  -0.00000   0.00000  -0.00020  -0.00020   3.13942
   D47        0.00053   0.00004   0.00000   0.00069   0.00069   0.00122
   D48       -3.14130  -0.00000   0.00000  -0.00053  -0.00053   3.14135
   D49       -3.13886   0.00002   0.00000   0.00051   0.00051  -3.13836
   D50        0.00249  -0.00003   0.00000  -0.00071  -0.00071   0.00178
         Item               Value     Threshold  Converged?
 Maximum Force            0.042779     0.000450     NO 
 RMS     Force            0.009906     0.000300     NO 
 Maximum Displacement     0.087931     0.001800     NO 
 RMS     Displacement     0.025239     0.001200     NO 
 Predicted change in Energy=-1.002261D-02
 GradGradGradGradGradGradGradGradGradGradGradGradGradGradGradGradGradGrad

                          Input orientation:                          
 ---------------------------------------------------------------------
 Center     Atomic      Atomic             Coordinates (Angstroms)
 Number     Number       Type             X           Y           Z
 ---------------------------------------------------------------------
      1          6           0        3.957600    0.741298    0.277078
      2          6           0        2.557816    0.982637    0.489482
      3          6           0        1.743301    0.024026   -0.103456
      4          6           0        4.180972   -0.408082   -0.463325
      5          1           0        4.751674    1.388603    0.660078
      6         16           0        2.706143   -1.193282   -0.918600
      7          1           0        5.139246   -0.829531   -0.769655
      8          6           0        0.282529   -0.048211   -0.065362
      9         16           0       -0.513045   -1.327217    0.862738
     10          6           0       -2.080490   -0.693370    0.436263
     11          6           0       -1.966730    0.456105   -0.368630
     12          6           0       -0.616936    0.825321   -0.661706
     13          1           0       -0.307848    1.678268   -1.269509
     14         16           0       -3.536006    1.090796   -0.793751
     15          6           0       -4.320230   -0.190908    0.110088
     16          6           0       -3.436239   -1.069955    0.713148
     17          1           0       -5.410408   -0.220637    0.145874
     18          1           0       -3.741997   -1.927494    1.315543
     19          8           0        2.038287    2.037943    1.191461
     20          1           0        2.757361    2.532689    1.602239
 ---------------------------------------------------------------------
                    Distance matrix (angstroms):
                    1          2          3          4          5
     1  C    0.000000
     2  C    1.436229   0.000000
     3  C    2.358475   1.390664   0.000000
     4  C    1.385339   2.340208   2.501692   0.000000
     5  H    1.093731   2.237616   3.390481   2.194496   0.000000
     6  S    2.595841   2.596020   1.753101   1.731743   3.652746
     7  H    2.226980   3.396050   3.564383   1.090755   2.667296
     8  C    3.774485   2.558795   1.463053   3.935192   4.750153
     9  S    4.960687   3.860691   2.801872   4.963572   5.927395
    10  C    6.208232   4.932111   3.927764   6.332184   7.145850
    11  C    5.966235   4.635203   3.744507   6.208866   6.860375
    12  C    4.670627   3.380686   2.554297   4.957878   5.557551
    13  H    4.632914   3.433654   2.881563   5.015206   5.422728
    14  S    7.577794   6.228407   5.430063   7.868136   8.419499
    15  C    8.331828   6.987751   6.071096   8.523285   9.224792
    16  C    7.624937   6.339705   5.356424   7.735895   8.549225
    17  H    9.418180   8.065887   7.162233   9.612535  10.301552
    18  H    8.214905   6.988483   5.992536   8.261139   9.141586
    19  O    2.490210   1.369801   2.412403   3.648623   2.840155
    20  H    2.530950   1.918517   3.198610   3.865405   2.484730
                    6          7          8          9         10
     6  S    0.000000
     7  H    2.464648   0.000000
     8  C    2.813025   4.969325   0.000000
     9  S    3.681613   5.904303   1.769227   0.000000
    10  C    4.999742   7.321022   2.500344   1.743711   0.000000
    11  C    4.985848   7.232466   2.324967   2.609541   1.407866
    12  C    3.896615   5.990311   1.388424   2.639724   2.377803
    13  H    4.177688   6.017453   2.186148   3.690735   3.417102
    14  S    6.648084   8.885282   4.050814   4.210587   2.610500
    15  C    7.171671   9.521737   4.608311   4.043803   2.318468
    16  C    6.356624   8.706059   3.934371   2.938304   1.434063
    17  H    8.243637  10.606797   5.699463   5.071743   3.375819
    18  H    6.863598   9.188583   4.651389   3.315343   2.248733
    19  O    3.916529   4.656643   3.002387   4.235759   4.999472
    20  H    4.498902   4.754343   3.945470   5.112856   5.930579
                   11         12         13         14         15
    11  C    0.000000
    12  C    1.429740   0.000000
    13  H    2.248811   1.092006   0.000000
    14  S    1.745334   2.934090   3.315490   0.000000
    15  C    2.487320   3.916985   4.636411   1.753481   0.000000
    16  C    2.378773   3.664801   4.611994   2.636199   1.384863
    17  H    3.547058   4.972282   5.625413   2.473082   1.091171
    18  H    3.416074   4.610153   5.610472   3.688039   2.191622
    19  O    4.579984   3.457584   3.419077   5.992570   6.824066
    20  H    5.523908   4.407543   4.286313   6.886676   7.728958
                   16         17         18         19         20
    16  C    0.000000
    17  H    2.222720   0.000000
    18  H    1.091669   2.658022   0.000000
    19  O    6.313339   7.853502   7.010833   0.000000
    20  H    7.220126   8.741525   7.887781   0.964666   0.000000
 Stoichiometry    C10H6OS3
 Framework group  C1[X(C10H6OS3)]
 Deg. of freedom    54
 Full point group                 C1      NOp   1
 Largest Abelian subgroup         C1      NOp   1
 Largest concise Abelian subgroup C1      NOp   1
                         Standard orientation:                         
 ---------------------------------------------------------------------
 Center     Atomic      Atomic             Coordinates (Angstroms)
 Number     Number       Type             X           Y           Z
 ---------------------------------------------------------------------
      1          6           0        3.957299    0.754667    0.273461
      2          6           0        2.557057    0.992580    0.486710
      3          6           0        1.744623    0.030558   -0.103552
      4          6           0        4.183133   -0.395565   -0.464869
      5          1           0        4.749950    1.404912    0.654423
      6         16           0        2.710041   -1.185719   -0.917188
      7          1           0        5.142274   -0.814988   -0.771268
      8          6           0        0.284092   -0.045617   -0.063932
      9         16           0       -0.507088   -1.324957    0.867459
     10          6           0       -2.076671   -0.696269    0.441210
     11          6           0       -1.966829    0.451912   -0.366072
     12          6           0       -0.618332    0.824252   -0.661158
     13          1           0       -0.312163    1.676835   -1.270945
     14         16           0       -3.538245    1.081442   -0.790966
     15          6           0       -4.318090   -0.200612    0.116158
     16          6           0       -3.431118   -1.076026    0.720126
     17          1           0       -5.408148   -0.233266    0.153035
     18          1           0       -3.733950   -1.933203    1.324512
     19          8           0        2.035289    2.047849    1.187083
     20          1           0        2.753387    2.545385    1.596197
 ---------------------------------------------------------------------
 Rotational constants (GHZ):           1.2790405           0.2639618           0.2447889
 Standard basis: Aug-CC-pVDZ (5D, 7F)
 There are   416 symmetry adapted cartesian basis functions of A   symmetry.
 There are   388 symmetry adapted basis functions of A   symmetry.
   388 basis functions,   782 primitive gaussians,   416 cartesian basis functions
    61 alpha electrons       61 beta electrons
       nuclear repulsion energy      1118.2205237651 Hartrees.
 NAtoms=   20 NActive=   20 NUniq=   20 SFac= 1.00D+00 NAtFMM=   60 NAOKFM=F Big=F
 Integral buffers will be    131072 words long.
 Raffenetti 1 integral format.
 Two-electron integral symmetry is turned on.
 One-electron integrals computed using PRISM.
 NBasis=   388 RedAO= T EigKep=  4.01D-06  NBF=   388
 NBsUse=   388 1.00D-06 EigRej= -1.00D+00 NBFU=   388
 Initial guess from the checkpoint file:  "/tmp/pbs.4766300[65].pbs/Gau-4101801.chk"
 B after Tr=    -0.000000    0.000000    0.000000
         Rot=    0.999999    0.000281   -0.000561   -0.001215 Ang=   0.16 deg.
 ExpMin= 2.97D-02 ExpMax= 1.11D+05 ExpMxC= 1.07D+03 IAcc=3 IRadAn=         5 AccDes= 0.00D+00
 Harris functional with IExCor=  205 and IRadAn=       5 diagonalized for initial guess.
 HarFok:  IExCor=  205 AccDes= 0.00D+00 IRadAn=         5 IDoV= 1 UseB2=F ITyADJ=14
 ICtDFT=  3500011 ScaDFX=  1.000000  1.000000  1.000000  1.000000
 FoFCou: FMM=F IPFlag=           0 FMFlag=      100000 FMFlg1=           0
         NFxFlg=           0 DoJE=T BraDBF=F KetDBF=T FulRan=T
         wScrn=  0.000000 ICntrl=       500 IOpCl=  0 I1Cent=   200000004 NGrid=           0
         NMat0=    1 NMatS0=      1 NMatT0=    0 NMatD0=    1 NMtDS0=    0 NMtDT0=    0
 Petite list used in FoFCou.
 Requested convergence on RMS density matrix=1.00D-08 within 128 cycles.
 Requested convergence on MAX density matrix=1.00D-06.
 Requested convergence on             energy=1.00D-06.
 No special actions if energy rises.
 SCF Done:  E(RHF) =  -1649.63243973     A.U. after   14 cycles
            NFock= 14  Conv=0.96D-08     -V/T= 2.0006
 ExpMin= 2.97D-02 ExpMax= 1.11D+05 ExpMxC= 1.07D+03 IAcc=3 IRadAn=         5 AccDes= 0.00D+00
 HarFok:  IExCor=  205 AccDes= 0.00D+00 IRadAn=         5 IDoV=-2 UseB2=F ITyADJ=14
 ICtDFT= 12500011 ScaDFX=  1.000000  1.000000  1.000000  1.000000
 GSVD:  LWork=        -884 too small for GESVD, short by        3770 words or        3770 for optimal perf.
 Range of M.O.s used for correlation:    27   388
 NBasis=   388 NAE=    61 NBE=    61 NFC=    26 NFV=     0
 NROrb=    362 NOA=    35 NOB=    35 NVA=   327 NVB=   327

 **** Warning!!: The largest alpha MO coefficient is  0.83536504D+02

 Fully direct method using O(ONN) memory.
 JobTyp=1 Pass  1:  I=  27 to  61 NPSUse=  8 ParTrn=T ParDer=T DoDerP=T.
 Spin components of T(2) and E(2):
     alpha-alpha T2 =       0.1168474202D+00 E2=     -0.2765914692D+00
     alpha-beta  T2 =       0.5696235879D+00 E2=     -0.1434387724D+01
     beta-beta   T2 =       0.1168474202D+00 E2=     -0.2765914692D+00
 ANorm=    0.1342876922D+01
 E2 =    -0.1987570663D+01 EUMP2 =    -0.16516200103924D+04
          IDoAtm=11111111111111111111
          Differentiating once with respect to electric field.
                with respect to dipole field.
          Differentiating once with respect to nuclear coordinates.
 Keep R1 ints in memory in canonical form, NReq=2883857471.
          There are     1 degrees of freedom in the 1st order CPHF.  IDoFFX=0 NUNeed=     1.
 LinEq1:  Iter=  0 NonCon=     1 RMS=2.90D-03 Max=7.84D-02 NDo=     1
 AX will form     1 AO Fock derivatives at one time.
 LinEq1:  Iter=  1 NonCon=     1 RMS=7.12D-04 Max=8.54D-03 NDo=     1
 LinEq1:  Iter=  2 NonCon=     1 RMS=3.69D-04 Max=1.35D-02 NDo=     1
 LinEq1:  Iter=  3 NonCon=     1 RMS=1.02D-04 Max=1.97D-03 NDo=     1
 LinEq1:  Iter=  4 NonCon=     1 RMS=4.34D-05 Max=1.10D-03 NDo=     1
 LinEq1:  Iter=  5 NonCon=     1 RMS=1.80D-05 Max=5.34D-04 NDo=     1
 LinEq1:  Iter=  6 NonCon=     1 RMS=8.14D-06 Max=3.64D-04 NDo=     1
 LinEq1:  Iter=  7 NonCon=     1 RMS=3.70D-06 Max=1.12D-04 NDo=     1
 LinEq1:  Iter=  8 NonCon=     1 RMS=1.40D-06 Max=4.10D-05 NDo=     1
 LinEq1:  Iter=  9 NonCon=     1 RMS=5.74D-07 Max=1.58D-05 NDo=     1
 LinEq1:  Iter= 10 NonCon=     1 RMS=2.17D-07 Max=3.91D-06 NDo=     1
 LinEq1:  Iter= 11 NonCon=     1 RMS=9.08D-08 Max=4.23D-06 NDo=     1
 LinEq1:  Iter= 12 NonCon=     1 RMS=3.45D-08 Max=6.91D-07 NDo=     1
 LinEq1:  Iter= 13 NonCon=     1 RMS=1.34D-08 Max=2.84D-07 NDo=     1
 LinEq1:  Iter= 14 NonCon=     1 RMS=4.45D-09 Max=8.43D-08 NDo=     1
 LinEq1:  Iter= 15 NonCon=     1 RMS=1.76D-09 Max=6.02D-08 NDo=     1
 LinEq1:  Iter= 16 NonCon=     1 RMS=6.93D-10 Max=2.23D-08 NDo=     1
 LinEq1:  Iter= 17 NonCon=     1 RMS=3.21D-10 Max=1.29D-08 NDo=     1
 LinEq1:  Iter= 18 NonCon=     1 RMS=1.25D-10 Max=3.57D-09 NDo=     1
 LinEq1:  Iter= 19 NonCon=     0 RMS=4.42D-11 Max=7.72D-10 NDo=     1
 Linear equations converged to 1.000D-10 1.000D-09 after    19 iterations.
 End of Minotr F.D. properties file   721 does not exist.
 End of Minotr F.D. properties file   722 does not exist.
 End of Minotr F.D. properties file   788 does not exist.
 Calling FoFJK, ICntrl=  10002127 FMM=F ISym2X=0 I1Cent= 0 IOpClX= 0 NMat=1 NMatS=1 NMatT=0.
 ***** Axes restored to original set *****
 -------------------------------------------------------------------
 Center     Atomic                   Forces (Hartrees/Bohr)
 Number     Number              X              Y              Z
 -------------------------------------------------------------------
      1        6          -0.007934480    0.003738651    0.002663661
      2        6           0.015326553   -0.000372948   -0.002112676
      3        6          -0.006667612   -0.005936810   -0.001988239
      4        6           0.002154589   -0.003936003   -0.002403370
      5        1           0.000652514   -0.000773367   -0.000475431
      6       16           0.000098360    0.004661121    0.003185233
      7        1          -0.000203059    0.000065046    0.000044375
      8        6           0.006588697   -0.001862270    0.001867437
      9       16          -0.001165342    0.002904242   -0.002875910
     10        6          -0.006143216   -0.007129487    0.005053485
     11        6           0.005772171    0.007046589   -0.004774288
     12        6          -0.008629579    0.001441810   -0.000112714
     13        1           0.001269259   -0.000649632    0.000336622
     14       16           0.001140722   -0.003377784    0.002330211
     15        6          -0.003503694    0.002127933   -0.001438303
     16        6           0.007203720   -0.000234410   -0.000071211
     17        1          -0.000025219    0.000115512   -0.000058239
     18        1          -0.000923317    0.000465431   -0.000295605
     19        8          -0.008091330    0.001313174    0.000737033
     20        1           0.003080263    0.000393203    0.000387928
 -------------------------------------------------------------------
 Cartesian Forces:  Max     0.015326553 RMS     0.004084443

 GradGradGradGradGradGradGradGradGradGradGradGradGradGradGradGradGradGrad
 Berny optimization.
 Using GEDIIS/GDIIS optimizer.
 FormGI is forming the generalized inverse of G from B-inverse, IUseBI=4.
 Internal  Forces:  Max     0.005276216 RMS     0.001632833
 Search for a local minimum.
 Step number   2 out of a maximum of  116
 All quantities printed in internal units (Hartrees-Bohrs-Radians)
 Mixed Optimization -- RFO/linear search
 Update second derivatives using D2CorX and points    1    2
 DE= -1.02D-02 DEPred=-1.00D-02 R= 1.02D+00
 TightC=F SS=  1.41D+00  RLast= 1.95D-01 DXNew= 5.0454D-01 5.8493D-01
 Trust test= 1.02D+00 RLast= 1.95D-01 DXMaxT set to 5.05D-01
 ITU=  1  0
 Use linear search instead of GDIIS.
     Eigenvalues ---    0.01465   0.01578   0.01624   0.01702   0.01749
     Eigenvalues ---    0.01753   0.01984   0.02011   0.02070   0.02144
     Eigenvalues ---    0.02221   0.02293   0.02328   0.02357   0.02385
     Eigenvalues ---    0.02447   0.15779   0.16000   0.16000   0.16000
     Eigenvalues ---    0.16000   0.16032   0.22507   0.22594   0.23695
     Eigenvalues ---    0.24331   0.24770   0.24908   0.24986   0.24990
     Eigenvalues ---    0.25185   0.29060   0.29842   0.30367   0.31005
     Eigenvalues ---    0.31409   0.32599   0.35570   0.35967   0.36214
     Eigenvalues ---    0.36284   0.36373   0.36649   0.38670   0.39101
     Eigenvalues ---    0.39479   0.45309   0.50530   0.52337   0.53346
     Eigenvalues ---    0.54205   0.55239   0.593161000.000001000.00000
     Eigenvalues --- 1000.000001000.000001000.000001000.000001000.00000
     Eigenvalues --- 1000.000001000.000001000.000001000.000001000.00000
     Eigenvalues --- 1000.000001000.000001000.000001000.000001000.00000
     Eigenvalues --- 1000.000001000.000001000.000001000.000001000.00000
     Eigenvalues --- 1000.000001000.000001000.000001000.000001000.00000
     Eigenvalues --- 1000.000001000.000001000.000001000.000001000.00000
     Eigenvalues --- 1000.000001000.000001000.000001000.000001000.00000
     Eigenvalues --- 1000.000001000.000001000.000001000.000001000.00000
     Eigenvalues --- 1000.000001000.000001000.000001000.000001000.00000
     Eigenvalues --- 1000.000001000.000001000.000001000.000001000.00000
     Eigenvalues --- 1000.00000
 RFO step:  Lambda=-9.14720708D-04 EMin= 1.46457912D-02
 Quartic linear search produced a step of  0.10729.
 Iteration  1 RMS(Cart)=  0.01800111 RMS(Int)=  0.00015147
 Iteration  2 RMS(Cart)=  0.00020044 RMS(Int)=  0.00002074
 Iteration  3 RMS(Cart)=  0.00000002 RMS(Int)=  0.00002074
 Iteration  1 RMS(Cart)=  0.00001111 RMS(Int)=  0.00000450
 Iteration  2 RMS(Cart)=  0.00000608 RMS(Int)=  0.00000503
 Iteration  3 RMS(Cart)=  0.00000332 RMS(Int)=  0.00000568
 Iteration  4 RMS(Cart)=  0.00000182 RMS(Int)=  0.00000611
 Iteration  5 RMS(Cart)=  0.00000099 RMS(Int)=  0.00000637
 Variable       Old X    -DE/DX   Delta X   Delta X   Delta X     New X
                                 (Linear)    (Quad)   (Total)
    R1        2.71408  -0.00528  -0.00040  -0.01441  -0.01482   2.69926
    R2        2.61791   0.00297   0.00753   0.00201   0.00953   2.62744
    R3        2.06685  -0.00015   0.00268  -0.00178   0.00090   2.06775
    R4        2.62797   0.00432   0.00765   0.00481   0.01246   2.64043
    R5        2.58855   0.00379   0.00407   0.00548   0.00956   2.59811
    R6        3.31288  -0.00319   0.00063  -0.01188  -0.01124   3.30164
    R7        2.76477  -0.00162  -0.00151  -0.00429  -0.00580   2.75897
    R8        3.27252  -0.00111   0.00189  -0.00461  -0.00272   3.26981
    R9        2.06123  -0.00022   0.00288  -0.00207   0.00080   2.06203
   R10        3.34336  -0.00109   0.00175  -0.00522  -0.00347   3.33989
   R11        2.62374   0.00390   0.00769   0.00376   0.01146   2.63520
   R12        3.29514  -0.00124   0.00172  -0.00512  -0.00340   3.29174
   R13        2.66048   0.00526   0.00875   0.00702   0.01576   2.67625
   R14        2.70999  -0.00360  -0.00036  -0.00960  -0.00996   2.70002
   R15        2.70182  -0.00347  -0.00060  -0.00897  -0.00957   2.69224
   R16        3.29820  -0.00154   0.00144  -0.00593  -0.00448   3.29372
   R17        2.06359  -0.00034   0.00278  -0.00239   0.00039   2.06398
   R18        3.31360  -0.00129   0.00186  -0.00581  -0.00395   3.30965
   R19        2.61701   0.00262   0.00738   0.00124   0.00862   2.62563
   R20        2.06201   0.00002   0.00285  -0.00134   0.00151   2.06352
   R21        2.06296  -0.00027   0.00276  -0.00218   0.00058   2.06353
   R22        1.82295   0.00266   0.00453   0.00257   0.00710   1.83005
    A1        1.95584   0.00031  -0.00021   0.00185   0.00163   1.95747
    A2        2.16080   0.00099   0.00014   0.00693   0.00707   2.16787
    A3        2.16653  -0.00130   0.00007  -0.00879  -0.00872   2.15782
    A4        1.97355   0.00159  -0.00115   0.00773   0.00657   1.98012
    A5        2.18327   0.00271   0.00270   0.01064   0.01335   2.19662
    A6        2.12635  -0.00430  -0.00155  -0.01836  -0.01992   2.10644
    A7        1.93394  -0.00238   0.00103  -0.01095  -0.00993   1.92401
    A8        2.22399   0.00037  -0.00065   0.00173   0.00105   2.22504
    A9        2.12491   0.00202  -0.00039   0.00891   0.00849   2.13340
   A10        1.95992  -0.00178   0.00015  -0.00882  -0.00867   1.95125
   A11        2.22979   0.00092   0.00085   0.00424   0.00510   2.23489
   A12        2.09345   0.00086  -0.00100   0.00456   0.00356   2.09701
   A13        1.60146   0.00227   0.00018   0.01016   0.01037   1.61183
   A14        2.09246   0.00089  -0.00121   0.00450   0.00320   2.09566
   A15        2.22003   0.00096  -0.00014   0.00425   0.00403   2.22405
   A16        1.97015  -0.00185   0.00132  -0.00943  -0.00816   1.96200
   A17        1.58393   0.00258  -0.00022   0.01100   0.01079   1.59472
   A18        1.94334  -0.00250   0.00048  -0.01113  -0.01065   1.93268
   A19        2.35625   0.00155   0.00009   0.00618   0.00627   2.36252
   A20        1.98360   0.00094  -0.00058   0.00496   0.00438   1.98798
   A21        1.98703   0.00106  -0.00041   0.00519   0.00477   1.99181
   A22        1.94283  -0.00248   0.00033  -0.01068  -0.01034   1.93249
   A23        2.35324   0.00142   0.00008   0.00546   0.00554   2.35878
   A24        1.94023   0.00070  -0.00118   0.00427   0.00309   1.94333
   A25        2.14971  -0.00182   0.00019  -0.01209  -0.01190   2.13781
   A26        2.19324   0.00112   0.00099   0.00782   0.00881   2.20204
   A27        1.58156   0.00230   0.00015   0.00997   0.01013   1.59169
   A28        1.98554  -0.00142   0.00080  -0.00797  -0.00717   1.97836
   A29        2.07562   0.00058  -0.00115   0.00336   0.00221   2.07783
   A30        2.22203   0.00085   0.00035   0.00461   0.00496   2.22699
   A31        1.93125   0.00066  -0.00071   0.00372   0.00299   1.93425
   A32        2.18659   0.00074   0.00048   0.00548   0.00596   2.19256
   A33        2.16534  -0.00140   0.00023  -0.00920  -0.00896   2.15638
   A34        1.90776  -0.00299  -0.00281  -0.01948  -0.02229   1.88547
    D1       -0.01156   0.00007  -0.00035  -0.00302  -0.00336  -0.01493
    D2        3.13487   0.00006  -0.00011  -0.00387  -0.00397   3.13090
    D3        3.13442   0.00007  -0.00016   0.00042   0.00028   3.13470
    D4       -0.00233   0.00005   0.00009  -0.00043  -0.00033  -0.00266
    D5        0.00945   0.00008   0.00025   0.00298   0.00322   0.01267
    D6       -3.13960  -0.00003   0.00010   0.00139   0.00148  -3.13812
    D7       -3.13655   0.00008   0.00006  -0.00043  -0.00035  -3.13690
    D8       -0.00241  -0.00003  -0.00009  -0.00201  -0.00209  -0.00451
    D9        0.00836  -0.00019   0.00031   0.00159   0.00188   0.01024
   D10        3.12161   0.00012  -0.00012  -0.01066  -0.01072   3.11089
   D11       -3.13789  -0.00016   0.00008   0.00249   0.00255  -3.13534
   D12       -0.02464   0.00015  -0.00035  -0.00976  -0.01005  -0.03469
   D13       -0.11153   0.00012   0.00027   0.00557   0.00584  -0.10569
   D14        3.03530   0.00009   0.00054   0.00458   0.00512   3.04042
   D15       -0.00255   0.00021  -0.00014   0.00013   0.00002  -0.00253
   D16       -3.11767  -0.00005   0.00027   0.01168   0.01195  -3.10572
   D17       -1.91940  -0.00102  -0.00000   0.00000   0.00001  -1.91939
   D18        1.18415  -0.00092  -0.00096  -0.02387  -0.02486   1.15929
   D19        1.19103  -0.00075  -0.00046  -0.01377  -0.01425   1.17678
   D20       -1.98860  -0.00065  -0.00141  -0.03763  -0.03912  -2.02772
   D21       -0.00405  -0.00015  -0.00006  -0.00178  -0.00184  -0.00589
   D22       -3.13884  -0.00005   0.00007  -0.00033  -0.00026  -3.13911
   D23        3.11691   0.00009  -0.00062  -0.01164  -0.01219   3.10473
   D24        0.00821  -0.00005   0.00022   0.00875   0.00895   0.01716
   D25       -3.10823  -0.00004   0.00080   0.01438   0.01517  -3.09306
   D26        0.03100  -0.00005   0.00074   0.01531   0.01602   0.04702
   D27       -0.00243   0.00010  -0.00013  -0.00784  -0.00792  -0.01035
   D28        3.13680   0.00009  -0.00019  -0.00691  -0.00707   3.12973
   D29       -0.01176   0.00001  -0.00023  -0.00712  -0.00734  -0.01910
   D30        3.12915  -0.00001  -0.00011  -0.00532  -0.00543   3.12372
   D31        0.01288   0.00005   0.00021   0.00413   0.00432   0.01720
   D32       -3.14062   0.00000   0.00014   0.00266   0.00278  -3.13784
   D33       -3.12818   0.00006   0.00012   0.00273   0.00285  -3.12533
[...]
 Center     Atomic      Atomic             Coordinates (Angstroms)
 Number     Number       Type             X           Y           Z
 ---------------------------------------------------------------------
      1          6           0        3.937261    0.785336    0.311383
      2          6           0        2.540020    1.011989    0.467170
      3          6           0        1.744246    0.032359   -0.136844
      4          6           0        4.202412   -0.383351   -0.396298
      5          1           0        4.719514    1.440934    0.703798
      6         16           0        2.749814   -1.184795   -0.879564
      7          1           0        5.173609   -0.799965   -0.663925
      8          6           0        0.289339   -0.062664   -0.108523
      9         16           0       -0.498135   -1.349022    0.810096
     10          6           0       -2.073992   -0.717576    0.425137
     11          6           0       -1.964925    0.457700   -0.361274
     12          6           0       -0.626935    0.828905   -0.666409
     13          1           0       -0.311853    1.691772   -1.256195
     14         16           0       -3.542057    1.088417   -0.747844
     15          6           0       -4.317483   -0.209133    0.132457
     16          6           0       -3.418937   -1.101021    0.704602
     17          1           0       -5.406937   -0.239562    0.182102
     18          1           0       -3.727201   -1.969266    1.289659
     19          8           0        1.958801    2.068983    1.131902
     20          1           0        2.662492    2.595345    1.537949
 ---------------------------------------------------------------------
 Rotational constants (GHZ):           1.2923684           0.2654372           0.2440185

 **********************************************************************

            Population analysis using the SCF Density.

 **********************************************************************

 Orbital symmetries:
       Occupied  (A) (A) (A) (A) (A) (A) (A) (A) (A) (A) (A) (A)
                 (A) (A) (A) (A) (A) (A) (A) (A) (A) (A) (A) (A)
                 (A) (A) (A) (A) (A) (A) (A) (A) (A) (A) (A) (A)
                 (A) (A) (A) (A) (A) (A) (A) (A) (A) (A) (A) (A)
                 (A) (A) (A) (A) (A) (A) (A) (A) (A) (A) (A) (A)
                 (A)
       Virtual   (A) (A) (A) (A) (A) (A) (A) (A) (A) (A) (A) (A)
                 (A) (A) (A) (A) (A) (A) (A) (A) (A) (A) (A) (A)
                 (A) (A) (A) (A) (A) (A) (A) (A) (A) (A) (A) (A)
                 (A) (A) (A) (A) (A) (A) (A) (A) (A) (A) (A) (A)
                 (A) (A) (A) (A) (A) (A) (A) (A) (A) (A) (A) (A)
                 (A) (A) (A) (A) (A) (A) (A) (A) (A) (A) (A) (A)
                 (A) (A) (A) (A) (A) (A) (A) (A) (A) (A) (A) (A)
                 (A) (A) (A) (A) (A) (A) (A) (A) (A) (A) (A) (A)
                 (A) (A) (A) (A) (A) (A) (A) (A) (A) (A) (A) (A)
                 (A) (A) (A) (A) (A) (A) (A) (A) (A) (A) (A) (A)
                 (A) (A) (A) (A) (A) (A) (A) (A) (A) (A) (A) (A)
                 (A) (A) (A) (A) (A) (A) (A) (A) (A) (A) (A) (A)
                 (A) (A) (A) (A) (A) (A) (A) (A) (A) (A) (A) (A)
                 (A) (A) (A) (A) (A) (A) (A) (A) (A) (A) (A) (A)
                 (A) (A) (A) (A) (A) (A) (A) (A) (A) (A) (A) (A)
                 (A) (A) (A) (A) (A) (A) (A) (A) (A) (A) (A) (A)
                 (A) (A) (A) (A) (A) (A) (A) (A) (A) (A) (A) (A)
                 (A) (A) (A) (A) (A) (A) (A) (A) (A) (A) (A) (A)
                 (A) (A) (A) (A) (A) (A) (A) (A) (A) (A) (A) (A)
                 (A) (A) (A) (A) (A) (A) (A) (A) (A) (A) (A) (A)
                 (A) (A) (A) (A) (A) (A) (A) (A) (A) (A) (A) (A)
                 (A) (A) (A) (A) (A) (A) (A) (A) (A) (A) (A) (A)
                 (A) (A) (A) (A) (A) (A) (A) (A) (A) (A) (A) (A)
                 (A) (A) (A) (A) (A) (A) (A) (A) (A) (A) (A) (A)
                 (A) (A) (A) (A) (A) (A) (A) (A) (A) (A) (A) (A)
                 (A) (A) (A) (A) (A) (A) (A) (A) (A) (A) (A) (A)
                 (A) (A) (A) (A) (A) (A) (A) (A) (A) (A) (A) (A)
                 (A) (A) (A)
 The electronic state is 1-A.
 Alpha  occ. eigenvalues --  -91.99590 -91.99084 -91.98912 -20.61321 -11.32465
 Alpha  occ. eigenvalues --  -11.29248 -11.28837 -11.28125 -11.27618 -11.27549
 Alpha  occ. eigenvalues --  -11.27481 -11.26339 -11.26164 -11.26008  -8.99717
 Alpha  occ. eigenvalues --   -8.99197  -8.99004  -6.67880  -6.67788  -6.67604
 Alpha  occ. eigenvalues --   -6.67363  -6.67283  -6.67166  -6.67086  -6.67082
 Alpha  occ. eigenvalues --   -6.66883  -1.41385  -1.20131  -1.17543  -1.11558
 Alpha  occ. eigenvalues --   -1.02321  -1.01784  -0.98739  -0.94465  -0.93791
 Alpha  occ. eigenvalues --   -0.82372  -0.80261  -0.76368  -0.73689  -0.71975
 Alpha  occ. eigenvalues --   -0.69299  -0.66273  -0.65819  -0.61016  -0.60221
 Alpha  occ. eigenvalues --   -0.58097  -0.56480  -0.55569  -0.53923  -0.52873
 Alpha  occ. eigenvalues --   -0.52766  -0.50476  -0.49373  -0.48648  -0.45874
 Alpha  occ. eigenvalues --   -0.45545  -0.38527  -0.34915  -0.32626  -0.31609
 Alpha  occ. eigenvalues --   -0.28057
 Alpha virt. eigenvalues --    0.02783   0.03730   0.03936   0.04959   0.05077
 Alpha virt. eigenvalues --    0.06224   0.07312   0.08053   0.08405   0.08955
 Alpha virt. eigenvalues --    0.09475   0.10123   0.10435   0.10920   0.11256
 Alpha virt. eigenvalues --    0.12294   0.12505   0.12644   0.12949   0.13561
 Alpha virt. eigenvalues --    0.13661   0.14049   0.14443   0.14672   0.15045
 Alpha virt. eigenvalues --    0.15411   0.15854   0.16164   0.16516   0.16791
 Alpha virt. eigenvalues --    0.17611   0.18048   0.18170   0.18566   0.19369
 Alpha virt. eigenvalues --    0.19511   0.20046   0.20364   0.20905   0.21089
 Alpha virt. eigenvalues --    0.21679   0.22254   0.22728   0.23105   0.23327
 Alpha virt. eigenvalues --    0.23671   0.24433   0.24712   0.24843   0.25651
 Alpha virt. eigenvalues --    0.26662   0.27030   0.27541   0.27771   0.27942
 Alpha virt. eigenvalues --    0.28663   0.29949   0.30670   0.31106   0.31647
 Alpha virt. eigenvalues --    0.31899   0.32432   0.32663   0.32953   0.33021
 Alpha virt. eigenvalues --    0.33614   0.34624   0.34887   0.35005   0.35570
 Alpha virt. eigenvalues --    0.36307   0.36911   0.37378   0.38518   0.38992
 Alpha virt. eigenvalues --    0.39868   0.40553   0.40801   0.40918   0.41885
 Alpha virt. eigenvalues --    0.43162   0.43479   0.44332   0.44865   0.45192
 Alpha virt. eigenvalues --    0.45825   0.45929   0.46526   0.47893   0.48136
 Alpha virt. eigenvalues --    0.49037   0.49312   0.49790   0.50883   0.51653
 Alpha virt. eigenvalues --    0.52962   0.53739   0.53977   0.54395   0.54928
 Alpha virt. eigenvalues --    0.55738   0.56749   0.58289   0.58738   0.59268
 Alpha virt. eigenvalues --    0.59828   0.60302   0.60904   0.61479   0.61936
 Alpha virt. eigenvalues --    0.62591   0.62995   0.64237   0.64744   0.65296
 Alpha virt. eigenvalues --    0.65871   0.66673   0.67272   0.67988   0.68170
 Alpha virt. eigenvalues --    0.68416   0.69148   0.69735   0.70197   0.70426
 Alpha virt. eigenvalues --    0.71519   0.71736   0.72426   0.72838   0.73610
 Alpha virt. eigenvalues --    0.73766   0.74622   0.74969   0.75842   0.76009
 Alpha virt. eigenvalues --    0.76555   0.76935   0.77891   0.78414   0.78848
 Alpha virt. eigenvalues --    0.80936   0.81456   0.82737   0.83231   0.84106
 Alpha virt. eigenvalues --    0.85010   0.85474   0.86287   0.87395   0.87638
 Alpha virt. eigenvalues --    0.87942   0.88914   0.89664   0.90417   0.91278
 Alpha virt. eigenvalues --    0.91561   0.92403   0.93279   0.93879   0.94702
 Alpha virt. eigenvalues --    0.95111   0.95695   0.96150   0.96723   0.97505
 Alpha virt. eigenvalues --    0.98962   0.99514   1.00369   1.02484   1.03249
 Alpha virt. eigenvalues --    1.03671   1.04224   1.05611   1.06555   1.07651
 Alpha virt. eigenvalues --    1.08336   1.08998   1.09689   1.10745   1.11731
 Alpha virt. eigenvalues --    1.13075   1.13754   1.16761   1.16950   1.19069
 Alpha virt. eigenvalues --    1.19515   1.20695   1.21381   1.22248   1.23301
 Alpha virt. eigenvalues --    1.24447   1.24690   1.25012   1.25352   1.26626
 Alpha virt. eigenvalues --    1.27624   1.28301   1.29588   1.30015   1.31521
 Alpha virt. eigenvalues --    1.32372   1.33638   1.34550   1.35523   1.36466
 Alpha virt. eigenvalues --    1.37642   1.38276   1.40322   1.40922   1.42024
 Alpha virt. eigenvalues --    1.42660   1.44545   1.45241   1.46223   1.48467
 Alpha virt. eigenvalues --    1.50151   1.53883   1.54293   1.55601   1.56531
 Alpha virt. eigenvalues --    1.57309   1.58687   1.59524   1.60278   1.61746
 Alpha virt. eigenvalues --    1.62230   1.63295   1.65054   1.65822   1.66692
 Alpha virt. eigenvalues --    1.67283   1.68934   1.69363   1.70475   1.71741
 Alpha virt. eigenvalues --    1.73341   1.73955   1.75410   1.75913   1.76644
 Alpha virt. eigenvalues --    1.79369   1.79702   1.80731   1.81643   1.83649
 Alpha virt. eigenvalues --    1.84059   1.85130   1.87895   1.88178   1.89706
 Alpha virt. eigenvalues --    1.90512   1.91280   1.94042   1.95116   1.96060
 Alpha virt. eigenvalues --    1.97836   1.98613   2.00505   2.02470   2.03193
 Alpha virt. eigenvalues --    2.05320   2.06649   2.06956   2.07889   2.09031
 Alpha virt. eigenvalues --    2.09960   2.11736   2.12788   2.14055   2.14480
 Alpha virt. eigenvalues --    2.15882   2.17091   2.17618   2.18583   2.19885
 Alpha virt. eigenvalues --    2.20975   2.25188   2.25669   2.26582   2.28870
 Alpha virt. eigenvalues --    2.30562   2.30917   2.31781   2.33659   2.35951
 Alpha virt. eigenvalues --    2.37678   2.39821   2.41322   2.42465   2.43690
 Alpha virt. eigenvalues --    2.45435   2.47205   2.47808   2.48773   2.50301
 Alpha virt. eigenvalues --    2.54176   2.55783   2.58068   2.58699   2.63981
 Alpha virt. eigenvalues --    2.70112   2.77377   2.79722   2.82151   2.83614
 Alpha virt. eigenvalues --    2.87111   2.87439   2.94717   2.95292   3.00640
 Alpha virt. eigenvalues --    3.10565   3.12863   3.20822   3.23503   3.31133
 Alpha virt. eigenvalues --    3.37175   3.46042   3.51434   3.59087   3.76292
 Alpha virt. eigenvalues --    3.76857   3.77625   3.85419   3.87831   4.19896
 Alpha virt. eigenvalues --    4.23309   4.43700
          Condensed to atoms (all electrons):
               1          2          3          4          5          6
     1  C    7.441534  -1.753195  -0.197087   0.221881  -0.035026  -0.475420
     2  C   -1.753195   9.163401  -1.082547   0.278016   0.131139  -0.266985
     3  C   -0.197087  -1.082547  10.831095  -1.199487  -0.054803  -0.146004
     4  C    0.221881   0.278016  -1.199487   6.320289  -0.050200   0.408386
     5  H   -0.035026   0.131139  -0.054803  -0.050200   1.543205  -0.014512
     6  S   -0.475420  -0.266985  -0.146004   0.408386  -0.014512  16.290316
     7  H   -0.055419   0.047553   0.050257   0.279066  -0.063366  -0.150045
     8  C    0.431125  -0.625391  -1.974763   0.226972   0.029713  -0.222657
     9  S   -0.029486   0.036851  -0.629152   0.032825  -0.002599   0.250487
    10  C    0.010864   0.024758  -0.249891   0.020282   0.001031   0.026306
    11  C   -0.041229  -0.085087   0.411462  -0.010284  -0.002721   0.043502
    12  C   -0.031293   0.357725  -0.300982  -0.088230  -0.004442  -0.199459
    13  H    0.004062  -0.019713   0.107289   0.005414   0.000733   0.013097
    14  S   -0.000068   0.007049  -0.070251  -0.000848  -0.000003   0.003016
    15  C   -0.001164  -0.010766   0.035150   0.000842  -0.000057   0.005063
    16  C    0.001330   0.020402  -0.349781  -0.002744  -0.000058   0.004783
    17  H   -0.000084   0.000036  -0.000056   0.000040  -0.000004   0.000222
    18  H   -0.000147   0.000078  -0.008391  -0.000108  -0.000016   0.001113
    19  O    0.070153  -0.637119   0.275857  -0.071707  -0.061298   0.001537
    20  H   -0.151665   0.016060  -0.005135  -0.015548  -0.009260   0.016172
               7          8          9         10         11         12
     1  C   -0.055419   0.431125  -0.029486   0.010864  -0.041229  -0.031293
     2  C    0.047553  -0.625391   0.036851   0.024758  -0.085087   0.357725
     3  C    0.050257  -1.974763  -0.629152  -0.249891   0.411462  -0.300982
     4  C    0.279066   0.226972   0.032825   0.020282  -0.010284  -0.088230
     5  H   -0.063366   0.029713  -0.002599   0.001031  -0.002721  -0.004442
     6  S   -0.150045  -0.222657   0.250487   0.026306   0.043502  -0.199459
     7  H    1.207959  -0.009516   0.003254   0.000705   0.000516   0.001015
     8  C   -0.009516  10.939768   0.278734  -0.074573  -0.458216  -2.613303
     9  S    0.003254   0.278734  16.340651   0.278459  -0.361689  -0.426152
    10  C    0.000705  -0.074573   0.278459   9.580891   0.142403  -1.013380
    11  C    0.000516  -0.458216  -0.361689   0.142403  10.507660  -2.774108
    12  C    0.001015  -2.613303  -0.426152  -1.013380  -2.774108  13.871536
    13  H    0.000235   0.220941   0.031665  -0.065808   0.491634  -0.866855
    14  S   -0.000072  -0.231292   0.086567  -0.064168  -0.246924  -0.021944
    15  C    0.000061   0.047501  -0.087708  -0.176701  -0.731577  -0.112572
    16  C   -0.000061  -0.415856  -0.235068  -2.211572  -0.810150   0.296957
    17  H    0.000003   0.001597   0.005500   0.031960  -0.028683   0.032675
    18  H    0.000007   0.096954   0.012643   0.497942   0.042044  -0.067131
    19  O   -0.001404   0.006405   0.004151   0.001348   0.033064  -0.044281
    20  H    0.001142  -0.007478  -0.002005   0.000712   0.000801   0.009242
              13         14         15         16         17         18
     1  C    0.004062  -0.000068  -0.001164   0.001330  -0.000084  -0.000147
     2  C   -0.019713   0.007049  -0.010766   0.020402   0.000036   0.000078
     3  C    0.107289  -0.070251   0.035150  -0.349781  -0.000056  -0.008391
     4  C    0.005414  -0.000848   0.000842  -0.002744   0.000040  -0.000108
     5  H    0.000733  -0.000003  -0.000057  -0.000058  -0.000004  -0.000016
     6  S    0.013097   0.003016   0.005063   0.004783   0.000222   0.001113
     7  H    0.000235  -0.000072   0.000061  -0.000061   0.000003   0.000007
     8  C    0.220941  -0.231292   0.047501  -0.415856   0.001597   0.096954
     9  S    0.031665   0.086567  -0.087708  -0.235068   0.005500   0.012643
    10  C   -0.065808  -0.064168  -0.176701  -2.211572   0.031960   0.497942
    11  C    0.491634  -0.246924  -0.731577  -0.810150  -0.028683   0.042044
    12  C   -0.866855  -0.021944  -0.112572   0.296957   0.032675  -0.067131
    13  H    1.520011  -0.041468   0.014256  -0.037696   0.001535  -0.001417
    14  S   -0.041468  15.918544   0.188892  -0.006709  -0.152369  -0.002918
    15  C    0.014256   0.188892   6.506380   0.310724   0.278989  -0.137435
    16  C   -0.037696  -0.006709   0.310724   9.326958  -0.000084  -0.430246
    17  H    0.001535  -0.152369   0.278989  -0.000084   1.238882  -0.060600
    18  H   -0.001417  -0.002918  -0.137435  -0.430246  -0.060600   1.349998
    19  O    0.010813  -0.003647  -0.000184  -0.001141  -0.000054   0.000130
    20  H   -0.000379   0.000364   0.000037   0.000431   0.000013   0.000022
              19         20
     1  C    0.070153  -0.151665
     2  C   -0.637119   0.016060
     3  C    0.275857  -0.005135
     4  C   -0.071707  -0.015548
     5  H   -0.061298  -0.009260
     6  S    0.001537   0.016172
     7  H   -0.001404   0.001142
     8  C    0.006405  -0.007478
     9  S    0.004151  -0.002005
    10  C    0.001348   0.000712
    11  C    0.033064   0.000801
    12  C   -0.044281   0.009242
    13  H    0.010813  -0.000379
    14  S   -0.003647   0.000364
    15  C   -0.000184   0.000037
    16  C   -0.001141   0.000431
    17  H   -0.000054   0.000013
    18  H    0.000130   0.000022
    19  O    9.016344   0.365222
    20  H    0.365222   0.593356
 Mulliken charges:
               1
     1  C    0.590337
     2  C    0.397737
     3  C    0.557222
     4  C   -0.354854
     5  H   -0.407455
     6  S    0.411084
     7  H   -0.311890
     8  C    0.353336
     9  S    0.412072
    10  C   -0.761569
    11  C   -0.122418
    12  C   -0.005019
    13  H   -0.388349
    14  S    0.638251
    15  C   -0.129730
    16  C    0.539582
    17  H   -0.349520
    18  H   -0.292523
    19  O   -0.964190
    20  H    0.187894
 Sum of Mulliken charges =  -0.00000
 Mulliken charges with hydrogens summed into heavy atoms:
               1
     1  C    0.182882
     2  C    0.397737
     3  C    0.557222
     4  C   -0.666744
     6  S    0.411084
     8  C    0.353336
     9  S    0.412072
    10  C   -0.761569
    11  C   -0.122418
    12  C   -0.393368
    14  S    0.638251
    15  C   -0.479249
    16  C    0.247059
    19  O   -0.776295
 Electronic spatial extent (au):  <R**2>=           4326.6850
 Charge=             -0.0000 electrons
 Dipole moment (field-independent basis, Debye):
    X=              2.1527    Y=              0.9915    Z=              0.7334  Tot=              2.4809
 Quadrupole moment (field-independent basis, Debye-Ang):
   XX=            -78.0995   YY=            -99.4415   ZZ=           -105.9866
   XY=              8.9127   XZ=              0.7827   YZ=              0.1388
 Traceless Quadrupole moment (field-independent basis, Debye-Ang):
   XX=             16.4097   YY=             -4.9323   ZZ=            -11.4774
   XY=              8.9127   XZ=              0.7827   YZ=              0.1388
 Octapole moment (field-independent basis, Debye-Ang**2):
  XXX=             45.3454  YYY=             21.7878  ZZZ=              9.1612  XYY=             20.2965
  XXY=              6.0850  XXZ=             22.2953  XZZ=              9.6608  YZZ=              8.0709
  YYZ=             11.5358  XYZ=             27.5907
 Hexadecapole moment (field-independent basis, Debye-Ang**3):
 XXXX=          -4027.3155 YYYY=           -778.1978 ZZZZ=           -422.2752 XXXY=            102.2328
 XXXZ=            -14.7969 YYYX=             83.1415 YYYZ=             26.4011 ZZZX=             23.8463
 ZZZY=             17.5432 XXYY=           -872.5799 XXZZ=           -906.4908 YYZZ=           -176.3704
 XXYZ=             48.7413 YYXZ=             24.7022 ZZXY=             30.7684
 N-N= 1.119514398170D+03 E-N=-6.145625796580D+03  KE= 1.648680822828D+03
 Unable to Open any file for archive entry.
 1\1\GINC-CX3-12-29\FOpt\RMP2-FC\Aug-CC-pVDZ\C10H6O1S3\NS5018\27-Oct-20
 21\0\\# opt=modredundant mp2/aug-cc-pvdz\\pBTTT_-110.pdb\\0,1\C,3.9481
 60056,0.7423723346,0.2944149126\C,2.5538142734,0.9805913564,0.45865668
 07\C,1.7462118146,0.0135475728,-0.1499222326\C,4.1991943618,-0.4226348
 635,-0.42439427\H,4.7382610499,1.3873402822,0.6887166622\S,2.737012435
 ,-1.2064673294,-0.9076446917\H,5.1652406889,-0.8459084235,-0.700088938
 4\C,0.2906309834,-0.0682634459,-0.1156019487\S,-0.504514564,-1.3550789
 179,0.7957385268\C,-2.0761966773,-0.7058350122,0.4235319182\C,-1.95984
 50067,0.4750503435,-0.3533757847\C,-0.6198848442,0.8364629232,-0.66160
 55355\H,-0.2995239363,1.7013819205,-1.2455134491\S,-3.5328163897,1.123
 5914305,-0.7271948429\C,-4.3161946018,-0.1742004543,0.1456779022\C,-3.
 4233430516,-1.0792037351,0.7060207228\H,-5.4056443814,-0.1949808848,0.
 2001600307\H,-3.7369580572,-1.9495223588,1.2851225452\O,1.9854945655,2
 .0372024561,1.1350490368\H,2.6959012817,2.5535548056,1.5422527554\\Ver
 sion=ES64L-G16RevC.01\State=1-A\HF=-1649.6297139\MP2=-1651.6207214\RMS
 D=4.161e-09\RMSF=5.036e-04\Dipole=0.6711679,0.3164998,0.2498352\PG=C01
  [X(C10H6O1S3)]\\@
 The archive entry for this job was punched.


 ONLY THE DAY DAWNS TO WHICH YOU ARE AWAKE.

                                 -- THOREAU
 Job cpu time:       0 days 14 hours  7 minutes  2.0 seconds.
 Elapsed time:       0 days  1 hours 53 minutes 59.3 seconds.
 File lengths (MBytes):  RWF=    106 Int=      0 D2E=      0 Chk=     16 Scr=      1
 Normal termination of Gaussian 16 at Wed Oct 27 06:02:57 2021.
