 Entering Gaussian System, Link 0=g16
 Input=pBTTT_145.gjf
 Output=pBTTT_145.log
 Initial command:
 /apps/gaussian/g16-c01-avx/g16/l1.exe "/tmp/pbs.4766300[320].pbs/Gau-1191328.inp" -scrdir="/tmp/pbs.4766300[320].pbs/"
 Entering Link 1 = /apps/gaussian/g16-c01-avx/g16/l1.exe PID=   1191329.
  
 Copyright (c) 1988-2019, Gaussian, Inc.  All Rights Reserved.
  
 This is part of the Gaussian(R) 16 program.  It is based on
 the Gaussian(R) 09 system (copyright 2009, Gaussian, Inc.),
 the Gaussian(R) 03 system (copyright 2003, Gaussian, Inc.),
 the Gaussian(R) 98 system (copyright 1998, Gaussian, Inc.),
 the Gaussian(R) 94 system (copyright 1995, Gaussian, Inc.),
 the Gaussian 92(TM) system (copyright 1992, Gaussian, Inc.),
 the Gaussian 90(TM) system (copyright 1990, Gaussian, Inc.),
 the Gaussian 88(TM) system (copyright 1988, Gaussian, Inc.),
 the Gaussian 86(TM) system (copyright 1986, Carnegie Mellon
 University), and the Gaussian 82(TM) system (copyright 1983,
 Carnegie Mellon University). Gaussian is a federally registered
 trademark of Gaussian, Inc.
  
 This software contains proprietary and confidential information,
 including trade secrets, belonging to Gaussian, Inc.
  
 This software is provided under written license and may be
 used, copied, transmitted, or stored only in accord with that
 written license.
  
 The following legend is applicable only to US Government
 contracts under FAR:
  
                    RESTRICTED RIGHTS LEGEND
  
 Use, reproduction and disclosure by the US Government is
 subject to restrictions as set forth in subparagraphs (a)
 and (c) of the Commercial Computer Software - Restricted
 Rights clause in FAR 52.227-19.
  
 Gaussian, Inc.
 340 Quinnipiac St., Bldg. 40, Wallingford CT 06492
  
  
 ---------------------------------------------------------------
 Warning -- This program may not be used in any manner that
 competes with the business of Gaussian, Inc. or will provide
 assistance to any competitor of Gaussian, Inc.  The licensee
 of this program is prohibited from giving any competitor of
 Gaussian, Inc. access to this program.  By using this program,
 the user acknowledges that Gaussian, Inc. is engaged in the
 business of creating and licensing software in the field of
 computational chemistry and represents and warrants to the
 licensee that it is not a competitor of Gaussian, Inc. and that
 it will not use this program in any manner prohibited above.
 ---------------------------------------------------------------
  

 Cite this work as:
 Gaussian 16, Revision C.01,
 M. J. Frisch, G. W. Trucks, H. B. Schlegel, G. E. Scuseria, 
 M. A. Robb, J. R. Cheeseman, G. Scalmani, V. Barone, 
 G. A. Petersson, H. Nakatsuji, X. Li, M. Caricato, A. V. Marenich, 
 J. Bloino, B. G. Janesko, R. Gomperts, B. Mennucci, H. P. Hratchian, 
 J. V. Ortiz, A. F. Izmaylov, J. L. Sonnenberg, D. Williams-Young, 
 F. Ding, F. Lipparini, F. Egidi, J. Goings, B. Peng, A. Petrone, 
 T. Henderson, D. Ranasinghe, V. G. Zakrzewski, J. Gao, N. Rega, 
 G. Zheng, W. Liang, M. Hada, M. Ehara, K. Toyota, R. Fukuda, 
 J. Hasegawa, M. Ishida, T. Nakajima, Y. Honda, O. Kitao, H. Nakai, 
 T. Vreven, K. Throssell, J. A. Montgomery, Jr., J. E. Peralta, 
 F. Ogliaro, M. J. Bearpark, J. J. Heyd, E. N. Brothers, K. N. Kudin, 
 V. N. Staroverov, T. A. Keith, R. Kobayashi, J. Normand, 
 K. Raghavachari, A. P. Rendell, J. C. Burant, S. S. Iyengar, 
 J. Tomasi, M. Cossi, J. M. Millam, M. Klene, C. Adamo, R. Cammi, 
 J. W. Ochterski, R. L. Martin, K. Morokuma, O. Farkas, 
 J. B. Foresman, and D. J. Fox, Gaussian, Inc., Wallingford CT, 2019.
 
 ******************************************
 Gaussian 16:  ES64L-G16RevC.01  3-Jul-2019
                27-Oct-2021 
 ******************************************
 %mem=100GB
 %nprocshared=8
 Will use up to    8 processors via shared memory.
 ----------------------------------
 # opt=modredundant mp2/aug-cc-pvdz
 ----------------------------------
 1/18=120,19=15,38=1/1,3;
 2/9=110,12=2,17=6,18=5,40=1/2;
 3/5=16,7=10,11=9,25=1,30=1,71=1/1,2,3;
 4//1;
 5/5=2,38=5/2;
 8/6=4,10=1/1;
 9/15=2,16=-3/6;
 10/5=1/2;
 6/7=2,8=2,9=2,10=2/1;
 7/12=2/1,2,3,16;
 1/18=20,19=15/3(2);
 2/9=110/2;
 99//99;
 2/9=110/2;
 3/5=16,7=10,11=9,25=1,30=1,71=1/1,2,3;
 4/5=5,16=3,69=1/1;
 5/5=2,38=5/2;
 8/6=4,10=1/1;
 9/15=2,16=-3/6;
 10/5=1/2;
 7/12=2/1,2,3,16;
 1/18=20,19=15/3(-8);
 2/9=110/2;
 6/7=2,8=2,9=2,10=2/1;
 99/9=10/99;
 -------------
 pBTTT_145.pdb
 -------------
 Symbolic Z-matrix:
 Charge =  0 Multiplicity = 1
 C                    -3.933     0.838     0.143 
 C                    -2.526     1.106     0.251 
 C                    -1.741     0.041    -0.047 
 C                    -4.183    -0.432    -0.236 
 H                    -4.7       1.571     0.344 
 S                    -2.735    -1.33     -0.489 
 H                    -5.144    -0.892    -0.39 
 C                    -0.279    -0.035    -0.026 
 S                     0.529    -1.524     0.459 
 C                     2.085    -0.789     0.222 
 C                     1.957     0.508    -0.179 
 C                     0.602     0.948    -0.328 
 H                     0.304     1.932    -0.644 
 S                     3.512     1.246    -0.411 
 C                     4.306    -0.239     0.046 
 C                     3.443    -1.23      0.354 
 H                     5.382    -0.286     0.059 
 H                     3.747    -2.218     0.659 
 O                    -2.023     2.309     0.608 
 H                    -2.698     2.861     0.964 
 
 The following ModRedundant input section has been read:
 D       2       3       8       9 F                                           
 

 GradGradGradGradGradGradGradGradGradGradGradGradGradGradGradGradGradGrad
 Berny optimization.
 Initialization pass.
                           ----------------------------
                           !    Initial Parameters    !
                           ! (Angstroms and Degrees)  !
 --------------------------                            --------------------------
 ! Name  Definition              Value          Derivative Info.                !
 --------------------------------------------------------------------------------
 ! R1    R(1,2)                  1.4364         estimate D2E/DX2                !
 ! R2    R(1,4)                  1.3487         estimate D2E/DX2                !
 ! R3    R(1,5)                  1.0798         estimate D2E/DX2                !
 ! R4    R(2,3)                  1.3562         estimate D2E/DX2                !
 ! R5    R(2,19)                 1.3519         estimate D2E/DX2                !
 ! R6    R(3,6)                  1.7502         estimate D2E/DX2                !
 ! R7    R(3,8)                  1.4641         estimate D2E/DX2                !
 ! R8    R(4,6)                  1.7225         estimate D2E/DX2                !
 ! R9    R(4,7)                  1.0765         estimate D2E/DX2                !
 ! R10   R(8,9)                  1.7622         estimate D2E/DX2                !
 ! R11   R(8,12)                 1.3541         estimate D2E/DX2                !
 ! R12   R(9,10)                 1.7371         estimate D2E/DX2                !
 ! R13   R(10,11)                1.3636         estimate D2E/DX2                !
 ! R14   R(10,16)                1.4339         estimate D2E/DX2                !
 ! R15   R(11,12)                1.4324         estimate D2E/DX2                !
 ! R16   R(11,14)                1.7368         estimate D2E/DX2                !
 ! R17   R(12,13)                1.0756         estimate D2E/DX2                !
 ! R18   R(14,15)                1.7449         estimate D2E/DX2                !
 ! R19   R(15,16)                1.3497         estimate D2E/DX2                !
 ! R20   R(15,17)                1.0771         estimate D2E/DX2                !
 ! R21   R(16,18)                1.0778         estimate D2E/DX2                !
 ! R22   R(19,20)                0.9418         estimate D2E/DX2                !
 ! A1    A(2,1,4)              112.2342         estimate D2E/DX2                !
 ! A2    A(2,1,5)              123.7203         estimate D2E/DX2                !
 ! A3    A(4,1,5)              124.0454         estimate D2E/DX2                !
 ! A4    A(1,2,3)              113.8255         estimate D2E/DX2                !
 ! A5    A(1,2,19)             123.3907         estimate D2E/DX2                !
 ! A6    A(3,2,19)             122.7825         estimate D2E/DX2                !
 ! A7    A(2,3,6)              109.9934         estimate D2E/DX2                !
 ! A8    A(2,3,8)              127.9954         estimate D2E/DX2                !
 ! A9    A(6,3,8)              122.0112         estimate D2E/DX2                !
 ! A10   A(1,4,6)              112.108          estimate D2E/DX2                !
 ! A11   A(1,4,7)              127.4485         estimate D2E/DX2                !
 ! A12   A(6,4,7)              120.4412         estimate D2E/DX2                !
 ! A13   A(3,6,4)               91.8311         estimate D2E/DX2                !
 ! A14   A(3,8,9)              120.376          estimate D2E/DX2                !
 ! A15   A(3,8,12)             127.5013         estimate D2E/DX2                !
 ! A16   A(9,8,12)             112.1147         estimate D2E/DX2                !
 ! A17   A(8,9,10)              90.8964         estimate D2E/DX2                !
 ! A18   A(9,10,11)            111.0076         estimate D2E/DX2                !
 ! A19   A(9,10,16)            134.8812         estimate D2E/DX2                !
 ! A20   A(11,10,16)           114.1109         estimate D2E/DX2                !
 ! A21   A(10,11,12)           114.3026         estimate D2E/DX2                !
 ! A22   A(10,11,14)           111.0636         estimate D2E/DX2                !
 ! A23   A(12,11,14)           134.629          estimate D2E/DX2                !
 ! A24   A(8,12,11)            111.6698         estimate D2E/DX2                !
 ! A25   A(8,12,13)            123.3243         estimate D2E/DX2                !
 ! A26   A(11,12,13)           125.0054         estimate D2E/DX2                !
 ! A27   A(11,14,15)            90.6186         estimate D2E/DX2                !
 ! A28   A(14,15,16)           113.1846         estimate D2E/DX2                !
 ! A29   A(14,15,17)           119.6621         estimate D2E/DX2                !
 ! A30   A(16,15,17)           127.1532         estimate D2E/DX2                !
 ! A31   A(10,16,15)           111.0222         estimate D2E/DX2                !
 ! A32   A(10,16,18)           125.1082         estimate D2E/DX2                !
 ! A33   A(15,16,18)           123.8696         estimate D2E/DX2                !
 ! A34   A(2,19,20)            110.7745         estimate D2E/DX2                !
 ! D1    D(4,1,2,3)              0.0336         estimate D2E/DX2                !
 ! D2    D(4,1,2,19)           179.6342         estimate D2E/DX2                !
 ! D3    D(5,1,2,3)            179.9656         estimate D2E/DX2                !
 ! D4    D(5,1,2,19)            -0.4338         estimate D2E/DX2                !
 ! D5    D(2,1,4,6)             -0.6417         estimate D2E/DX2                !
 ! D6    D(2,1,4,7)            179.9172         estimate D2E/DX2                !
 ! D7    D(5,1,4,6)            179.4266         estimate D2E/DX2                !
 ! D8    D(5,1,4,7)             -0.0145         estimate D2E/DX2                !
 ! D9    D(1,2,3,6)              0.5725         estimate D2E/DX2                !
 ! D10   D(1,2,3,8)           -179.3647         estimate D2E/DX2                !
 ! D11   D(19,2,3,6)          -179.0308         estimate D2E/DX2                !
 ! D12   D(19,2,3,8)             1.0319         estimate D2E/DX2                !
 ! D13   D(1,2,19,20)           13.3812         estimate D2E/DX2                !
 ! D14   D(3,2,19,20)         -167.0534         estimate D2E/DX2                !
 ! D15   D(2,3,6,4)             -0.7843         estimate D2E/DX2                !
 ! D16   D(8,3,6,4)            179.1574         estimate D2E/DX2                !
 ! D17   D(2,3,8,9)            145.04           Frozen                          !
 ! D18   D(2,3,8,12)           -33.8487         estimate D2E/DX2                !
 ! D19   D(6,3,8,9)            -34.8905         estimate D2E/DX2                !
 ! D20   D(6,3,8,12)           146.2209         estimate D2E/DX2                !
 ! D21   D(1,4,6,3)              0.8221         estimate D2E/DX2                !
 ! D22   D(7,4,6,3)           -179.6926         estimate D2E/DX2                !
 ! D23   D(3,8,9,10)          -179.7626         estimate D2E/DX2                !
 ! D24   D(12,8,9,10)           -0.7143         estimate D2E/DX2                !
 ! D25   D(3,8,12,11)          179.3206         estimate D2E/DX2                !
 ! D26   D(3,8,12,13)           -0.9452         estimate D2E/DX2                !
 ! D27   D(9,8,12,11)            0.3555         estimate D2E/DX2                !
 ! D28   D(9,8,12,13)         -179.9103         estimate D2E/DX2                !
 ! D29   D(8,9,10,11)            0.8884         estimate D2E/DX2                !
 ! D30   D(8,9,10,16)         -179.3017         estimate D2E/DX2                !
 ! D31   D(9,10,11,12)          -0.8729         estimate D2E/DX2                !
 ! D32   D(9,10,11,14)         179.8            estimate D2E/DX2                !
 ! D33   D(16,10,11,12)        179.2747         estimate D2E/DX2                !
 ! D34   D(16,10,11,14)         -0.0525         estimate D2E/DX2                !
 ! D35   D(9,10,16,15)        -179.7374         estimate D2E/DX2                !
 ! D36   D(9,10,16,18)           0.1809         estimate D2E/DX2                !
 ! D37   D(11,10,16,15)          0.0682         estimate D2E/DX2                !
 ! D38   D(11,10,16,18)        179.9865         estimate D2E/DX2                !
 ! D39   D(10,11,12,8)           0.3371         estimate D2E/DX2                !
 ! D40   D(10,11,12,13)       -179.3918         estimate D2E/DX2                !
 ! D41   D(14,11,12,8)         179.4548         estimate D2E/DX2                !
 ! D42   D(14,11,12,13)         -0.2741         estimate D2E/DX2                !
 ! D43   D(10,11,14,15)          0.0189         estimate D2E/DX2                !
 ! D44   D(12,11,14,15)       -179.1194         estimate D2E/DX2                !
 ! D45   D(11,14,15,16)          0.0205         estimate D2E/DX2                !
 ! D46   D(11,14,15,17)       -179.9316         estimate D2E/DX2                !
 ! D47   D(14,15,16,10)         -0.0522         estimate D2E/DX2                !
 ! D48   D(14,15,16,18)       -179.9718         estimate D2E/DX2                !
 ! D49   D(17,15,16,10)        179.8955         estimate D2E/DX2                !
 ! D50   D(17,15,16,18)         -0.024          estimate D2E/DX2                !
 --------------------------------------------------------------------------------
 Trust Radius=3.00D-01 FncErr=1.00D-07 GrdErr=1.00D-07 EigMax=2.50D+02 EigMin=1.00D-04
 Number of steps in this run=    116 maximum allowed number of steps=    120.
 GradGradGradGradGradGradGradGradGradGradGradGradGradGradGradGradGradGrad

                          Input orientation:                          
 ---------------------------------------------------------------------
 Center     Atomic      Atomic             Coordinates (Angstroms)
 Number     Number       Type             X           Y           Z
 ---------------------------------------------------------------------
      1          6           0       -3.933000    0.838000    0.143000
      2          6           0       -2.526000    1.106000    0.251000
      3          6           0       -1.741000    0.041000   -0.047000
      4          6           0       -4.183000   -0.432000   -0.236000
      5          1           0       -4.700000    1.571000    0.344000
      6         16           0       -2.735000   -1.330000   -0.489000
      7          1           0       -5.144000   -0.892000   -0.390000
      8          6           0       -0.279000   -0.035000   -0.026000
      9         16           0        0.529000   -1.524000    0.459000
     10          6           0        2.085000   -0.789000    0.222000
     11          6           0        1.957000    0.508000   -0.179000
     12          6           0        0.602000    0.948000   -0.328000
     13          1           0        0.304000    1.932000   -0.644000
     14         16           0        3.512000    1.246000   -0.411000
     15          6           0        4.306000   -0.239000    0.046000
     16          6           0        3.443000   -1.230000    0.354000
     17          1           0        5.382000   -0.286000    0.059000
     18          1           0        3.747000   -2.218000    0.659000
     19          8           0       -2.023000    2.309000    0.608000
     20          1           0       -2.698000    2.861000    0.964000
 ---------------------------------------------------------------------
                    Distance matrix (angstroms):
                    1          2          3          4          5
     1  C    0.000000
     2  C    1.436362   0.000000
     3  C    2.340122   1.356191   0.000000
     4  C    1.348718   2.312631   2.494557   0.000000
     5  H    1.079805   2.225118   3.354022   2.148418   0.000000
     6  S    2.556336   2.554482   1.750155   1.722532   3.601516
     7  H    2.177960   3.355117   3.545215   1.076493   2.608114
     8  C    3.760639   2.535275   1.464125   3.929749   4.718196
     9  S    5.058492   4.036482   2.803241   4.886556   6.077392
    10  C    6.234556   4.985297   3.924224   6.294842   7.184755
    11  C    5.908019   4.543104   3.729707   6.211799   6.761594
    12  C    4.560720   3.185057   2.528094   4.980872   5.380606
    13  H    4.446164   3.080942   2.848564   5.088038   5.113363
    14  S    7.476724   6.075795   5.401715   7.877775   8.253035
    15  C    8.309661   6.966152   6.054193   8.495875   9.190916
    16  C    7.663323   6.410653   5.352579   7.690304   8.611280
    17  H    9.382945   8.031874   7.131290   9.570662  10.255554
    18  H    8.281775   7.110975   5.976593   8.177758   9.263237
    19  O    2.455232   1.351912   2.377472   3.590406   2.789385
    20  H    2.508345   1.902098   3.144896   3.806452   2.460997
                    6          7          8          9         10
     6  S    0.000000
     7  H    2.450495   0.000000
     8  C    2.814841   4.953299   0.000000
     9  S    3.404414   5.770888   1.762161   0.000000
    10  C    4.902102   7.255591   2.493695   1.737104   0.000000
    11  C    5.048684   7.240768   2.306069   2.564225   1.363596
    12  C    4.043609   6.033735   1.354125   2.595281   2.349246
    13  H    4.460963   6.141677   2.142639   3.634717   3.365376
    14  S    6.757727   8.916155   4.020058   4.162702   2.564809
    15  C    7.145081   9.482563   4.590101   4.010925   2.294846
    16  C    6.236051   8.625796   3.927558   2.930675   1.433900
    17  H    8.202191  10.552986   5.667199   5.024366   3.339130
    18  H    6.642497   9.050335   4.630701   3.298054   2.235006
    19  O    3.866869   4.580725   2.989620   4.607254   5.159677
    20  H    4.435883   4.679876   3.901087   5.467795   6.062190
                   11         12         13         14         15
    11  C    0.000000
    12  C    1.432420   0.000000
    13  H    2.230787   1.075600   0.000000
    14  S    1.736805   2.926396   3.288791   0.000000
    15  C    2.475164   3.907488   4.604926   1.744852   0.000000
    16  C    2.347963   3.644186   4.565914   2.592405   1.349709
    17  H    3.523876   4.951861   5.585680   2.462686   1.077104
    18  H    3.367109   4.570421   5.547482   3.633101   2.145854
    19  O    4.438848   3.101458   2.669188   5.727526   6.845757
    20  H    5.339671   4.027261   3.529973   6.562237   7.714191
                   16         17         18         19         20
    16  C    0.000000
    17  H    2.176668   0.000000
    18  H    1.077769   2.601125   0.000000
    19  O    6.516609   7.865714   7.334114   0.000000
    20  H    7.404071   8.718316   8.211412   0.941841   0.000000
 Stoichiometry    C10H6OS3
 Framework group  C1[X(C10H6OS3)]
 Deg. of freedom    54
 Full point group                 C1      NOp   1
 Largest Abelian subgroup         C1      NOp   1
 Largest concise Abelian subgroup C1      NOp   1
                         Standard orientation:                         
 ---------------------------------------------------------------------
 Center     Atomic      Atomic             Coordinates (Angstroms)
 Number     Number       Type             X           Y           Z
 ---------------------------------------------------------------------
      1          6           0       -3.932865    0.838146    0.143000
      2          6           0       -2.525850    1.106070    0.251000
      3          6           0       -1.740908    0.041028   -0.047000
      4          6           0       -4.182933   -0.431841   -0.236000
      5          1           0       -4.699825    1.571187    0.344000
      6         16           0       -2.734981   -1.329919   -0.489000
      7          1           0       -5.143958   -0.891789   -0.390000
      8          6           0       -0.278912   -0.035051   -0.026000
      9         16           0        0.529008   -1.524094    0.459000
     10          6           0        2.085048   -0.789178    0.222000
     11          6           0        1.957117    0.507829   -0.179000
     12          6           0        0.602141    0.947902   -0.328000
     13          1           0        0.304194    1.931918   -0.644000
     14         16           0        3.512157    1.245746   -0.411000
     15          6           0        4.306077   -0.239297    0.046000
     16          6           0        3.443024   -1.230251    0.354000
     17          1           0        5.382075   -0.286355    0.059000
     18          1           0        3.746971   -2.218267    0.659000
     19          8           0       -2.022786    2.309043    0.608000
     20          1           0       -2.697756    2.861079    0.964000
 ---------------------------------------------------------------------
 Rotational constants (GHZ):           1.3140503           0.2780180           0.2366145
 Standard basis: Aug-CC-pVDZ (5D, 7F)
 There are   416 symmetry adapted cartesian basis functions of A   symmetry.
 There are   388 symmetry adapted basis functions of A   symmetry.
   388 basis functions,   782 primitive gaussians,   416 cartesian basis functions
    61 alpha electrons       61 beta electrons
       nuclear repulsion energy      1129.1769652137 Hartrees.
 NAtoms=   20 NActive=   20 NUniq=   20 SFac= 1.00D+00 NAtFMM=   60 NAOKFM=F Big=F
 Integral buffers will be    131072 words long.
 Raffenetti 1 integral format.
 Two-electron integral symmetry is turned on.
 One-electron integrals computed using PRISM.
 NBasis=   388 RedAO= T EigKep=  3.33D-06  NBF=   388
 NBsUse=   388 1.00D-06 EigRej= -1.00D+00 NBFU=   388
 ExpMin= 2.97D-02 ExpMax= 1.11D+05 ExpMxC= 1.07D+03 IAcc=3 IRadAn=         5 AccDes= 0.00D+00
 Harris functional with IExCor=  205 and IRadAn=       5 diagonalized for initial guess.
 HarFok:  IExCor=  205 AccDes= 0.00D+00 IRadAn=         5 IDoV= 1 UseB2=F ITyADJ=14
 ICtDFT=  3500011 ScaDFX=  1.000000  1.000000  1.000000  1.000000
 FoFCou: FMM=F IPFlag=           0 FMFlag=      100000 FMFlg1=           0
         NFxFlg=           0 DoJE=T BraDBF=F KetDBF=T FulRan=T
         wScrn=  0.000000 ICntrl=       500 IOpCl=  0 I1Cent=   200000004 NGrid=           0
         NMat0=    1 NMatS0=      1 NMatT0=    0 NMatD0=    1 NMtDS0=    0 NMtDT0=    0
 Petite list used in FoFCou.
 Requested convergence on RMS density matrix=1.00D-08 within 128 cycles.
 Requested convergence on MAX density matrix=1.00D-06.
 Requested convergence on             energy=1.00D-06.
 No special actions if energy rises.
 SCF Done:  E(RHF) =  -1649.64262489     A.U. after   17 cycles
            NFock= 17  Conv=0.61D-08     -V/T= 2.0000
 ExpMin= 2.97D-02 ExpMax= 1.11D+05 ExpMxC= 1.07D+03 IAcc=3 IRadAn=         5 AccDes= 0.00D+00
 HarFok:  IExCor=  205 AccDes= 0.00D+00 IRadAn=         5 IDoV=-2 UseB2=F ITyADJ=14
 ICtDFT= 12500011 ScaDFX=  1.000000  1.000000  1.000000  1.000000
 GSVD:  LWork=        -884 too small for GESVD, short by        3770 words or        3770 for optimal perf.
 Range of M.O.s used for correlation:    27   388
 NBasis=   388 NAE=    61 NBE=    61 NFC=    26 NFV=     0
 NROrb=    362 NOA=    35 NOB=    35 NVA=   327 NVB=   327

 **** Warning!!: The largest alpha MO coefficient is  0.67103005D+02

 Fully direct method using O(ONN) memory.
 JobTyp=1 Pass  1:  I=  27 to  61 NPSUse=  8 ParTrn=T ParDer=T DoDerP=T.
 Spin components of T(2) and E(2):
     alpha-alpha T2 =       0.1138952889D+00 E2=     -0.2742520029D+00
     alpha-beta  T2 =       0.5545005229D+00 E2=     -0.1421157767D+01
     beta-beta   T2 =       0.1138952889D+00 E2=     -0.2742520029D+00
 ANorm=    0.1335024757D+01
 E2 =    -0.1969661773D+01 EUMP2 =    -0.16516122866585D+04
          IDoAtm=11111111111111111111
          Differentiating once with respect to electric field.
                with respect to dipole field.
          Differentiating once with respect to nuclear coordinates.
 Keep R1 ints in memory in canonical form, NReq=2883857471.
          There are     1 degrees of freedom in the 1st order CPHF.  IDoFFX=0 NUNeed=     1.
 LinEq1:  Iter=  0 NonCon=     1 RMS=2.87D-03 Max=6.14D-02 NDo=     1
 AX will form     1 AO Fock derivatives at one time.
 LinEq1:  Iter=  1 NonCon=     1 RMS=6.76D-04 Max=1.02D-02 NDo=     1
 LinEq1:  Iter=  2 NonCon=     1 RMS=3.47D-04 Max=1.12D-02 NDo=     1
 LinEq1:  Iter=  3 NonCon=     1 RMS=9.17D-05 Max=2.00D-03 NDo=     1
 LinEq1:  Iter=  4 NonCon=     1 RMS=3.55D-05 Max=9.01D-04 NDo=     1
 LinEq1:  Iter=  5 NonCon=     1 RMS=1.50D-05 Max=6.23D-04 NDo=     1
 LinEq1:  Iter=  6 NonCon=     1 RMS=5.91D-06 Max=2.10D-04 NDo=     1
 LinEq1:  Iter=  7 NonCon=     1 RMS=2.98D-06 Max=1.36D-04 NDo=     1
 LinEq1:  Iter=  8 NonCon=     1 RMS=1.08D-06 Max=3.54D-05 NDo=     1
 LinEq1:  Iter=  9 NonCon=     1 RMS=4.95D-07 Max=1.98D-05 NDo=     1
 LinEq1:  Iter= 10 NonCon=     1 RMS=1.86D-07 Max=3.23D-06 NDo=     1
 LinEq1:  Iter= 11 NonCon=     1 RMS=8.13D-08 Max=3.54D-06 NDo=     1
 LinEq1:  Iter= 12 NonCon=     1 RMS=2.97D-08 Max=5.21D-07 NDo=     1
 LinEq1:  Iter= 13 NonCon=     1 RMS=1.17D-08 Max=1.96D-07 NDo=     1
 LinEq1:  Iter= 14 NonCon=     1 RMS=3.64D-09 Max=4.99D-08 NDo=     1
 LinEq1:  Iter= 15 NonCon=     1 RMS=1.52D-09 Max=4.43D-08 NDo=     1
 LinEq1:  Iter= 16 NonCon=     1 RMS=5.83D-10 Max=1.62D-08 NDo=     1
 LinEq1:  Iter= 17 NonCon=     1 RMS=2.40D-10 Max=6.55D-09 NDo=     1
 LinEq1:  Iter= 18 NonCon=     1 RMS=8.79D-11 Max=1.70D-09 NDo=     1
 LinEq1:  Iter= 19 NonCon=     0 RMS=2.86D-11 Max=4.30D-10 NDo=     1
 Linear equations converged to 1.000D-10 1.000D-09 after    19 iterations.
 End of Minotr F.D. properties file   721 does not exist.
 End of Minotr F.D. properties file   722 does not exist.
 End of Minotr F.D. properties file   788 does not exist.

 **********************************************************************

            Population analysis using the SCF Density.

 **********************************************************************

 Orbital symmetries:
       Occupied  (A) (A) (A) (A) (A) (A) (A) (A) (A) (A) (A) (A)
                 (A) (A) (A) (A) (A) (A) (A) (A) (A) (A) (A) (A)
                 (A) (A) (A) (A) (A) (A) (A) (A) (A) (A) (A) (A)
                 (A) (A) (A) (A) (A) (A) (A) (A) (A) (A) (A) (A)
                 (A) (A) (A) (A) (A) (A) (A) (A) (A) (A) (A) (A)
                 (A)
       Virtual   (A) (A) (A) (A) (A) (A) (A) (A) (A) (A) (A) (A)
                 (A) (A) (A) (A) (A) (A) (A) (A) (A) (A) (A) (A)
                 (A) (A) (A) (A) (A) (A) (A) (A) (A) (A) (A) (A)
                 (A) (A) (A) (A) (A) (A) (A) (A) (A) (A) (A) (A)
                 (A) (A) (A) (A) (A) (A) (A) (A) (A) (A) (A) (A)
                 (A) (A) (A) (A) (A) (A) (A) (A) (A) (A) (A) (A)
                 (A) (A) (A) (A) (A) (A) (A) (A) (A) (A) (A) (A)
                 (A) (A) (A) (A) (A) (A) (A) (A) (A) (A) (A) (A)
                 (A) (A) (A) (A) (A) (A) (A) (A) (A) (A) (A) (A)
                 (A) (A) (A) (A) (A) (A) (A) (A) (A) (A) (A) (A)
                 (A) (A) (A) (A) (A) (A) (A) (A) (A) (A) (A) (A)
                 (A) (A) (A) (A) (A) (A) (A) (A) (A) (A) (A) (A)
                 (A) (A) (A) (A) (A) (A) (A) (A) (A) (A) (A) (A)
                 (A) (A) (A) (A) (A) (A) (A) (A) (A) (A) (A) (A)
                 (A) (A) (A) (A) (A) (A) (A) (A) (A) (A) (A) (A)
                 (A) (A) (A) (A) (A) (A) (A) (A) (A) (A) (A) (A)
                 (A) (A) (A) (A) (A) (A) (A) (A) (A) (A) (A) (A)
                 (A) (A) (A) (A) (A) (A) (A) (A) (A) (A) (A) (A)
                 (A) (A) (A) (A) (A) (A) (A) (A) (A) (A) (A) (A)
                 (A) (A) (A) (A) (A) (A) (A) (A) (A) (A) (A) (A)
                 (A) (A) (A) (A) (A) (A) (A) (A) (A) (A) (A) (A)
                 (A) (A) (A) (A) (A) (A) (A) (A) (A) (A) (A) (A)
                 (A) (A) (A) (A) (A) (A) (A) (A) (A) (A) (A) (A)
                 (A) (A) (A) (A) (A) (A) (A) (A) (A) (A) (A) (A)
                 (A) (A) (A) (A) (A) (A) (A) (A) (A) (A) (A) (A)
                 (A) (A) (A) (A) (A) (A) (A) (A) (A) (A) (A) (A)
                 (A) (A) (A) (A) (A) (A) (A) (A) (A) (A) (A) (A)
                 (A) (A) (A)
 The electronic state is 1-A.
 Alpha  occ. eigenvalues --  -91.99124 -91.98596 -91.98534 -20.61253 -11.31814
 Alpha  occ. eigenvalues --  -11.28618 -11.28434 -11.27351 -11.27317 -11.26822
 Alpha  occ. eigenvalues --  -11.26667 -11.25645 -11.25414 -11.24944  -8.99333
 Alpha  occ. eigenvalues --   -8.98780  -8.98716  -6.67502  -6.67410  -6.67209
 Alpha  occ. eigenvalues --   -6.66947  -6.66883  -6.66869  -6.66803  -6.66663
 Alpha  occ. eigenvalues --   -6.66591  -1.43207  -1.21289  -1.18565  -1.12590
 Alpha  occ. eigenvalues --   -1.03049  -1.02020  -0.98838  -0.95527  -0.94255
 Alpha  occ. eigenvalues --   -0.82780  -0.81338  -0.76985  -0.75137  -0.72307
 Alpha  occ. eigenvalues --   -0.69808  -0.66919  -0.66345  -0.62251  -0.61344
 Alpha  occ. eigenvalues --   -0.58366  -0.56331  -0.55979  -0.54156  -0.53080
 Alpha  occ. eigenvalues --   -0.52233  -0.51077  -0.49497  -0.48423  -0.46534
 Alpha  occ. eigenvalues --   -0.45705  -0.38738  -0.35681  -0.33960  -0.31838
 Alpha  occ. eigenvalues --   -0.27824
 Alpha virt. eigenvalues --    0.02710   0.03742   0.03882   0.05106   0.05129
 Alpha virt. eigenvalues --    0.06382   0.07380   0.08258   0.08662   0.09439
 Alpha virt. eigenvalues --    0.10212   0.10505   0.10720   0.11016   0.11452
 Alpha virt. eigenvalues --    0.12461   0.12663   0.12939   0.13039   0.13291
 Alpha virt. eigenvalues --    0.13809   0.14075   0.14441   0.14774   0.15302
 Alpha virt. eigenvalues --    0.15503   0.15639   0.16435   0.16782   0.17116
 Alpha virt. eigenvalues --    0.17983   0.18225   0.18550   0.19144   0.19655
 Alpha virt. eigenvalues --    0.19945   0.20339   0.20866   0.21500   0.22036
 Alpha virt. eigenvalues --    0.22161   0.22347   0.22742   0.23440   0.23782
 Alpha virt. eigenvalues --    0.24104   0.24475   0.25539   0.25598   0.25940
 Alpha virt. eigenvalues --    0.26637   0.26875   0.27090   0.27806   0.28361
 Alpha virt. eigenvalues --    0.29101   0.29481   0.30248   0.31068   0.31344
 Alpha virt. eigenvalues --    0.31810   0.32209   0.32519   0.32737   0.33541
 Alpha virt. eigenvalues --    0.34101   0.34124   0.34972   0.35122   0.35709
 Alpha virt. eigenvalues --    0.36362   0.37184   0.37996   0.38324   0.38963
 Alpha virt. eigenvalues --    0.40128   0.40690   0.41102   0.41483   0.42313
 Alpha virt. eigenvalues --    0.43124   0.43898   0.44823   0.45205   0.45477
 Alpha virt. eigenvalues --    0.46176   0.46738   0.47482   0.48491   0.49110
 Alpha virt. eigenvalues --    0.49460   0.49943   0.50276   0.50916   0.52256
 Alpha virt. eigenvalues --    0.52948   0.53640   0.54348   0.54799   0.55139
 Alpha virt. eigenvalues --    0.56228   0.57715   0.58514   0.59222   0.59963
 Alpha virt. eigenvalues --    0.60853   0.61185   0.61523   0.62165   0.63159
 Alpha virt. eigenvalues --    0.63350   0.63976   0.65034   0.65303   0.66276
 Alpha virt. eigenvalues --    0.66588   0.66959   0.67435   0.67777   0.68026
 Alpha virt. eigenvalues --    0.69054   0.69445   0.69901   0.70743   0.71529
 Alpha virt. eigenvalues --    0.71631   0.72034   0.73010   0.73128   0.74405
 Alpha virt. eigenvalues --    0.74675   0.75071   0.75844   0.76615   0.76717
 Alpha virt. eigenvalues --    0.77408   0.77662   0.78108   0.79047   0.79729
 Alpha virt. eigenvalues --    0.81157   0.82956   0.83534   0.84084   0.84745
 Alpha virt. eigenvalues --    0.85835   0.86309   0.86818   0.87850   0.88124
 Alpha virt. eigenvalues --    0.88583   0.89306   0.90388   0.91543   0.91820
 Alpha virt. eigenvalues --    0.92188   0.93076   0.93864   0.94762   0.95768
 Alpha virt. eigenvalues --    0.96315   0.96731   0.98059   0.98100   0.98806
 Alpha virt. eigenvalues --    0.99591   1.00015   1.01104   1.02372   1.03048
 Alpha virt. eigenvalues --    1.03757   1.05428   1.06348   1.06694   1.08837
 Alpha virt. eigenvalues --    1.10185   1.10669   1.11248   1.12375   1.12990
 Alpha virt. eigenvalues --    1.14349   1.15423   1.16730   1.17259   1.18412
 Alpha virt. eigenvalues --    1.20734   1.21436   1.21730   1.22659   1.23509
 Alpha virt. eigenvalues --    1.24325   1.24872   1.25771   1.27678   1.28329
 Alpha virt. eigenvalues --    1.28883   1.29870   1.30592   1.32023   1.32832
 Alpha virt. eigenvalues --    1.33955   1.34610   1.35170   1.36806   1.37873
 Alpha virt. eigenvalues --    1.39264   1.40326   1.41261   1.41825   1.43075
 Alpha virt. eigenvalues --    1.43484   1.45241   1.47316   1.48015   1.50517
 Alpha virt. eigenvalues --    1.52397   1.53754   1.55505   1.56605   1.56845
 Alpha virt. eigenvalues --    1.58146   1.58802   1.59551   1.61430   1.62653
 Alpha virt. eigenvalues --    1.63520   1.64381   1.66410   1.66811   1.67282
 Alpha virt. eigenvalues --    1.68549   1.69936   1.70599   1.71591   1.72365
 Alpha virt. eigenvalues --    1.73643   1.74265   1.76200   1.77871   1.78031
 Alpha virt. eigenvalues --    1.79854   1.80964   1.81714   1.83059   1.84101
 Alpha virt. eigenvalues --    1.85217   1.86508   1.87260   1.89630   1.89792
 Alpha virt. eigenvalues --    1.91254   1.92158   1.93400   1.94620   1.96822
 Alpha virt. eigenvalues --    1.98194   1.99200   2.00889   2.02484   2.05222
 Alpha virt. eigenvalues --    2.05960   2.07966   2.08330   2.09406   2.10800
 Alpha virt. eigenvalues --    2.11778   2.12951   2.13829   2.14596   2.15474
 Alpha virt. eigenvalues --    2.16672   2.19664   2.21296   2.21542   2.23397
 Alpha virt. eigenvalues --    2.25634   2.26273   2.27869   2.29007   2.32275
 Alpha virt. eigenvalues --    2.33009   2.34335   2.36107   2.36682   2.37651
 Alpha virt. eigenvalues --    2.39887   2.41219   2.42405   2.45180   2.46714
 Alpha virt. eigenvalues --    2.48345   2.49010   2.51626   2.52265   2.53219
 Alpha virt. eigenvalues --    2.56480   2.59565   2.60722   2.63560   2.67937
 Alpha virt. eigenvalues --    2.75057   2.80760   2.84030   2.85935   2.87614
 Alpha virt. eigenvalues --    2.91382   2.95799   2.98257   3.01175   3.06265
 Alpha virt. eigenvalues --    3.14759   3.17928   3.25777   3.26597   3.37974
 Alpha virt. eigenvalues --    3.41191   3.54016   3.60643   3.64389   3.76740
 Alpha virt. eigenvalues --    3.78419   3.80276   3.85504   3.91242   4.18899
 Alpha virt. eigenvalues --    4.26716   4.46876
          Condensed to atoms (all electrons):
               1          2          3          4          5          6
     1  C    8.193191  -2.688321   0.329462  -0.079804  -0.254883  -0.399625
     2  C   -2.688321  12.266208  -2.851180   0.711440   0.219309  -0.346576
     3  C    0.329462  -2.851180  11.617533  -1.349590   0.051229  -0.140907
     4  C   -0.079804   0.711440  -1.349590   6.591170  -0.031928   0.299114
     5  H   -0.254883   0.219309   0.051229  -0.031928   1.657508  -0.026702
     6  S   -0.399625  -0.346576  -0.140907   0.299114  -0.026702  16.242989
     7  H    0.003013   0.074118   0.003787   0.182092  -0.067515  -0.132127
     8  C    0.394460  -0.638053  -1.970926   0.159987  -0.036292   0.072001
     9  S   -0.003504   0.015168  -0.471268  -0.006614  -0.002825   0.140786
    10  C    0.017305   0.023302  -0.235154  -0.003354  -0.002291   0.042169
    11  C   -0.067364   0.099345   0.414287   0.006843   0.002399  -0.011284
    12  C   -0.098282  -0.336427  -0.141208  -0.072052   0.014912  -0.265807
    13  H    0.010704   0.091966  -0.020288   0.007099   0.003166   0.002131
    14  S   -0.000319   0.011466  -0.063821  -0.000308  -0.000118  -0.000096
    15  C    0.000507  -0.006370   0.018155   0.000027   0.000039  -0.001278
    16  C    0.001044  -0.005477  -0.301019  -0.003982  -0.000130   0.020747
    17  H    0.000031   0.000315  -0.000387  -0.000015   0.000002  -0.000131
    18  H   -0.000261   0.001124  -0.009265  -0.000059  -0.000033   0.001080
    19  O    0.146430  -0.869610   0.368425  -0.084078  -0.056288   0.013299
    20  H   -0.105092   0.015090  -0.055662  -0.004468  -0.007307   0.008528
               7          8          9         10         11         12
     1  C    0.003013   0.394460  -0.003504   0.017305  -0.067364  -0.098282
     2  C    0.074118  -0.638053   0.015168   0.023302   0.099345  -0.336427
     3  C    0.003787  -1.970926  -0.471268  -0.235154   0.414287  -0.141208
     4  C    0.182092   0.159987  -0.006614  -0.003354   0.006843  -0.072052
     5  H   -0.067515  -0.036292  -0.002825  -0.002291   0.002399   0.014912
     6  S   -0.132127   0.072001   0.140786   0.042169  -0.011284  -0.265807
     7  H    1.270700   0.013767   0.004781   0.002732   0.000073  -0.007490
     8  C    0.013767  11.738898   0.209372  -0.405042  -0.359961  -3.504338
     9  S    0.004781   0.209372  16.572921   0.310119  -0.618023  -0.504741
    10  C    0.002732  -0.405042   0.310119  11.256626  -1.281649  -0.783800
    11  C    0.000073  -0.359961  -0.618023  -1.281649  12.706947  -3.315380
    12  C   -0.007490  -3.504338  -0.504741  -0.783800  -3.315380  16.312001
    13  H    0.000219   0.560382   0.026430  -0.097413   0.516519  -1.294680
    14  S   -0.000034  -0.331958   0.126356   0.075750  -0.495359   0.144309
    15  C    0.000014   0.063151  -0.100142  -0.048918  -1.103145  -0.025609
    16  C   -0.000246  -0.219453  -0.193819  -2.787273  -0.436489  -0.295960
    17  H    0.000001  -0.000365   0.012408   0.093764  -0.084720   0.034804
    18  H    0.000023   0.078413   0.030052   0.533280   0.049920  -0.052085
    19  O   -0.002498   0.064835   0.001333   0.002164  -0.025173  -0.015422
    20  H    0.001640   0.000336  -0.000950   0.000728  -0.000665   0.015391
              13         14         15         16         17         18
     1  C    0.010704  -0.000319   0.000507   0.001044   0.000031  -0.000261
     2  C    0.091966   0.011466  -0.006370  -0.005477   0.000315   0.001124
     3  C   -0.020288  -0.063821   0.018155  -0.301019  -0.000387  -0.009265
     4  C    0.007099  -0.000308   0.000027  -0.003982  -0.000015  -0.000059
     5  H    0.003166  -0.000118   0.000039  -0.000130   0.000002  -0.000033
     6  S    0.002131  -0.000096  -0.001278   0.020747  -0.000131   0.001080
     7  H    0.000219  -0.000034   0.000014  -0.000246   0.000001   0.000023
     8  C    0.560382  -0.331958   0.063151  -0.219453  -0.000365   0.078413
     9  S    0.026430   0.126356  -0.100142  -0.193819   0.012408   0.030052
    10  C   -0.097413   0.075750  -0.048918  -2.787273   0.093764   0.533280
    11  C    0.516519  -0.495359  -1.103145  -0.436489  -0.084720   0.049920
    12  C   -1.294680   0.144309  -0.025609  -0.295960   0.034804  -0.052085
    13  H    1.746345  -0.052743   0.012518  -0.030891   0.002012   0.000756
    14  S   -0.052743  16.051880   0.209599  -0.094892  -0.152411  -0.001719
    15  C    0.012518   0.209599   6.921857   0.096082   0.204476  -0.117143
    16  C   -0.030891  -0.094892   0.096082  10.323043   0.040821  -0.544113
    17  H    0.002012  -0.152411   0.204476   0.040821   1.296554  -0.069907
    18  H    0.000756  -0.001719  -0.117143  -0.544113  -0.069907   1.419923
    19  O   -0.018464  -0.001114   0.000571   0.001190   0.000003   0.000078
    20  H   -0.002881  -0.000017  -0.000283   0.000766  -0.000010   0.000040
              19         20
     1  C    0.146430  -0.105092
     2  C   -0.869610   0.015090
     3  C    0.368425  -0.055662
     4  C   -0.084078  -0.004468
     5  H   -0.056288  -0.007307
     6  S    0.013299   0.008528
     7  H   -0.002498   0.001640
     8  C    0.064835   0.000336
     9  S    0.001333  -0.000950
    10  C    0.002164   0.000728
    11  C   -0.025173  -0.000665
    12  C   -0.015422   0.015391
    13  H   -0.018464  -0.002881
    14  S   -0.001114  -0.000017
    15  C    0.000571  -0.000283
    16  C    0.001190   0.000766
    17  H    0.000003  -0.000010
    18  H    0.000078   0.000040
    19  O    9.016863   0.369164
    20  H    0.369164   0.592981
 Mulliken charges:
               1
     1  C    0.601309
     2  C    0.213163
     3  C    0.807797
     4  C   -0.321519
     5  H   -0.462251
     6  S    0.481689
     7  H   -0.347050
     8  C    0.110789
     9  S    0.452160
    10  C   -0.713047
    11  C    0.002881
    12  C    0.191863
    13  H   -0.462889
    14  S    0.575550
    15  C   -0.124108
    16  C    0.430051
    17  H   -0.377245
    18  H   -0.320106
    19  O   -0.911710
    20  H    0.172673
 Sum of Mulliken charges =  -0.00000
 Mulliken charges with hydrogens summed into heavy atoms:
               1
     1  C    0.139058
     2  C    0.213163
     3  C    0.807797
     4  C   -0.668568
     6  S    0.481689
     8  C    0.110789
     9  S    0.452160
    10  C   -0.713047
    11  C    0.002881
    12  C   -0.271026
    14  S    0.575550
    15  C   -0.501353
    16  C    0.109945
    19  O   -0.739037
 Electronic spatial extent (au):  <R**2>=           4299.6177
 Charge=             -0.0000 electrons
 Dipole moment (field-independent basis, Debye):
    X=             -2.2275    Y=              1.1686    Z=              0.6062  Tot=              2.5875
 Quadrupole moment (field-independent basis, Debye-Ang):
   XX=            -77.6568   YY=            -96.6085   ZZ=           -108.6920
   XY=            -10.5828   XZ=             -1.0341   YZ=              0.9536
 Traceless Quadrupole moment (field-independent basis, Debye-Ang):
   XX=             16.6623   YY=             -2.2894   ZZ=            -14.3729
   XY=            -10.5828   XZ=             -1.0341   YZ=              0.9536
 Octapole moment (field-independent basis, Debye-Ang**2):
  XXX=            -47.1379  YYY=             26.1440  ZZZ=              4.6638  XYY=            -22.9257
  XXY=              5.0335  XXZ=             12.6105  XZZ=             -7.5515  YZZ=              7.2000
  YYZ=              9.4720  XYZ=            -18.1101
 Hexadecapole moment (field-independent basis, Debye-Ang**3):
 XXXX=          -3992.8830 YYYY=           -912.9841 ZZZZ=           -224.9023 XXXY=           -126.9506
 XXXZ=              3.2646 YYYX=           -115.5952 YYYZ=             23.5161 ZZZX=            -13.0496
 ZZZY=             12.4011 XXYY=           -854.4428 XXZZ=           -905.5604 YYZZ=           -195.7067
 XXYZ=             36.2754 YYXZ=            -21.2463 ZZXY=            -17.8734
 N-N= 1.129176965214D+03 E-N=-6.165731985938D+03  KE= 1.649577095403D+03
 Calling FoFJK, ICntrl=  10002127 FMM=F ISym2X=0 I1Cent= 0 IOpClX= 0 NMat=1 NMatS=1 NMatT=0.
 ***** Axes restored to original set *****
 -------------------------------------------------------------------
 Center     Atomic                   Forces (Hartrees/Bohr)
 Number     Number              X              Y              Z
 -------------------------------------------------------------------
      1        6           0.016459474    0.027497728    0.008189303
      2        6          -0.037518567    0.017164306    0.004777386
      3        6           0.027066238   -0.029818851   -0.007561245
      4        6          -0.004212764   -0.027582336   -0.007721402
      5        1          -0.006983697    0.006834701    0.001792154
      6       16           0.005299483   -0.006389333   -0.001912494
      7        1          -0.008355592   -0.005752896   -0.001778504
      8        6          -0.029001136   -0.023802311    0.006989951
      9       16          -0.003854447   -0.008411797    0.002434489
     10        6           0.007384073   -0.039891878    0.011963677
     11        6          -0.009778192    0.039998338   -0.012107047
     12        6           0.029792494    0.020341219   -0.005594109
     13        1          -0.003905482    0.010334712   -0.003402059
     14       16           0.003273244    0.007671262   -0.002313005
     15        6           0.014606684    0.023307402   -0.007274419
     16        6          -0.027398546   -0.020218369    0.006351127
     17        1           0.010183014    0.000789567   -0.000266594
     18        1           0.002975361   -0.009199847    0.002827791
     19        8           0.034996012    0.003272307   -0.004812967
     20        1          -0.021027654    0.013856076    0.009417971
 -------------------------------------------------------------------
 Cartesian Forces:  Max     0.039998338 RMS     0.016598448

 GradGradGradGradGradGradGradGradGradGradGradGradGradGradGradGradGradGrad
 Berny optimization.
 FormGI is forming the generalized inverse of G from B-inverse, IUseBI=4.
 Internal  Forces:  Max     0.043167887 RMS     0.009779890
 Search for a local minimum.
 Step number   1 out of a maximum of  116
 All quantities printed in internal units (Hartrees-Bohrs-Radians)
 Mixed Optimization -- RFO/linear search
 Second derivative matrix not updated -- first step.
 ITU=  0
     Eigenvalues ---    0.01507   0.01576   0.01630   0.01712   0.01748
     Eigenvalues ---    0.01761   0.01981   0.02020   0.02063   0.02132
     Eigenvalues ---    0.02210   0.02271   0.02314   0.02328   0.02373
     Eigenvalues ---    0.02441   0.15999   0.16000   0.16000   0.16000
     Eigenvalues ---    0.16000   0.16000   0.22525   0.22567   0.23649
     Eigenvalues ---    0.24760   0.24783   0.24996   0.24998   0.24999
     Eigenvalues ---    0.25000   0.28884   0.29866   0.30306   0.31048
     Eigenvalues ---    0.31144   0.32512   0.36018   0.36265   0.36346
     Eigenvalues ---    0.36421   0.36453   0.36531   0.39056   0.39314
     Eigenvalues ---    0.39501   0.45904   0.50335   0.52195   0.53542
     Eigenvalues ---    0.54070   0.54617   0.595701000.000001000.00000
     Eigenvalues --- 1000.000001000.000001000.000001000.000001000.00000
     Eigenvalues --- 1000.000001000.000001000.000001000.000001000.00000
     Eigenvalues --- 1000.000001000.000001000.000001000.000001000.00000
     Eigenvalues --- 1000.000001000.000001000.000001000.000001000.00000
     Eigenvalues --- 1000.000001000.000001000.000001000.000001000.00000
     Eigenvalues --- 1000.000001000.000001000.000001000.000001000.00000
     Eigenvalues --- 1000.000001000.000001000.000001000.000001000.00000
     Eigenvalues --- 1000.000001000.000001000.000001000.000001000.00000
     Eigenvalues --- 1000.000001000.000001000.000001000.000001000.00000
     Eigenvalues --- 1000.000001000.000001000.000001000.000001000.00000
     Eigenvalues --- 1000.00000
 RFO step:  Lambda=-1.92211319D-02 EMin= 1.50737125D-02
 Linear search not attempted -- first point.
 Iteration  1 RMS(Cart)=  0.02556426 RMS(Int)=  0.00015729
 Iteration  2 RMS(Cart)=  0.00028868 RMS(Int)=  0.00004659
 Iteration  3 RMS(Cart)=  0.00000004 RMS(Int)=  0.00004659
 Iteration  1 RMS(Cart)=  0.00000517 RMS(Int)=  0.00000207
 Iteration  2 RMS(Cart)=  0.00000284 RMS(Int)=  0.00000231
 Iteration  3 RMS(Cart)=  0.00000155 RMS(Int)=  0.00000261
 Iteration  4 RMS(Cart)=  0.00000085 RMS(Int)=  0.00000281
 Variable       Old X    -DE/DX   Delta X   Delta X   Delta X     New X
                                 (Linear)    (Quad)   (Total)
    R1        2.71433  -0.00247   0.00000  -0.00356  -0.00350   2.71083
    R2        2.54871   0.03910   0.00000   0.06923   0.06926   2.61797
    R3        2.04054   0.00993   0.00000   0.02618   0.02618   2.06672
    R4        2.56283   0.03852   0.00000   0.06967   0.06969   2.63252
    R5        2.55474   0.02165   0.00000   0.03830   0.03830   2.59305
    R6        3.30731   0.00276   0.00000   0.00603   0.00598   3.31329
    R7        2.76679  -0.00577   0.00000  -0.01503  -0.01503   2.75176
    R8        3.25511   0.00733   0.00000   0.01914   0.01910   3.27421
    R9        2.03428   0.01017   0.00000   0.02653   0.02653   2.06081
   R10        3.33000   0.00631   0.00000   0.01716   0.01710   3.34710
   R11        2.55893   0.03880   0.00000   0.06939   0.06941   2.62833
   R12        3.28265   0.00563   0.00000   0.01516   0.01512   3.29777
   R13        2.57682   0.04317   0.00000   0.08232   0.08239   2.65922
   R14        2.70968  -0.00196   0.00000  -0.00220  -0.00214   2.70754
   R15        2.70688  -0.00376   0.00000  -0.00643  -0.00636   2.70052
   R16        3.28209   0.00573   0.00000   0.01552   0.01549   3.29758
   R17        2.03259   0.01154   0.00000   0.03000   0.03000   2.06259
   R18        3.29729   0.00654   0.00000   0.01691   0.01686   3.31416
   R19        2.55058   0.03861   0.00000   0.06784   0.06785   2.61843
   R20        2.03543   0.01013   0.00000   0.02648   0.02648   2.06192
   R21        2.03669   0.01007   0.00000   0.02638   0.02638   2.06307
   R22        1.77982   0.02675   0.00000   0.04350   0.04350   1.82332
    A1        1.95886  -0.00208   0.00000  -0.00238  -0.00229   1.95657
    A2        2.15933   0.00094   0.00000   0.00062   0.00057   2.15989
    A3        2.16500   0.00114   0.00000   0.00176   0.00171   2.16672
    A4        1.98663  -0.00430   0.00000  -0.01141  -0.01133   1.97530
    A5        2.15357   0.00794   0.00000   0.02719   0.02714   2.18072
    A6        2.14296  -0.00364   0.00000  -0.01580  -0.01584   2.12712
    A7        1.91975   0.00344   0.00000   0.01132   0.01129   1.93104
    A8        2.23394  -0.00165   0.00000  -0.00540  -0.00539   2.22855
    A9        2.12950  -0.00179   0.00000  -0.00593  -0.00592   2.12358
   A10        1.95665   0.00045   0.00000   0.00224   0.00224   1.95889
   A11        2.22440   0.00141   0.00000   0.00802   0.00802   2.23241
   A12        2.10210  -0.00187   0.00000  -0.01029  -0.01029   2.09180
   A13        1.60275   0.00248   0.00000   0.00016   0.00000   1.60276
   A14        2.10096  -0.00307   0.00000  -0.01085  -0.01085   2.09011
   A15        2.22532  -0.00107   0.00000  -0.00343  -0.00343   2.22189
   A16        1.95677   0.00414   0.00000   0.01417   0.01414   1.97091
   A17        1.58644   0.00117   0.00000  -0.00365  -0.00382   1.58262
   A18        1.93745   0.00190   0.00000   0.00564   0.00560   1.94305
   A19        2.35412   0.00142   0.00000   0.00047   0.00040   2.35452
   A20        1.99161  -0.00333   0.00000  -0.00611  -0.00601   1.98560
   A21        1.99496  -0.00292   0.00000  -0.00447  -0.00436   1.99060
   A22        1.93843   0.00132   0.00000   0.00340   0.00336   1.94178
   A23        2.34972   0.00159   0.00000   0.00106   0.00099   2.35071
   A24        1.94900  -0.00431   0.00000  -0.01176  -0.01165   1.93735
   A25        2.15241   0.00140   0.00000   0.00169   0.00163   2.15405
   A26        2.18176   0.00290   0.00000   0.01007   0.01002   2.19177
   A27        1.58159   0.00245   0.00000   0.00069   0.00056   1.58215
   A28        1.97544   0.00261   0.00000   0.00902   0.00900   1.98445
   A29        2.08850  -0.00262   0.00000  -0.01185  -0.01184   2.07665
   A30        2.21924   0.00001   0.00000   0.00283   0.00284   2.22208
   A31        1.93770  -0.00306   0.00000  -0.00699  -0.00690   1.93080
   A32        2.18355   0.00167   0.00000   0.00429   0.00425   2.18779
   A33        2.16193   0.00139   0.00000   0.00270   0.00266   2.16459
   A34        1.93338  -0.00475   0.00000  -0.02650  -0.02650   1.90688
    D1        0.00059   0.00014   0.00000   0.00502   0.00500   0.00558
    D2        3.13521  -0.00004   0.00000   0.00149   0.00142   3.13663
    D3        3.14099   0.00008   0.00000   0.00198   0.00197  -3.14022
    D4       -0.00757  -0.00010   0.00000  -0.00155  -0.00160  -0.00917
    D5       -0.01120  -0.00025   0.00000  -0.00622  -0.00626  -0.01745
    D6        3.14015  -0.00005   0.00000  -0.00251  -0.00251   3.13764
    D7        3.13158  -0.00018   0.00000  -0.00317  -0.00321   3.12837
    D8       -0.00025   0.00001   0.00000   0.00054   0.00053   0.00028
    D9        0.00999   0.00005   0.00000  -0.00139  -0.00142   0.00857
   D10       -3.13051  -0.00001   0.00000   0.00431   0.00433  -3.12618
   D11       -3.12468   0.00017   0.00000   0.00193   0.00183  -3.12284
   D12        0.01801   0.00011   0.00000   0.00763   0.00759   0.02560
   D13        0.23355  -0.00020   0.00000  -0.00499  -0.00498   0.22857
   D14       -2.91563  -0.00039   0.00000  -0.00880  -0.00881  -2.92444
   D15       -0.01369  -0.00020   0.00000  -0.00184  -0.00185  -0.01554
   D16        3.12689  -0.00014   0.00000  -0.00714  -0.00720   3.11969
   D17        2.53143   0.00065   0.00000   0.00000   0.00000   2.53143
   D18       -0.59077   0.00060   0.00000   0.00763   0.00760  -0.58317
   D19       -0.60895   0.00058   0.00000   0.00631   0.00632  -0.60264
   D20        2.55204   0.00053   0.00000   0.01394   0.01391   2.56595
   D21        0.01435   0.00026   0.00000   0.00469   0.00467   0.01902
   D22       -3.13623   0.00010   0.00000   0.00138   0.00137  -3.13486
   D23       -3.13745  -0.00008   0.00000   0.00269   0.00269  -3.13476
   D24       -0.01247  -0.00007   0.00000  -0.00398  -0.00401  -0.01648
   D25        3.12973  -0.00005   0.00000  -0.00451  -0.00455   3.12519
   D26       -0.01650  -0.00005   0.00000  -0.00499  -0.00503  -0.02152
   D27        0.00620  -0.00004   0.00000   0.00282   0.00283   0.00904
   D28       -3.14003  -0.00004   0.00000   0.00233   0.00235  -3.13767
   D29        0.01550   0.00007   0.00000   0.00387   0.00387   0.01937
   D30       -3.12941  -0.00002   0.00000   0.00119   0.00117  -3.12823
   D31       -0.01523  -0.00010   0.00000  -0.00315  -0.00315  -0.01838
   D32        3.13810  -0.00007   0.00000  -0.00229  -0.00229   3.13582
   D33        3.12893  -0.00004   0.00000  -0.00107  -0.00107   3.12786
   D34       -0.00092  -0.00001   0.00000  -0.00021  -0.00021  -0.00113
   D35       -3.13701   0.00007   0.00000   0.00228   0.00228  -3.13473
   D36        0.00316   0.00006   0.00000   0.00226   0.00226   0.00542
   D37        0.00119  -0.00001   0.00000  -0.00045  -0.00044   0.00075
   D38        3.14136  -0.00002   0.00000  -0.00047  -0.00046   3.14090
   D39        0.00588   0.00005   0.00000   0.00012   0.00011   0.00599
   D40       -3.13098   0.00005   0.00000   0.00064   0.00063  -3.13035
   D41        3.13208  -0.00001   0.00000  -0.00101  -0.00102   3.13106
   D42       -0.00478  -0.00001   0.00000  -0.00049  -0.00050  -0.00528
   D43        0.00033   0.00002   0.00000   0.00058   0.00058   0.00091
   D44       -3.12622   0.00010   0.00000   0.00173   0.00174  -3.12449
   D45        0.00036  -0.00003   0.00000  -0.00087  -0.00087  -0.00051
   D46       -3.14040  -0.00001   0.00000  -0.00015  -0.00015  -3.14055
   D47       -0.00091   0.00002   0.00000   0.00088   0.00088  -0.00003
   D48       -3.14110   0.00002   0.00000   0.00089   0.00090  -3.14020
   D49        3.13977  -0.00000   0.00000   0.00009   0.00009   3.13986
   D50       -0.00042   0.00000   0.00000   0.00010   0.00010  -0.00031
         Item               Value     Threshold  Converged?
 Maximum Force            0.043167     0.000450     NO 
 RMS     Force            0.009826     0.000300     NO 
 Maximum Displacement     0.104203     0.001800     NO 
 RMS     Displacement     0.025500     0.001200     NO 
 Predicted change in Energy=-9.978401D-03
 GradGradGradGradGradGradGradGradGradGradGradGradGradGradGradGradGradGrad

                          Input orientation:                          
 ---------------------------------------------------------------------
 Center     Atomic      Atomic             Coordinates (Angstroms)
 Number     Number       Type             X           Y           Z
 ---------------------------------------------------------------------
      1          6           0       -3.944472    0.847463    0.149542
      2          6           0       -2.541438    1.127438    0.254080
      3          6           0       -1.739117    0.031507   -0.055529
      4          6           0       -4.187729   -0.461947   -0.231922
      5          1           0       -4.727707    1.583356    0.352269
      6         16           0       -2.723993   -1.351661   -0.492551
      7          1           0       -5.152371   -0.947142   -0.384599
      8          6           0       -0.284900   -0.041151   -0.035369
      9         16           0        0.513394   -1.545230    0.452137
     10          6           0        2.080379   -0.812306    0.222432
     11          6           0        1.963054    0.529935   -0.183555
     12          6           0        0.614188    0.976214   -0.337167
     13          1           0        0.307823    1.975118   -0.652844
     14         16           0        3.530936    1.263640   -0.403683
     15          6           0        4.318639   -0.236443    0.049093
     16          6           0        3.435216   -1.258456    0.357282
     17          1           0        5.408882   -0.277778    0.063333
     18          1           0        3.742861   -2.260904    0.661124
     19          8           0       -2.006205    2.340644    0.606978
     20          1           0       -2.702442    2.902705    0.967947
 ---------------------------------------------------------------------
                    Distance matrix (angstroms):
                    1          2          3          4          5
     1  C    0.000000
     2  C    1.434510   0.000000
     3  C    2.360387   1.393069   0.000000
     4  C    1.385368   2.339362   2.504059   0.000000
     5  H    1.093660   2.235458   3.392079   2.194566   0.000000
     6  S    2.595766   2.595519   1.753318   1.732640   3.652795
     7  H    2.228213   3.395403   3.565998   1.090531   2.669594
     8  C    3.770450   2.557606   1.456171   3.930366   4.746348
     9  S    5.068443   4.063789   2.796003   4.872576   6.104684
    10  C    6.249718   5.012465   3.921458   6.294312   7.218454
    11  C    5.925423   4.564973   3.737765   6.230433   6.794341
    12  C    4.586376   3.214097   2.551438   5.013760   5.420312
    13  H    4.471850   3.107952   2.885199   5.130931   5.149786
    14  S    7.507396   6.109413   5.423359   7.911064   8.299329
    15  C    8.334504   6.997346   6.064582   8.513995   9.232549
    16  C    7.677099   6.436112   5.348658   7.687059   8.643450
    17  H    9.421191   8.075804   7.155675   9.602918  10.310079
    18  H    8.307753   7.151152   5.985051   8.180956   9.307215
    19  O    2.489120   1.372180   2.417098   3.649290   2.836359
    20  H    2.537015   1.920182   3.196760   3.868675   2.494281
                    6          7          8          9         10
     6  S    0.000000
     7  H    2.464205   0.000000
     8  C    2.806355   4.963371   0.000000
     9  S    3.377955   5.758362   1.771211   0.000000
    10  C    4.887136   7.259431   2.501137   1.745102   0.000000
    11  C    5.060069   7.269900   2.324090   2.609967   1.407197
    12  C    4.072665   6.079041   1.390853   2.644020   2.379427
    13  H    4.503895   6.198812   2.190419   3.695415   3.417279
    14  S    6.780254   8.960342   4.049536   4.210432   2.608771
    15  C    7.150928   9.507535   4.608454   4.044163   2.317644
    16  C    6.218261   8.625193   3.933862   2.937394   1.432766
    17  H    8.222280  10.591919   5.699551   5.071825   3.374902
    18  H    6.631583   9.052329   4.651372   3.314411   2.248274
    19  O    3.918839   4.657372   3.008063   4.633829   5.175822
    20  H    4.498127   4.759501   3.939219   5.512875   6.101842
                   11         12         13         14         15
    11  C    0.000000
    12  C    1.429056   0.000000
    13  H    2.246903   1.091476   0.000000
    14  S    1.745003   2.931631   3.310096   0.000000
    15  C    2.488020   3.916975   4.633612   1.753776   0.000000
    16  C    2.378678   3.665271   4.610525   2.636133   1.385614
    17  H    3.547829   4.972121   5.622210   2.474016   1.091119
    18  H    3.416136   4.611303   5.609802   3.687972   2.191927
    19  O    4.433804   3.101537   2.659978   5.730733   6.852464
    20  H    5.359370   4.051509   3.542468   6.589606   7.745588
                   16         17         18         19         20
    16  C    0.000000
    17  H    2.223396   0.000000
    18  H    1.091727   2.658151   0.000000
    19  O    6.528777   7.882588   7.364030   0.000000
    20  H    7.440364   8.759417   8.264317   0.964862   0.000000
 Stoichiometry    C10H6OS3
 Framework group  C1[X(C10H6OS3)]
 Deg. of freedom    54
 Full point group                 C1      NOp   1
 Largest Abelian subgroup         C1      NOp   1
 Largest concise Abelian subgroup C1      NOp   1
                         Standard orientation:                         
 ---------------------------------------------------------------------
 Center     Atomic      Atomic             Coordinates (Angstroms)
 Number     Number       Type             X           Y           Z
 ---------------------------------------------------------------------
      1          6           0       -3.944165    0.859851    0.148927
      2          6           0       -2.540402    1.136342    0.252943
      3          6           0       -1.740957    0.037753   -0.054679
      4          6           0       -4.190854   -0.449610   -0.230151
      5          1           0       -4.725468    1.598160    0.350322
      6         16           0       -2.729457   -1.343626   -0.489174
      7          1           0       -5.156765   -0.932554   -0.381937
      8          6           0       -0.286934   -0.038676   -0.034399
      9         16           0        0.507426   -1.543950    0.455835
     10          6           0        2.076321   -0.815550    0.224782
     11          6           0        1.962504    0.526253   -0.183645
     12          6           0        0.614809    0.975781   -0.338057
     13          1           0        0.311057    1.974908   -0.655548
     14         16           0        3.532299    1.255448   -0.405122
     15          6           0        4.316079   -0.245865    0.050376
     16          6           0        3.429987   -1.264999    0.360432
     17          1           0        5.406210   -0.290028    0.064681
     18          1           0        3.735011   -2.267695    0.666095
     19          8           0       -2.001989    2.348782    0.603627
     20          1           0       -2.696748    2.913320    0.963580
 ---------------------------------------------------------------------
 Rotational constants (GHZ):           1.2759012           0.2772968           0.2348060
 Standard basis: Aug-CC-pVDZ (5D, 7F)
 There are   416 symmetry adapted cartesian basis functions of A   symmetry.
 There are   388 symmetry adapted basis functions of A   symmetry.
   388 basis functions,   782 primitive gaussians,   416 cartesian basis functions
    61 alpha electrons       61 beta electrons
       nuclear repulsion energy      1120.8574726757 Hartrees.
 NAtoms=   20 NActive=   20 NUniq=   20 SFac= 1.00D+00 NAtFMM=   60 NAOKFM=F Big=F
 Integral buffers will be    131072 words long.
 Raffenetti 1 integral format.
 Two-electron integral symmetry is turned on.
 One-electron integrals computed using PRISM.
 NBasis=   388 RedAO= T EigKep=  3.71D-06  NBF=   388
 NBsUse=   388 1.00D-06 EigRej= -1.00D+00 NBFU=   388
 Initial guess from the checkpoint file:  "/tmp/pbs.4766300[320].pbs/Gau-1191329.chk"
 B after Tr=    -0.000000    0.000000    0.000000
         Rot=    0.999999    0.000104    0.000347    0.001141 Ang=   0.14 deg.
 ExpMin= 2.97D-02 ExpMax= 1.11D+05 ExpMxC= 1.07D+03 IAcc=3 IRadAn=         5 AccDes= 0.00D+00
 Harris functional with IExCor=  205 and IRadAn=       5 diagonalized for initial guess.
 HarFok:  IExCor=  205 AccDes= 0.00D+00 IRadAn=         5 IDoV= 1 UseB2=F ITyADJ=14
 ICtDFT=  3500011 ScaDFX=  1.000000  1.000000  1.000000  1.000000
 FoFCou: FMM=F IPFlag=           0 FMFlag=      100000 FMFlg1=           0
         NFxFlg=           0 DoJE=T BraDBF=F KetDBF=T FulRan=T
         wScrn=  0.000000 ICntrl=       500 IOpCl=  0 I1Cent=   200000004 NGrid=           0
         NMat0=    1 NMatS0=      1 NMatT0=    0 NMatD0=    1 NMtDS0=    0 NMtDT0=    0
 Petite list used in FoFCou.
 Requested convergence on RMS density matrix=1.00D-08 within 128 cycles.
 Requested convergence on MAX density matrix=1.00D-06.
 Requested convergence on             energy=1.00D-06.
 No special actions if energy rises.
 SCF Done:  E(RHF) =  -1649.63337659     A.U. after   15 cycles
            NFock= 15  Conv=0.47D-08     -V/T= 2.0006
 ExpMin= 2.97D-02 ExpMax= 1.11D+05 ExpMxC= 1.07D+03 IAcc=3 IRadAn=         5 AccDes= 0.00D+00
 HarFok:  IExCor=  205 AccDes= 0.00D+00 IRadAn=         5 IDoV=-2 UseB2=F ITyADJ=14
 ICtDFT= 12500011 ScaDFX=  1.000000  1.000000  1.000000  1.000000
 GSVD:  LWork=        -884 too small for GESVD, short by        3770 words or        3770 for optimal perf.
 Range of M.O.s used for correlation:    27   388
 NBasis=   388 NAE=    61 NBE=    61 NFC=    26 NFV=     0
 NROrb=    362 NOA=    35 NOB=    35 NVA=   327 NVB=   327

 **** Warning!!: The largest alpha MO coefficient is  0.60963835D+02

 Fully direct method using O(ONN) memory.
 JobTyp=1 Pass  1:  I=  27 to  61 NPSUse=  8 ParTrn=T ParDer=T DoDerP=T.
 Spin components of T(2) and E(2):
     alpha-alpha T2 =       0.1172626764D+00 E2=     -0.2770861571D+00
     alpha-beta  T2 =       0.5701391070D+00 E2=     -0.1434895901D+01
     beta-beta   T2 =       0.1172626764D+00 E2=     -0.2770861571D+00
 ANorm=    0.1343378003D+01
 E2 =    -0.1989068215D+01 EUMP2 =    -0.16516224448098D+04
          IDoAtm=11111111111111111111
          Differentiating once with respect to electric field.
                with respect to dipole field.
          Differentiating once with respect to nuclear coordinates.
 Keep R1 ints in memory in canonical form, NReq=2883857471.
          There are     1 degrees of freedom in the 1st order CPHF.  IDoFFX=0 NUNeed=     1.
 LinEq1:  Iter=  0 NonCon=     1 RMS=2.90D-03 Max=4.86D-02 NDo=     1
 AX will form     1 AO Fock derivatives at one time.
 LinEq1:  Iter=  1 NonCon=     1 RMS=7.11D-04 Max=1.00D-02 NDo=     1
 LinEq1:  Iter=  2 NonCon=     1 RMS=3.68D-04 Max=1.02D-02 NDo=     1
 LinEq1:  Iter=  3 NonCon=     1 RMS=1.02D-04 Max=2.37D-03 NDo=     1
 LinEq1:  Iter=  4 NonCon=     1 RMS=4.07D-05 Max=8.00D-04 NDo=     1
 LinEq1:  Iter=  5 NonCon=     1 RMS=1.78D-05 Max=7.02D-04 NDo=     1
 LinEq1:  Iter=  6 NonCon=     1 RMS=6.99D-06 Max=2.20D-04 NDo=     1
 LinEq1:  Iter=  7 NonCon=     1 RMS=3.67D-06 Max=1.37D-04 NDo=     1
 LinEq1:  Iter=  8 NonCon=     1 RMS=1.33D-06 Max=4.11D-05 NDo=     1
 LinEq1:  Iter=  9 NonCon=     1 RMS=6.63D-07 Max=2.69D-05 NDo=     1
 LinEq1:  Iter= 10 NonCon=     1 RMS=2.48D-07 Max=3.66D-06 NDo=     1
 LinEq1:  Iter= 11 NonCon=     1 RMS=1.15D-07 Max=4.16D-06 NDo=     1
 LinEq1:  Iter= 12 NonCon=     1 RMS=4.32D-08 Max=9.78D-07 NDo=     1
 LinEq1:  Iter= 13 NonCon=     1 RMS=1.65D-08 Max=2.85D-07 NDo=     1
 LinEq1:  Iter= 14 NonCon=     1 RMS=5.39D-09 Max=7.37D-08 NDo=     1
 LinEq1:  Iter= 15 NonCon=     1 RMS=2.35D-09 Max=6.48D-08 NDo=     1
 LinEq1:  Iter= 16 NonCon=     1 RMS=9.16D-10 Max=2.51D-08 NDo=     1
 LinEq1:  Iter= 17 NonCon=     1 RMS=3.87D-10 Max=9.44D-09 NDo=     1
 LinEq1:  Iter= 18 NonCon=     1 RMS=1.38D-10 Max=2.30D-09 NDo=     1
 LinEq1:  Iter= 19 NonCon=     0 RMS=4.50D-11 Max=6.16D-10 NDo=     1
 Linear equations converged to 1.000D-10 1.000D-09 after    19 iterations.
 End of Minotr F.D. properties file   721 does not exist.
 End of Minotr F.D. properties file   722 does not exist.
 End of Minotr F.D. properties file   788 does not exist.
 Calling FoFJK, ICntrl=  10002127 FMM=F ISym2X=0 I1Cent= 0 IOpClX= 0 NMat=1 NMatS=1 NMatT=0.
 ***** Axes restored to original set *****
 -------------------------------------------------------------------
 Center     Atomic                   Forces (Hartrees/Bohr)
 Number     Number              X              Y              Z
 -------------------------------------------------------------------
      1        6           0.007878327    0.003894973    0.001359225
      2        6          -0.015329989   -0.000896943   -0.001190816
      3        6           0.007417394   -0.005734575   -0.001058795
      4        6          -0.002655941   -0.003914541   -0.001021250
      5        1          -0.000627475   -0.000826447   -0.000242421
      6       16           0.000228795    0.004858268    0.001637749
      7        1           0.000223781    0.000012980    0.000010858
      8        6          -0.007398714   -0.002559429    0.001032113
      9       16           0.001369112    0.003440690   -0.001535695
     10        6           0.006099523   -0.008183643    0.002282776
     11        6          -0.005915268    0.008067984   -0.002327121
     12        6           0.008550450    0.001470306    0.000267614
     13        1          -0.001320040   -0.000742094    0.000155894
     14       16          -0.000847276   -0.003932575    0.001177169
     15        6           0.003330401    0.002468775   -0.000722522
     16        6          -0.006992465   -0.000186963    0.000040725
     17        1           0.000055351    0.000148004   -0.000027992
     18        1           0.000878852    0.000516903   -0.000187561
     19        8           0.008167086    0.001624611   -0.000277562
     20        1          -0.003111906    0.000473716    0.000627613
 -------------------------------------------------------------------
 Cartesian Forces:  Max     0.015329989 RMS     0.004066712

 GradGradGradGradGradGradGradGradGradGradGradGradGradGradGradGradGradGrad
 Berny optimization.
 Using GEDIIS/GDIIS optimizer.
 FormGI is forming the generalized inverse of G from B-inverse, IUseBI=4.
 Internal  Forces:  Max     0.005187868 RMS     0.001618444
 Search for a local minimum.
 Step number   2 out of a maximum of  116
 All quantities printed in internal units (Hartrees-Bohrs-Radians)
 Mixed Optimization -- RFO/linear search
 Update second derivatives using D2CorX and points    1    2
 DE= -1.02D-02 DEPred=-9.98D-03 R= 1.02D+00
 TightC=F SS=  1.41D+00  RLast= 1.96D-01 DXNew= 5.0454D-01 5.8935D-01
 Trust test= 1.02D+00 RLast= 1.96D-01 DXMaxT set to 5.05D-01
 ITU=  1  0
 Use linear search instead of GDIIS.
     Eigenvalues ---    0.01510   0.01575   0.01628   0.01716   0.01746
     Eigenvalues ---    0.01761   0.01981   0.02019   0.02068   0.02140
     Eigenvalues ---    0.02216   0.02270   0.02313   0.02328   0.02375
     Eigenvalues ---    0.02444   0.15775   0.15999   0.16000   0.16000
     Eigenvalues ---    0.16000   0.16034   0.22512   0.22601   0.23702
     Eigenvalues ---    0.24332   0.24770   0.24912   0.24992   0.24999
     Eigenvalues ---    0.25247   0.28934   0.29836   0.30321   0.31065
     Eigenvalues ---    0.31303   0.32588   0.36050   0.36221   0.36294
     Eigenvalues ---    0.36380   0.36474   0.36851   0.38945   0.39371
     Eigenvalues ---    0.39517   0.45424   0.49956   0.51693   0.53070
     Eigenvalues ---    0.53901   0.54843   0.594161000.000001000.00000
     Eigenvalues --- 1000.000001000.000001000.000001000.000001000.00000
     Eigenvalues --- 1000.000001000.000001000.000001000.000001000.00000
     Eigenvalues --- 1000.000001000.000001000.000001000.000001000.00000
     Eigenvalues --- 1000.000001000.000001000.000001000.000001000.00000
     Eigenvalues --- 1000.000001000.000001000.000001000.000001000.00000
     Eigenvalues --- 1000.000001000.000001000.000001000.000001000.00000
     Eigenvalues --- 1000.000001000.000001000.000001000.000001000.00000
     Eigenvalues --- 1000.000001000.000001000.000001000.000001000.00000
     Eigenvalues --- 1000.000001000.000001000.000001000.000001000.00000
     Eigenvalues --- 1000.000001000.000001000.000001000.000001000.00000
     Eigenvalues --- 1000.00000
 RFO step:  Lambda=-8.99317945D-04 EMin= 1.50952095D-02
 Quartic linear search produced a step of  0.10602.
 Iteration  1 RMS(Cart)=  0.01696403 RMS(Int)=  0.00014342
 Iteration  2 RMS(Cart)=  0.00017856 RMS(Int)=  0.00001860
 Iteration  3 RMS(Cart)=  0.00000002 RMS(Int)=  0.00001860
 Iteration  1 RMS(Cart)=  0.00001159 RMS(Int)=  0.00000462
 Iteration  2 RMS(Cart)=  0.00000634 RMS(Int)=  0.00000516
 Iteration  3 RMS(Cart)=  0.00000346 RMS(Int)=  0.00000583
 Iteration  4 RMS(Cart)=  0.00000189 RMS(Int)=  0.00000628
 Iteration  5 RMS(Cart)=  0.00000104 RMS(Int)=  0.00000654
 Iteration  6 RMS(Cart)=  0.00000057 RMS(Int)=  0.00000668
 Variable       Old X    -DE/DX   Delta X   Delta X   Delta X     New X
                                 (Linear)    (Quad)   (Total)
    R1        2.71083  -0.00513  -0.00037  -0.01393  -0.01430   2.69653
    R2        2.61797   0.00278   0.00734   0.00169   0.00903   2.62699
    R3        2.06672  -0.00015   0.00278  -0.00185   0.00093   2.06765
    R4        2.63252   0.00443   0.00739   0.00524   0.01263   2.64515
    R5        2.59305   0.00392   0.00406   0.00579   0.00985   2.60289
    R6        3.31329  -0.00292   0.00063  -0.01085  -0.01021   3.30309
    R7        2.75176  -0.00221  -0.00159  -0.00590  -0.00749   2.74428
    R8        3.27421  -0.00065   0.00203  -0.00314  -0.00111   3.27310
    R9        2.06081  -0.00021   0.00281  -0.00202   0.00079   2.06159
   R10        3.34710  -0.00080   0.00181  -0.00422  -0.00241   3.34470
   R11        2.62833   0.00392   0.00736   0.00405   0.01141   2.63975
   R12        3.29777  -0.00118   0.00160  -0.00484  -0.00323   3.29453
   R13        2.65922   0.00519   0.00874   0.00680   0.01554   2.67475
   R14        2.70754  -0.00349  -0.00023  -0.00930  -0.00953   2.69801
   R15        2.70052  -0.00339  -0.00067  -0.00869  -0.00936   2.69116
   R16        3.29758  -0.00131   0.00164  -0.00520  -0.00355   3.29403
   R17        2.06259  -0.00035   0.00318  -0.00265   0.00053   2.06312
   R18        3.31416  -0.00137   0.00179  -0.00608  -0.00429   3.30987
   R19        2.61843   0.00254   0.00719   0.00116   0.00835   2.62678
   R20        2.06192   0.00005   0.00281  -0.00125   0.00156   2.06348
   R21        2.06307  -0.00028   0.00280  -0.00224   0.00056   2.06362
   R22        1.82332   0.00276   0.00461   0.00267   0.00728   1.83060
    A1        1.95657   0.00042  -0.00024   0.00231   0.00205   1.95862
    A2        2.15989   0.00088   0.00006   0.00636   0.00642   2.16631
    A3        2.16672  -0.00130   0.00018  -0.00867  -0.00849   2.15823
    A4        1.97530   0.00157  -0.00120   0.00762   0.00642   1.98172
    A5        2.18072   0.00271   0.00288   0.01056   0.01344   2.19416
    A6        2.12712  -0.00428  -0.00168  -0.01817  -0.01985   2.10726
    A7        1.93104  -0.00239   0.00120  -0.01095  -0.00977   1.92126
    A8        2.22855   0.00040  -0.00057   0.00191   0.00129   2.22984
    A9        2.12358   0.00199  -0.00063   0.00896   0.00828   2.13186
   A10        1.95889  -0.00181   0.00024  -0.00902  -0.00878   1.95011
   A11        2.23241   0.00100   0.00085   0.00475   0.00561   2.23802
   A12        2.09180   0.00081  -0.00109   0.00424   0.00315   2.09495
   A13        1.60276   0.00221   0.00000   0.00999   0.01001   1.61277
   A14        2.09011   0.00129  -0.00115   0.00634   0.00514   2.09525
   A15        2.22189   0.00063  -0.00036   0.00303   0.00262   2.22451
   A16        1.97091  -0.00191   0.00150  -0.00974  -0.00829   1.96262
   A17        1.58262   0.00253  -0.00040   0.01081   0.01040   1.59302
   A18        1.94305  -0.00242   0.00059  -0.01084  -0.01026   1.93279
   A19        2.35452   0.00145   0.00004   0.00570   0.00575   2.36027
   A20        1.98560   0.00097  -0.00064   0.00512   0.00448   1.99008
   A21        1.99060   0.00105  -0.00046   0.00508   0.00461   1.99521
   A22        1.94178  -0.00255   0.00036  -0.01094  -0.01057   1.93121
   A23        2.35071   0.00151   0.00010   0.00583   0.00593   2.35664
   A24        1.93735   0.00075  -0.00124   0.00446   0.00321   1.94056
   A25        2.15405  -0.00190   0.00017  -0.01255  -0.01237   2.14167
   A26        2.19177   0.00115   0.00106   0.00808   0.00914   2.20091
   A27        1.58215   0.00231   0.00006   0.01002   0.01008   1.59223
   A28        1.98445  -0.00138   0.00095  -0.00786  -0.00691   1.97754
   A29        2.07665   0.00053  -0.00126   0.00316   0.00191   2.07856
   A30        2.22208   0.00085   0.00030   0.00470   0.00500   2.22708
   A31        1.93080   0.00065  -0.00073   0.00365   0.00291   1.93371
   A32        2.18779   0.00070   0.00045   0.00521   0.00567   2.19346
   A33        2.16459  -0.00136   0.00028  -0.00887  -0.00858   2.15601
   A34        1.90688  -0.00298  -0.00281  -0.01936  -0.02217   1.88470
    D1        0.00558  -0.00006   0.00053   0.00229   0.00280   0.00839
    D2        3.13663  -0.00007   0.00015   0.00331   0.00345   3.14008
    D3       -3.14022  -0.00004   0.00021  -0.00016   0.00004  -3.14019
    D4       -0.00917  -0.00004  -0.00017   0.00086   0.00068  -0.00850
    D5       -0.01745  -0.00006  -0.00066  -0.00301  -0.00367  -0.02112
    D6        3.13764   0.00004  -0.00027  -0.00114  -0.00139   3.13625
    D7        3.12837  -0.00009  -0.00034  -0.00060  -0.00096   3.12741
    D8        0.00028   0.00001   0.00006   0.00128   0.00133   0.00160
    D9        0.00857   0.00016  -0.00015  -0.00046  -0.00059   0.00798
   D10       -3.12618   0.00002   0.00046   0.01467   0.01505  -3.11112
   D11       -3.12284   0.00012   0.00019  -0.00164  -0.00142  -3.12426
   D12        0.02560  -0.00002   0.00080   0.01349   0.01423   0.03983
   D13        0.22857  -0.00018  -0.00053  -0.00849  -0.00901   0.21956
   D14       -2.92444  -0.00014  -0.00093  -0.00721  -0.00815  -2.93260
   D15       -0.01554  -0.00018  -0.00020  -0.00110  -0.00133  -0.01686
   D16        3.11969  -0.00005  -0.00076  -0.01519  -0.01596   3.10373
   D17        2.53143   0.00083   0.00000   0.00000  -0.00000   2.53142
   D18       -0.58317   0.00074   0.00081   0.01864   0.01948  -0.56370
   D19       -0.60264   0.00069   0.00067   0.01671   0.01742  -0.58522
   D20        2.56595   0.00060   0.00147   0.03535   0.03690   2.60285
   D21        0.01902   0.00014   0.00049   0.00242   0.00293   0.02194
   D22       -3.13486   0.00006   0.00015   0.00073   0.00089  -3.13397
   D23       -3.13476  -0.00013   0.00028   0.00511   0.00536  -3.12940
   D24       -0.01648  -0.00002  -0.00043  -0.01084  -0.01124  -0.02772
   D25        3.12519   0.00009  -0.00048  -0.00787  -0.00833   3.11686
   D26       -0.02152   0.00007  -0.00053  -0.01093  -0.01141  -0.03293
   D27        0.00904  -0.00003   0.00030   0.00950   0.00975   0.01879
   D28       -3.13767  -0.00005   0.00025   0.00644   0.00667  -3.13100
   D29        0.01937   0.00004   0.00041   0.00901   0.00941   0.02878
   D30       -3.12823   0.00001   0.00012   0.00426   0.00439  -3.12384
   D31       -0.01838  -0.00006  -0.00033  -0.00544  -0.00575  -0.02413
   D32        3.13582  -0.00002  -0.00024  -0.00391  -0.00413   3.13169
[...]
 ---------------------------------------------------------------------
      1          6           0       -3.936810    0.872122    0.172103
      2          6           0       -2.541298    1.141932    0.234356
      3          6           0       -1.740232    0.035872   -0.081195
      4          6           0       -4.201650   -0.446982   -0.182010
      5          1           0       -4.718820    1.607178    0.381417
      6         16           0       -2.746213   -1.339372   -0.461912
      7          1           0       -5.170835   -0.929703   -0.306914
      8          6           0       -0.291871   -0.045102   -0.062382
      9         16           0        0.506286   -1.548570    0.417424
     10          6           0        2.078503   -0.826830    0.211230
     11          6           0        1.959693    0.530370   -0.179605
     12          6           0        0.620138    0.977497   -0.338088
     13          1           0        0.303172    1.976364   -0.641260
     14         16           0        3.533225    1.253281   -0.372007
     15          6           0        4.318153   -0.247819    0.064640
     16          6           0        3.424611   -1.273483    0.350356
     17          1           0        5.408087   -0.290042    0.088180
     18          1           0        3.738614   -2.277479    0.641256
     19          8           0       -1.965592    2.352538    0.560577
     20          1           0       -2.663663    2.942483    0.880196
 ---------------------------------------------------------------------
 Rotational constants (GHZ):           1.2845963           0.2777646           0.2345405

 **********************************************************************

            Population analysis using the SCF Density.

 **********************************************************************

 Orbital symmetries:
       Occupied  (A) (A) (A) (A) (A) (A) (A) (A) (A) (A) (A) (A)
                 (A) (A) (A) (A) (A) (A) (A) (A) (A) (A) (A) (A)
                 (A) (A) (A) (A) (A) (A) (A) (A) (A) (A) (A) (A)
                 (A) (A) (A) (A) (A) (A) (A) (A) (A) (A) (A) (A)
                 (A) (A) (A) (A) (A) (A) (A) (A) (A) (A) (A) (A)
                 (A)
       Virtual   (A) (A) (A) (A) (A) (A) (A) (A) (A) (A) (A) (A)
                 (A) (A) (A) (A) (A) (A) (A) (A) (A) (A) (A) (A)
                 (A) (A) (A) (A) (A) (A) (A) (A) (A) (A) (A) (A)
                 (A) (A) (A) (A) (A) (A) (A) (A) (A) (A) (A) (A)
                 (A) (A) (A) (A) (A) (A) (A) (A) (A) (A) (A) (A)
                 (A) (A) (A) (A) (A) (A) (A) (A) (A) (A) (A) (A)
                 (A) (A) (A) (A) (A) (A) (A) (A) (A) (A) (A) (A)
                 (A) (A) (A) (A) (A) (A) (A) (A) (A) (A) (A) (A)
                 (A) (A) (A) (A) (A) (A) (A) (A) (A) (A) (A) (A)
                 (A) (A) (A) (A) (A) (A) (A) (A) (A) (A) (A) (A)
                 (A) (A) (A) (A) (A) (A) (A) (A) (A) (A) (A) (A)
                 (A) (A) (A) (A) (A) (A) (A) (A) (A) (A) (A) (A)
                 (A) (A) (A) (A) (A) (A) (A) (A) (A) (A) (A) (A)
                 (A) (A) (A) (A) (A) (A) (A) (A) (A) (A) (A) (A)
                 (A) (A) (A) (A) (A) (A) (A) (A) (A) (A) (A) (A)
                 (A) (A) (A) (A) (A) (A) (A) (A) (A) (A) (A) (A)
                 (A) (A) (A) (A) (A) (A) (A) (A) (A) (A) (A) (A)
                 (A) (A) (A) (A) (A) (A) (A) (A) (A) (A) (A) (A)
                 (A) (A) (A) (A) (A) (A) (A) (A) (A) (A) (A) (A)
                 (A) (A) (A) (A) (A) (A) (A) (A) (A) (A) (A) (A)
                 (A) (A) (A) (A) (A) (A) (A) (A) (A) (A) (A) (A)
                 (A) (A) (A) (A) (A) (A) (A) (A) (A) (A) (A) (A)
                 (A) (A) (A) (A) (A) (A) (A) (A) (A) (A) (A) (A)
                 (A) (A) (A) (A) (A) (A) (A) (A) (A) (A) (A) (A)
                 (A) (A) (A) (A) (A) (A) (A) (A) (A) (A) (A) (A)
                 (A) (A) (A) (A) (A) (A) (A) (A) (A) (A) (A) (A)
                 (A) (A) (A) (A) (A) (A) (A) (A) (A) (A) (A) (A)
                 (A) (A) (A)
 The electronic state is 1-A.
 Alpha  occ. eigenvalues --  -91.99746 -91.99024 -91.99003 -20.61687 -11.32498
 Alpha  occ. eigenvalues --  -11.29274 -11.29143 -11.28037 -11.27977 -11.27585
 Alpha  occ. eigenvalues --  -11.27449 -11.26549 -11.26140 -11.25661  -8.99890
 Alpha  occ. eigenvalues --   -8.99137  -8.99116  -6.68055  -6.67964  -6.67777
 Alpha  occ. eigenvalues --   -6.67302  -6.67282  -6.67222  -6.67199  -6.67026
 Alpha  occ. eigenvalues --   -6.66996  -1.41678  -1.20174  -1.17702  -1.11589
 Alpha  occ. eigenvalues --   -1.02386  -1.01972  -0.98934  -0.94435  -0.93784
 Alpha  occ. eigenvalues --   -0.82588  -0.80548  -0.76334  -0.73846  -0.71974
 Alpha  occ. eigenvalues --   -0.69523  -0.66367  -0.65684  -0.61184  -0.60558
 Alpha  occ. eigenvalues --   -0.58299  -0.56354  -0.55551  -0.54271  -0.52963
 Alpha  occ. eigenvalues --   -0.52158  -0.50806  -0.49808  -0.48368  -0.46105
 Alpha  occ. eigenvalues --   -0.45731  -0.38876  -0.35385  -0.33831  -0.31816
 Alpha  occ. eigenvalues --   -0.26362
 Alpha virt. eigenvalues --    0.02716   0.03751   0.03856   0.05088   0.05107
 Alpha virt. eigenvalues --    0.05921   0.06577   0.08182   0.08608   0.09431
 Alpha virt. eigenvalues --    0.10258   0.10461   0.10575   0.10843   0.11349
 Alpha virt. eigenvalues --    0.12352   0.12596   0.12917   0.13056   0.13215
 Alpha virt. eigenvalues --    0.13815   0.14028   0.14467   0.14779   0.15165
 Alpha virt. eigenvalues --    0.15517   0.15646   0.16371   0.16762   0.17057
 Alpha virt. eigenvalues --    0.17893   0.18152   0.18452   0.19082   0.19542
 Alpha virt. eigenvalues --    0.19728   0.20326   0.20738   0.21356   0.21927
 Alpha virt. eigenvalues --    0.22021   0.22139   0.22562   0.23374   0.23613
 Alpha virt. eigenvalues --    0.24133   0.24331   0.25492   0.25507   0.25791
 Alpha virt. eigenvalues --    0.26454   0.26724   0.27092   0.27844   0.28236
 Alpha virt. eigenvalues --    0.29005   0.29362   0.30165   0.30705   0.31219
 Alpha virt. eigenvalues --    0.31663   0.32225   0.32439   0.32659   0.33442
 Alpha virt. eigenvalues --    0.33767   0.34146   0.34715   0.34826   0.35555
 Alpha virt. eigenvalues --    0.36059   0.36878   0.37769   0.38100   0.38814
 Alpha virt. eigenvalues --    0.39930   0.40560   0.40911   0.41148   0.42001
 Alpha virt. eigenvalues --    0.43058   0.43383   0.44579   0.44750   0.45124
 Alpha virt. eigenvalues --    0.45850   0.46613   0.46917   0.48024   0.49012
 Alpha virt. eigenvalues --    0.49230   0.49405   0.49982   0.50759   0.51990
 Alpha virt. eigenvalues --    0.52798   0.53214   0.53889   0.54634   0.54810
 Alpha virt. eigenvalues --    0.55555   0.57222   0.57816   0.58849   0.59492
 Alpha virt. eigenvalues --    0.60386   0.60800   0.60960   0.61529   0.62801
 Alpha virt. eigenvalues --    0.63424   0.63500   0.64842   0.64919   0.65752
 Alpha virt. eigenvalues --    0.66066   0.66366   0.66630   0.67479   0.67912
 Alpha virt. eigenvalues --    0.68483   0.68802   0.69497   0.70326   0.71249
 Alpha virt. eigenvalues --    0.71304   0.71705   0.72318   0.73004   0.73672
 Alpha virt. eigenvalues --    0.74243   0.74770   0.75105   0.75886   0.76357
 Alpha virt. eigenvalues --    0.76955   0.77365   0.77539   0.77846   0.79052
 Alpha virt. eigenvalues --    0.80653   0.82831   0.83369   0.83832   0.84764
 Alpha virt. eigenvalues --    0.85587   0.85938   0.86307   0.87647   0.87877
 Alpha virt. eigenvalues --    0.88124   0.89159   0.90168   0.90987   0.91468
 Alpha virt. eigenvalues --    0.91924   0.92864   0.93123   0.93954   0.95078
 Alpha virt. eigenvalues --    0.95869   0.96207   0.96814   0.97851   0.98237
 Alpha virt. eigenvalues --    0.99143   0.99390   1.00674   1.01801   1.02532
 Alpha virt. eigenvalues --    1.03707   1.04551   1.05662   1.06348   1.08174
 Alpha virt. eigenvalues --    1.09438   1.10274   1.10755   1.12003   1.12503
 Alpha virt. eigenvalues --    1.13929   1.15180   1.16028   1.16871   1.17882
 Alpha virt. eigenvalues --    1.19666   1.20478   1.21074   1.22244   1.22922
 Alpha virt. eigenvalues --    1.24142   1.24698   1.25324   1.27506   1.28097
 Alpha virt. eigenvalues --    1.28380   1.29440   1.30046   1.31279   1.32356
 Alpha virt. eigenvalues --    1.33357   1.33916   1.35326   1.36484   1.36864
 Alpha virt. eigenvalues --    1.38351   1.39688   1.40689   1.41375   1.42732
 Alpha virt. eigenvalues --    1.43290   1.45087   1.47174   1.47801   1.50045
 Alpha virt. eigenvalues --    1.52352   1.53195   1.54957   1.56136   1.57312
 Alpha virt. eigenvalues --    1.57819   1.58737   1.59760   1.61722   1.62383
 Alpha virt. eigenvalues --    1.63588   1.64014   1.66244   1.66815   1.66905
 Alpha virt. eigenvalues --    1.68058   1.69015   1.70391   1.71115   1.72075
 Alpha virt. eigenvalues --    1.73200   1.73813   1.75423   1.77407   1.77621
 Alpha virt. eigenvalues --    1.79651   1.80276   1.81080   1.82434   1.83564
 Alpha virt. eigenvalues --    1.84740   1.85922   1.86286   1.88448   1.89339
 Alpha virt. eigenvalues --    1.90510   1.91262   1.92723   1.93905   1.95992
 Alpha virt. eigenvalues --    1.97229   1.98872   1.99704   2.01464   2.03917
 Alpha virt. eigenvalues --    2.04540   2.06856   2.07326   2.08419   2.09353
 Alpha virt. eigenvalues --    2.10437   2.11654   2.12438   2.12946   2.14322
 Alpha virt. eigenvalues --    2.15413   2.17826   2.18854   2.19935   2.22182
 Alpha virt. eigenvalues --    2.23927   2.24884   2.26130   2.27731   2.30171
 Alpha virt. eigenvalues --    2.30926   2.32032   2.33738   2.34451   2.35819
 Alpha virt. eigenvalues --    2.37189   2.39587   2.40994   2.42669   2.44377
 Alpha virt. eigenvalues --    2.45729   2.46322   2.48204   2.49566   2.51255
 Alpha virt. eigenvalues --    2.53915   2.56978   2.57579   2.59508   2.64738
 Alpha virt. eigenvalues --    2.71423   2.76173   2.79890   2.81050   2.83812
 Alpha virt. eigenvalues --    2.86516   2.90798   2.93729   2.96812   3.03480
 Alpha virt. eigenvalues --    3.13924   3.14652   3.22243   3.23892   3.33078
 Alpha virt. eigenvalues --    3.36005   3.47897   3.54557   3.59559   3.76254
 Alpha virt. eigenvalues --    3.77338   3.77735   3.84637   3.91630   4.16438
 Alpha virt. eigenvalues --    4.25298   4.42820
          Condensed to atoms (all electrons):
               1          2          3          4          5          6
     1  C    7.882460  -2.457707   0.116083   0.153366  -0.119512  -0.314171
     2  C   -2.457707  11.284633  -1.917470   0.500374   0.187603  -0.391540
     3  C    0.116083  -1.917470  10.980439  -1.179421   0.041639  -0.136008
     4  C    0.153366   0.500374  -1.179421   6.384041  -0.073724   0.268409
     5  H   -0.119512   0.187603   0.041639  -0.073724   1.552350  -0.025891
     6  S   -0.314171  -0.391540  -0.136008   0.268409  -0.025891  16.227668
     7  H   -0.056711   0.061504   0.007382   0.263929  -0.061675  -0.121309
     8  C    0.388684  -0.739486  -2.075671   0.187839  -0.032316   0.068399
     9  S    0.011065  -0.001153  -0.438405  -0.015927  -0.002224   0.137525
    10  C    0.014341   0.001000  -0.106334  -0.003018  -0.002168   0.044184
    11  C   -0.068806   0.114301   0.288838   0.000967   0.001940  -0.023520
    12  C   -0.106246  -0.262758  -0.236330  -0.064269   0.012068  -0.256649
    13  H    0.005872   0.087445   0.008642   0.006114   0.002766   0.002823
    14  S   -0.000827   0.009954  -0.057534  -0.000233  -0.000107  -0.000018
    15  C    0.000672  -0.004804   0.015241  -0.000144   0.000040  -0.001389
    16  C    0.000879  -0.005578  -0.300117  -0.003450  -0.000141   0.023980
    17  H    0.000038   0.000284  -0.000551  -0.000023   0.000002  -0.000110
    18  H   -0.000307   0.000843  -0.007350  -0.000036  -0.000033   0.001061
    19  O    0.118407  -0.816267   0.319286  -0.064559  -0.051223   0.016808
    20  H   -0.110821   0.012880  -0.026588  -0.006776  -0.007735   0.008520
               7          8          9         10         11         12
     1  C   -0.056711   0.388684   0.011065   0.014341  -0.068806  -0.106246
     2  C    0.061504  -0.739486  -0.001153   0.001000   0.114301  -0.262758
     3  C    0.007382  -2.075671  -0.438405  -0.106334   0.288838  -0.236330
     4  C    0.263929   0.187839  -0.015927  -0.003018   0.000967  -0.064269
     5  H   -0.061675  -0.032316  -0.002224  -0.002168   0.001940   0.012068
     6  S   -0.121309   0.068399   0.137525   0.044184  -0.023520  -0.256649
     7  H    1.218938   0.011417   0.004660   0.002851  -0.000373  -0.006496
     8  C    0.011417  11.047924   0.175168  -0.393909  -0.398880  -2.616583
     9  S    0.004660   0.175168  16.472188   0.234042  -0.462717  -0.459983
    10  C    0.002851  -0.393909   0.234042  10.288160  -0.466240  -0.538216
    11  C   -0.000373  -0.398880  -0.462717  -0.466240  11.300013  -3.098331
    12  C   -0.006496  -2.616583  -0.459983  -0.538216  -3.098331  14.856844
    13  H    0.000166   0.445157   0.020839  -0.084079   0.414359  -1.027093
    14  S   -0.000032  -0.295581   0.115521   0.090436  -0.401006   0.061371
    15  C    0.000002   0.050954  -0.089920  -0.115549  -0.884310   0.007551
    16  C   -0.000201  -0.140497  -0.216577  -2.855047  -0.271327  -0.275049
    17  H   -0.000000  -0.000283   0.009239   0.061665  -0.066810   0.033634
    18  H    0.000024   0.068950   0.034889   0.479393   0.022747  -0.049644
    19  O   -0.002394   0.062918   0.000662   0.006533  -0.036303  -0.001904
    20  H    0.001408  -0.004770  -0.000874   0.000649   0.000720   0.015452
              13         14         15         16         17         18
     1  C    0.005872  -0.000827   0.000672   0.000879   0.000038  -0.000307
     2  C    0.087445   0.009954  -0.004804  -0.005578   0.000284   0.000843
     3  C    0.008642  -0.057534   0.015241  -0.300117  -0.000551  -0.007350
     4  C    0.006114  -0.000233  -0.000144  -0.003450  -0.000023  -0.000036
     5  H    0.002766  -0.000107   0.000040  -0.000141   0.000002  -0.000033
     6  S    0.002823  -0.000018  -0.001389   0.023980  -0.000110   0.001061
     7  H    0.000166  -0.000032   0.000002  -0.000201  -0.000000   0.000024
     8  C    0.445157  -0.295581   0.050954  -0.140497  -0.000283   0.068950
     9  S    0.020839   0.115521  -0.089920  -0.216577   0.009239   0.034889
    10  C   -0.084079   0.090436  -0.115549  -2.855047   0.061665   0.479393
    11  C    0.414359  -0.401006  -0.884310  -0.271327  -0.066810   0.022747
    12  C   -1.027093   0.061371   0.007551  -0.275049   0.033634  -0.049644
    13  H    1.627139  -0.050402   0.012139  -0.035264   0.001768   0.000348
    14  S   -0.050402  15.970678   0.202681  -0.075174  -0.144563  -0.000407
    15  C    0.012139   0.202681   6.532160   0.276536   0.294948  -0.131193
    16  C   -0.035264  -0.075174   0.276536   9.906970  -0.022874  -0.405290
    17  H    0.001768  -0.144563   0.294948  -0.022874   1.247032  -0.061472
    18  H    0.000348  -0.000407  -0.131193  -0.405290  -0.061472   1.337679
    19  O   -0.020866  -0.001329   0.000547   0.001493   0.000005   0.000072
    20  H   -0.002561  -0.000051  -0.000244   0.000741  -0.000010   0.000039
              19         20
     1  C    0.118407  -0.110821
     2  C   -0.816267   0.012880
     3  C    0.319286  -0.026588
     4  C   -0.064559  -0.006776
     5  H   -0.051223  -0.007735
     6  S    0.016808   0.008520
     7  H   -0.002394   0.001408
     8  C    0.062918  -0.004770
     9  S    0.000662  -0.000874
    10  C    0.006533   0.000649
    11  C   -0.036303   0.000720
    12  C   -0.001904   0.015452
    13  H   -0.020866  -0.002561
    14  S   -0.001329  -0.000051
    15  C    0.000547  -0.000244
    16  C    0.001493   0.000741
    17  H    0.000005  -0.000010
    18  H    0.000072   0.000039
    19  O    9.079076   0.353449
    20  H    0.353449   0.558968
 Mulliken charges:
               1
     1  C    0.543241
     2  C    0.335943
     3  C    0.704231
     4  C   -0.353458
     5  H   -0.421656
     6  S    0.471229
     7  H   -0.323093
     8  C    0.190565
     9  S    0.471982
    10  C   -0.658694
    11  C    0.034737
    12  C    0.012631
    13  H   -0.415310
    14  S    0.576624
    15  C   -0.165917
    16  C    0.395987
    17  H   -0.351919
    18  H   -0.290315
    19  O   -0.964411
    20  H    0.207604
 Sum of Mulliken charges =  -0.00000
 Mulliken charges with hydrogens summed into heavy atoms:
               1
     1  C    0.121584
     2  C    0.335943
     3  C    0.704231
     4  C   -0.676551
     6  S    0.471229
     8  C    0.190565
     9  S    0.471982
    10  C   -0.658694
    11  C    0.034737
    12  C   -0.402679
    14  S    0.576624
    15  C   -0.517836
    16  C    0.105672
    19  O   -0.756808
 Electronic spatial extent (au):  <R**2>=           4328.7927
 Charge=              0.0000 electrons
 Dipole moment (field-independent basis, Debye):
    X=             -2.2926    Y=              1.0926    Z=              0.5625  Tot=              2.6012
 Quadrupole moment (field-independent basis, Debye-Ang):
   XX=            -78.1917   YY=            -95.7358   ZZ=           -109.7022
   XY=            -10.1527   XZ=             -1.0205   YZ=              0.6916
 Traceless Quadrupole moment (field-independent basis, Debye-Ang):
   XX=             16.3516   YY=             -1.1926   ZZ=            -15.1590
   XY=            -10.1527   XZ=             -1.0205   YZ=              0.6916
 Octapole moment (field-independent basis, Debye-Ang**2):
  XXX=            -47.6181  YYY=             27.3719  ZZZ=              3.7446  XYY=            -24.1437
  XXY=              5.5842  XXZ=             13.3048  XZZ=             -6.5419  YZZ=              6.4694
  YYZ=              9.3059  XYZ=            -17.8238
 Hexadecapole moment (field-independent basis, Debye-Ang**3):
 XXXX=          -4028.0357 YYYY=           -932.6420 ZZZZ=           -216.6291 XXXY=           -116.6855
 XXXZ=             -1.2124 YYYX=           -119.4460 YYYZ=             21.9431 ZZZX=            -11.3427
 ZZZY=             10.7203 XXYY=           -854.9707 XXZZ=           -920.0281 YYZZ=           -202.2682
 XXYZ=             32.9997 YYXZ=            -20.0258 ZZXY=            -14.4050
 N-N= 1.121698568578D+03 E-N=-6.149903322218D+03  KE= 1.648698369152D+03
 Unable to Open any file for archive entry.
 1\1\GINC-CX3-11-5\FOpt\RMP2-FC\Aug-CC-pVDZ\C10H6O1S3\NS5018\27-Oct-202
 1\0\\# opt=modredundant mp2/aug-cc-pvdz\\pBTTT_145.pdb\\0,1\C,-3.94062
 70097,0.8491490916,0.166152954\C,-2.5466314037,1.1250538484,0.23528831
 46\C,-1.7392735713,0.0259906736,-0.0885665468\C,-4.198011114,-0.467699
 8339,-0.2015882096\H,-4.7268124901,1.5783577262,0.3802235009\S,-2.7374
 347083,-1.3503028069,-0.485719494\H,-5.1644674687,-0.9538389035,-0.334
 1419491\C,-0.2906006354,-0.048191397,-0.0661216247\S,0.513382037,-1.55
 24058437,0.4014617359\C,2.0826977183,-0.8211320701,0.2071021097\C,1.95
 84922402,0.5392260931,-0.170865566\C,0.6172696559,0.9814244554,-0.3290
 774558\H,0.2963830559,1.9816614493,-0.623479085\S,3.5290759225,1.27154
 3159,-0.3514191907\C,4.3199479292,-0.2299464451,0.0729906019\C,3.43052
 85004,-1.2626359282,0.3459820347\H,5.4099978707,-0.2671500675,0.099445
 378\H,3.7485148363,-2.2678960192,0.6280536572\O,-1.9777775019,2.335179
 2474,0.5750328351\H,-2.6796538632,2.918613571,0.8982459996\\Version=ES
 64L-G16RevC.01\State=1-A\HF=-1649.6307622\MP2=-1651.6231249\RMSD=9.545
 e-09\RMSF=3.220e-04\Dipole=-0.7047329,0.3661807,0.1967374\PG=C01 [X(C1
 0H6O1S3)]\\@
 The archive entry for this job was punched.


 POCKETA-POCKETA
 BARON VON RICHTOFEN
 SLAUGHTERED THE ALLIES WITH
 HARDLY A CARE.
 KILLED EIGHTY-ONE WITH HIS
 BLOOD-COLORED TRIPLANE, THEN
 UN-AEROBATICALLY
 PLUNGED FROM THE AIR.
   -- TONY HOFFMAN
 Job cpu time:       0 days 12 hours 39 minutes 21.5 seconds.
 Elapsed time:       0 days  1 hours 42 minutes 39.2 seconds.
 File lengths (MBytes):  RWF=    106 Int=      0 D2E=      0 Chk=     16 Scr=      1
 Normal termination of Gaussian 16 at Wed Oct 27 08:01:35 2021.
