 Entering Gaussian System, Link 0=g16
 Input=pBTTT_100.gjf
 Output=pBTTT_100.log
 Initial command:
 /apps/gaussian/g16-c01-avx/g16/l1.exe "/tmp/pbs.4766300[275].pbs/Gau-2908423.inp" -scrdir="/tmp/pbs.4766300[275].pbs/"
 Entering Link 1 = /apps/gaussian/g16-c01-avx/g16/l1.exe PID=   2908424.
  
 Copyright (c) 1988-2019, Gaussian, Inc.  All Rights Reserved.
  
 This is part of the Gaussian(R) 16 program.  It is based on
 the Gaussian(R) 09 system (copyright 2009, Gaussian, Inc.),
 the Gaussian(R) 03 system (copyright 2003, Gaussian, Inc.),
 the Gaussian(R) 98 system (copyright 1998, Gaussian, Inc.),
 the Gaussian(R) 94 system (copyright 1995, Gaussian, Inc.),
 the Gaussian 92(TM) system (copyright 1992, Gaussian, Inc.),
 the Gaussian 90(TM) system (copyright 1990, Gaussian, Inc.),
 the Gaussian 88(TM) system (copyright 1988, Gaussian, Inc.),
 the Gaussian 86(TM) system (copyright 1986, Carnegie Mellon
 University), and the Gaussian 82(TM) system (copyright 1983,
 Carnegie Mellon University). Gaussian is a federally registered
 trademark of Gaussian, Inc.
  
 This software contains proprietary and confidential information,
 including trade secrets, belonging to Gaussian, Inc.
  
 This software is provided under written license and may be
 used, copied, transmitted, or stored only in accord with that
 written license.
  
 The following legend is applicable only to US Government
 contracts under FAR:
  
                    RESTRICTED RIGHTS LEGEND
  
 Use, reproduction and disclosure by the US Government is
 subject to restrictions as set forth in subparagraphs (a)
 and (c) of the Commercial Computer Software - Restricted
 Rights clause in FAR 52.227-19.
  
 Gaussian, Inc.
 340 Quinnipiac St., Bldg. 40, Wallingford CT 06492
  
  
 ---------------------------------------------------------------
 Warning -- This program may not be used in any manner that
 competes with the business of Gaussian, Inc. or will provide
 assistance to any competitor of Gaussian, Inc.  The licensee
 of this program is prohibited from giving any competitor of
 Gaussian, Inc. access to this program.  By using this program,
 the user acknowledges that Gaussian, Inc. is engaged in the
 business of creating and licensing software in the field of
 computational chemistry and represents and warrants to the
 licensee that it is not a competitor of Gaussian, Inc. and that
 it will not use this program in any manner prohibited above.
 ---------------------------------------------------------------
  

 Cite this work as:
 Gaussian 16, Revision C.01,
 M. J. Frisch, G. W. Trucks, H. B. Schlegel, G. E. Scuseria, 
 M. A. Robb, J. R. Cheeseman, G. Scalmani, V. Barone, 
 G. A. Petersson, H. Nakatsuji, X. Li, M. Caricato, A. V. Marenich, 
 J. Bloino, B. G. Janesko, R. Gomperts, B. Mennucci, H. P. Hratchian, 
 J. V. Ortiz, A. F. Izmaylov, J. L. Sonnenberg, D. Williams-Young, 
 F. Ding, F. Lipparini, F. Egidi, J. Goings, B. Peng, A. Petrone, 
 T. Henderson, D. Ranasinghe, V. G. Zakrzewski, J. Gao, N. Rega, 
 G. Zheng, W. Liang, M. Hada, M. Ehara, K. Toyota, R. Fukuda, 
 J. Hasegawa, M. Ishida, T. Nakajima, Y. Honda, O. Kitao, H. Nakai, 
 T. Vreven, K. Throssell, J. A. Montgomery, Jr., J. E. Peralta, 
 F. Ogliaro, M. J. Bearpark, J. J. Heyd, E. N. Brothers, K. N. Kudin, 
 V. N. Staroverov, T. A. Keith, R. Kobayashi, J. Normand, 
 K. Raghavachari, A. P. Rendell, J. C. Burant, S. S. Iyengar, 
 J. Tomasi, M. Cossi, J. M. Millam, M. Klene, C. Adamo, R. Cammi, 
 J. W. Ochterski, R. L. Martin, K. Morokuma, O. Farkas, 
 J. B. Foresman, and D. J. Fox, Gaussian, Inc., Wallingford CT, 2019.
 
 ******************************************
 Gaussian 16:  ES64L-G16RevC.01  3-Jul-2019
                27-Oct-2021 
 ******************************************
 %mem=100GB
 %nprocshared=8
 Will use up to    8 processors via shared memory.
 ----------------------------------
 # opt=modredundant mp2/aug-cc-pvdz
 ----------------------------------
 1/18=120,19=15,38=1/1,3;
 2/9=110,12=2,17=6,18=5,40=1/2;
 3/5=16,7=10,11=9,25=1,30=1,71=1/1,2,3;
 4//1;
 5/5=2,38=5/2;
 8/6=4,10=1/1;
 9/15=2,16=-3/6;
 10/5=1/2;
 6/7=2,8=2,9=2,10=2/1;
 7/12=2/1,2,3,16;
 1/18=20,19=15/3(2);
 2/9=110/2;
 99//99;
 2/9=110/2;
 3/5=16,7=10,11=9,25=1,30=1,71=1/1,2,3;
 4/5=5,16=3,69=1/1;
 5/5=2,38=5/2;
 8/6=4,10=1/1;
 9/15=2,16=-3/6;
 10/5=1/2;
 7/12=2/1,2,3,16;
 1/18=20,19=15/3(-8);
 2/9=110/2;
 6/7=2,8=2,9=2,10=2/1;
 99/9=10/99;
 -------------
 pBTTT_100.pdb
 -------------
 Symbolic Z-matrix:
 Charge =  0 Multiplicity = 1
 C                    -3.957     0.682     0.275 
 C                    -2.56      0.908     0.529 
 C                    -1.745     0.029    -0.098 
 C                    -4.162    -0.376    -0.535 
 H                    -4.748     1.291     0.689 
 S                    -2.688    -1.121    -1.02 
 H                    -5.108    -0.758    -0.881 
 C                    -0.275    -0.034    -0.043 
 S                     0.531    -1.196     1.005 
 C                     2.086    -0.614     0.498 
 C                     1.96      0.401    -0.405 
 C                     0.603     0.736    -0.722 
 H                     0.298     1.505    -1.412 
 S                     3.516     0.985    -0.913 
 C                     4.308    -0.175     0.122 
 C                     3.446    -0.954     0.807 
 H                     5.383    -0.206     0.159 
 H                     3.75     -1.726     1.495 
 O                    -2.091     1.902     1.313 
 H                    -2.8       2.372     1.718 
 
 The following ModRedundant input section has been read:
 D       2       3       8       9 F                                           
 

 GradGradGradGradGradGradGradGradGradGradGradGradGradGradGradGradGradGrad
 Berny optimization.
 Initialization pass.
                           ----------------------------
                           !    Initial Parameters    !
                           ! (Angstroms and Degrees)  !
 --------------------------                            --------------------------
 ! Name  Definition              Value          Derivative Info.                !
 --------------------------------------------------------------------------------
 ! R1    R(1,2)                  1.4378         estimate D2E/DX2                !
 ! R2    R(1,4)                  1.3481         estimate D2E/DX2                !
 ! R3    R(1,5)                  1.0807         estimate D2E/DX2                !
 ! R4    R(2,3)                  1.3528         estimate D2E/DX2                !
 ! R5    R(2,19)                 1.3501         estimate D2E/DX2                !
 ! R6    R(3,6)                  1.7498         estimate D2E/DX2                !
 ! R7    R(3,8)                  1.4724         estimate D2E/DX2                !
 ! R8    R(4,6)                  1.7213         estimate D2E/DX2                !
 ! R9    R(4,7)                  1.0773         estimate D2E/DX2                !
 ! R10   R(8,9)                  1.7602         estimate D2E/DX2                !
 ! R11   R(8,12)                 1.3509         estimate D2E/DX2                !
 ! R12   R(9,10)                 1.736          estimate D2E/DX2                !
 ! R13   R(10,11)                1.3644         estimate D2E/DX2                !
 ! R14   R(10,16)                1.4355         estimate D2E/DX2                !
 ! R15   R(11,12)                1.4332         estimate D2E/DX2                !
 ! R16   R(11,14)                1.7379         estimate D2E/DX2                !
 ! R17   R(12,13)                1.0773         estimate D2E/DX2                !
 ! R18   R(14,15)                1.7447         estimate D2E/DX2                !
 ! R19   R(15,16)                1.3487         estimate D2E/DX2                !
 ! R20   R(15,17)                1.0761         estimate D2E/DX2                !
 ! R21   R(16,18)                1.0778         estimate D2E/DX2                !
 ! R22   R(19,20)                0.9421         estimate D2E/DX2                !
 ! A1    A(2,1,4)              112.1634         estimate D2E/DX2                !
 ! A2    A(2,1,5)              123.7044         estimate D2E/DX2                !
 ! A3    A(4,1,5)              124.1321         estimate D2E/DX2                !
 ! A4    A(1,2,3)              113.6633         estimate D2E/DX2                !
 ! A5    A(1,2,19)             123.7701         estimate D2E/DX2                !
 ! A6    A(3,2,19)             122.5662         estimate D2E/DX2                !
 ! A7    A(2,3,6)              110.2786         estimate D2E/DX2                !
 ! A8    A(2,3,8)              127.733          estimate D2E/DX2                !
 ! A9    A(6,3,8)              121.9789         estimate D2E/DX2                !
 ! A10   A(1,4,6)              112.2555         estimate D2E/DX2                !
 ! A11   A(1,4,7)              127.2129         estimate D2E/DX2                !
 ! A12   A(6,4,7)              120.5304         estimate D2E/DX2                !
 ! A13   A(3,6,4)               91.6374         estimate D2E/DX2                !
 ! A14   A(3,8,9)              120.5081         estimate D2E/DX2                !
 ! A15   A(3,8,12)             127.2822         estimate D2E/DX2                !
 ! A16   A(9,8,12)             112.2067         estimate D2E/DX2                !
 ! A17   A(8,9,10)              90.8571         estimate D2E/DX2                !
 ! A18   A(9,10,11)            111.0984         estimate D2E/DX2                !
 ! A19   A(9,10,16)            134.9379         estimate D2E/DX2                !
 ! A20   A(11,10,16)           113.9637         estimate D2E/DX2                !
 ! A21   A(10,11,12)           114.0609         estimate D2E/DX2                !
 ! A22   A(10,11,14)           111.1474         estimate D2E/DX2                !
 ! A23   A(12,11,14)           134.7906         estimate D2E/DX2                !
 ! A24   A(8,12,11)            111.776          estimate D2E/DX2                !
 ! A25   A(8,12,13)            123.013          estimate D2E/DX2                !
 ! A26   A(11,12,13)           125.2108         estimate D2E/DX2                !
 ! A27   A(11,14,15)            90.5505         estimate D2E/DX2                !
 ! A28   A(14,15,16)           113.2765         estimate D2E/DX2                !
 ! A29   A(14,15,17)           119.54           estimate D2E/DX2                !
 ! A30   A(16,15,17)           127.1834         estimate D2E/DX2                !
 ! A31   A(10,16,15)           111.0617         estimate D2E/DX2                !
 ! A32   A(10,16,18)           125.0473         estimate D2E/DX2                !
 ! A33   A(15,16,18)           123.8909         estimate D2E/DX2                !
 ! A34   A(2,19,20)            110.8245         estimate D2E/DX2                !
 ! D1    D(4,1,2,3)              0.4795         estimate D2E/DX2                !
 ! D2    D(4,1,2,19)          -179.737          estimate D2E/DX2                !
 ! D3    D(5,1,2,3)           -179.6296         estimate D2E/DX2                !
 ! D4    D(5,1,2,19)             0.1539         estimate D2E/DX2                !
 ! D5    D(2,1,4,6)             -0.3291         estimate D2E/DX2                !
 ! D6    D(2,1,4,7)           -179.9274         estimate D2E/DX2                !
 ! D7    D(5,1,4,6)            179.7806         estimate D2E/DX2                !
 ! D8    D(5,1,4,7)              0.1823         estimate D2E/DX2                !
 ! D9    D(1,2,3,6)             -0.3974         estimate D2E/DX2                !
 ! D10   D(1,2,3,8)           -179.282          estimate D2E/DX2                !
 ! D11   D(19,2,3,6)           179.8163         estimate D2E/DX2                !
 ! D12   D(19,2,3,8)             0.9316         estimate D2E/DX2                !
 ! D13   D(1,2,19,20)            4.6046         estimate D2E/DX2                !
 ! D14   D(3,2,19,20)         -175.6307         estimate D2E/DX2                !
 ! D15   D(2,3,6,4)              0.1795         estimate D2E/DX2                !
 ! D16   D(8,3,6,4)            179.1396         estimate D2E/DX2                !
 ! D17   D(2,3,8,9)             99.9892         Frozen                          !
 ! D18   D(2,3,8,12)           -79.3279         estimate D2E/DX2                !
 ! D19   D(6,3,8,9)            -78.7774         estimate D2E/DX2                !
 ! D20   D(6,3,8,12)           101.9055         estimate D2E/DX2                !
 ! D21   D(1,4,6,3)              0.0934         estimate D2E/DX2                !
 ! D22   D(7,4,6,3)            179.722          estimate D2E/DX2                !
 ! D23   D(3,8,9,10)          -179.5002         estimate D2E/DX2                !
 ! D24   D(12,8,9,10)           -0.0871         estimate D2E/DX2                !
 ! D25   D(3,8,12,11)          179.2825         estimate D2E/DX2                !
 ! D26   D(3,8,12,13)           -0.5856         estimate D2E/DX2                !
 ! D27   D(9,8,12,11)           -0.082          estimate D2E/DX2                !
 ! D28   D(9,8,12,13)         -179.9501         estimate D2E/DX2                !
 ! D29   D(8,9,10,11)            0.2394         estimate D2E/DX2                !
 ! D30   D(8,9,10,16)         -179.6674         estimate D2E/DX2                !
 ! D31   D(9,10,11,12)          -0.3355         estimate D2E/DX2                !
 ! D32   D(9,10,11,14)         179.9796         estimate D2E/DX2                !
 ! D33   D(16,10,11,12)        179.5923         estimate D2E/DX2                !
 ! D34   D(16,10,11,14)         -0.0926         estimate D2E/DX2                !
 ! D35   D(9,10,16,15)        -179.9829         estimate D2E/DX2                !
 ! D36   D(9,10,16,18)          -0.1028         estimate D2E/DX2                !
 ! D37   D(11,10,16,15)          0.1123         estimate D2E/DX2                !
 ! D38   D(11,10,16,18)        179.9924         estimate D2E/DX2                !
 ! D39   D(10,11,12,8)           0.2733         estimate D2E/DX2                !
 ! D40   D(10,11,12,13)       -179.862          estimate D2E/DX2                !
 ! D41   D(14,11,12,8)         179.8592         estimate D2E/DX2                !
 ! D42   D(14,11,12,13)         -0.2761         estimate D2E/DX2                !
 ! D43   D(10,11,14,15)          0.0393         estimate D2E/DX2                !
 ! D44   D(12,11,14,15)       -179.5553         estimate D2E/DX2                !
 ! D45   D(11,14,15,16)          0.0255         estimate D2E/DX2                !
 ! D46   D(11,14,15,17)       -179.895          estimate D2E/DX2                !
 ! D47   D(14,15,16,10)         -0.0799         estimate D2E/DX2                !
 ! D48   D(14,15,16,18)       -179.9617         estimate D2E/DX2                !
 ! D49   D(17,15,16,10)        179.8332         estimate D2E/DX2                !
 ! D50   D(17,15,16,18)         -0.0486         estimate D2E/DX2                !
 --------------------------------------------------------------------------------
 Trust Radius=3.00D-01 FncErr=1.00D-07 GrdErr=1.00D-07 EigMax=2.50D+02 EigMin=1.00D-04
 Number of steps in this run=    116 maximum allowed number of steps=    120.
 GradGradGradGradGradGradGradGradGradGradGradGradGradGradGradGradGradGrad

                          Input orientation:                          
 ---------------------------------------------------------------------
 Center     Atomic      Atomic             Coordinates (Angstroms)
 Number     Number       Type             X           Y           Z
 ---------------------------------------------------------------------
      1          6           0       -3.957000    0.682000    0.275000
      2          6           0       -2.560000    0.908000    0.529000
      3          6           0       -1.745000    0.029000   -0.098000
      4          6           0       -4.162000   -0.376000   -0.535000
      5          1           0       -4.748000    1.291000    0.689000
      6         16           0       -2.688000   -1.121000   -1.020000
      7          1           0       -5.108000   -0.758000   -0.881000
      8          6           0       -0.275000   -0.034000   -0.043000
      9         16           0        0.531000   -1.196000    1.005000
     10          6           0        2.086000   -0.614000    0.498000
     11          6           0        1.960000    0.401000   -0.405000
     12          6           0        0.603000    0.736000   -0.722000
     13          1           0        0.298000    1.505000   -1.412000
     14         16           0        3.516000    0.985000   -0.913000
     15          6           0        4.308000   -0.175000    0.122000
     16          6           0        3.446000   -0.954000    0.807000
     17          1           0        5.383000   -0.206000    0.159000
     18          1           0        3.750000   -1.726000    1.495000
     19          8           0       -2.091000    1.902000    1.313000
     20          1           0       -2.800000    2.372000    1.718000
 ---------------------------------------------------------------------
                    Distance matrix (angstroms):
                    1          2          3          4          5
     1  C    0.000000
     2  C    1.437776   0.000000
     3  C    2.336339   1.352773   0.000000
     4  C    1.348143   2.312392   2.489354   0.000000
     5  H    1.080721   2.227023   3.351122   2.149526   0.000000
     6  S    2.556989   2.555900   1.749809   1.721315   3.603058
     7  H    2.175945   3.354990   3.541501   1.077291   2.606319
     8  C    3.764426   2.536883   1.472377   3.932912   4.722201
     9  S    4.919546   3.769307   2.810233   5.006820   5.844045
    10  C    6.184432   4.889045   3.930041   6.337289   7.097116
    11  C    5.962571   4.643254   3.736263   6.172480   6.854648
    12  C    4.668032   3.405753   2.530282   4.896605   5.561668
    13  H    4.650626   3.506003   2.842362   4.919237   5.470111
    14  S    7.572904   6.245244   5.408908   7.806849   8.423404
    15  C    8.310721   6.964766   6.060431   8.497820   9.191397
    16  C    7.600258   6.294153   5.360205   7.747045   8.496799
    17  H    9.382835   8.029268   7.136502   9.571706  10.254710
    18  H    8.166071   6.905593   5.984371   8.279079   9.053614
    19  O    2.459228   1.350057   2.370394   3.590742   2.796846
    20  H    2.505394   1.901215   3.146511   3.805595   2.453998
                    6          7          8          9         10
     6  S    0.000000
     7  H    2.451018   0.000000
     8  C    2.821111   4.958257   0.000000
     9  S    3.803710   5.962144   1.760166   0.000000
    10  C    5.035122   7.326392   2.490663   1.736029   0.000000
    11  C    4.929362   7.178195   2.305536   2.565258   1.364372
    12  C    3.790506   5.905323   1.350861   2.592361   2.347379
    13  H    3.995715   5.884553   2.137992   3.632021   3.366780
    14  S    6.552580   8.798434   4.020814   4.164818   2.567610
    15  C    7.151440   9.487199   4.588136   4.010967   2.295949
    16  C    6.402482   8.721163   3.926161   2.931722   1.435507
    17  H    8.207820  10.556864   5.664217   5.023716   3.339400
    18  H    6.938234   9.222069   4.629140   3.298933   2.235945
    19  O    3.864949   4.581651   2.980719   4.070301   4.943866
    20  H    4.439621   4.677453   3.907119   4.933007   5.854707
                   11         12         13         14         15
    11  C    0.000000
    12  C    1.433235   0.000000
    13  H    2.234974   1.077259   0.000000
    14  S    1.737888   2.929855   3.297715   0.000000
    15  C    2.474391   3.907593   4.610386   1.744732   0.000000
    16  C    2.348013   3.643706   4.569524   2.592879   1.348744
    17  H    3.521857   4.950952   5.590419   2.460356   1.076083
    18  H    3.367229   4.569479   5.550344   3.633558   2.145249
    19  O    4.649207   3.571893   3.645621   6.102001   6.832248
    20  H    5.572214   4.495610   4.488451   6.981245   7.717389
                   16         17         18         19         20
    16  C    0.000000
    17  H    2.175173   0.000000
    18  H    1.077842   2.600382   0.000000
    19  O    6.250691   7.850863   6.878429   0.000000
    20  H    7.134754   8.719980   7.729543   0.942128   0.000000
 Stoichiometry    C10H6OS3
 Framework group  C1[X(C10H6OS3)]
 Deg. of freedom    54
 Full point group                 C1      NOp   1
 Largest Abelian subgroup         C1      NOp   1
 Largest concise Abelian subgroup C1      NOp   1
                         Standard orientation:                         
 ---------------------------------------------------------------------
 Center     Atomic      Atomic             Coordinates (Angstroms)
 Number     Number       Type             X           Y           Z
 ---------------------------------------------------------------------
      1          6           0       -3.957058    0.682358    0.275110
      2          6           0       -2.560029    0.908304    0.528997
      3          6           0       -1.745125    0.029112   -0.097859
      4          6           0       -4.162177   -0.375794   -0.534662
      5          1           0       -4.747992    1.291504    0.689020
      6         16           0       -2.688256   -1.121007   -1.019576
      7          1           0       -5.108222   -0.757794   -0.880538
      8          6           0       -0.275128   -0.033988   -0.042915
      9         16           0        0.530833   -1.195832    1.005288
     10          6           0        2.085854   -0.614056    0.498095
     11          6           0        1.959889    0.400767   -0.405109
     12          6           0        0.602899    0.735805   -0.722115
     13          1           0        0.297925    1.504685   -1.412260
     14         16           0        3.515909    0.984543   -0.913303
     15          6           0        4.307869   -0.175302    0.121900
     16          6           0        3.445842   -0.954095    0.807102
     17          1           0        5.382869   -0.206376    0.158856
     18          1           0        3.749816   -1.725976    1.495247
     19          8           0       -2.090917    1.902431    1.312770
     20          1           0       -2.799862    2.372569    1.717705
 ---------------------------------------------------------------------
 Rotational constants (GHZ):           1.3139651           0.2604030           0.2508384
 Standard basis: Aug-CC-pVDZ (5D, 7F)
 There are   416 symmetry adapted cartesian basis functions of A   symmetry.
 There are   388 symmetry adapted basis functions of A   symmetry.
   388 basis functions,   782 primitive gaussians,   416 cartesian basis functions
    61 alpha electrons       61 beta electrons
       nuclear repulsion energy      1126.3359345234 Hartrees.
 NAtoms=   20 NActive=   20 NUniq=   20 SFac= 1.00D+00 NAtFMM=   60 NAOKFM=F Big=F
 Integral buffers will be    131072 words long.
 Raffenetti 1 integral format.
 Two-electron integral symmetry is turned on.
 One-electron integrals computed using PRISM.
 NBasis=   388 RedAO= T EigKep=  3.53D-06  NBF=   388
 NBsUse=   388 1.00D-06 EigRej= -1.00D+00 NBFU=   388
 ExpMin= 2.97D-02 ExpMax= 1.11D+05 ExpMxC= 1.07D+03 IAcc=3 IRadAn=         5 AccDes= 0.00D+00
 Harris functional with IExCor=  205 and IRadAn=       5 diagonalized for initial guess.
 HarFok:  IExCor=  205 AccDes= 0.00D+00 IRadAn=         5 IDoV= 1 UseB2=F ITyADJ=14
 ICtDFT=  3500011 ScaDFX=  1.000000  1.000000  1.000000  1.000000
 FoFCou: FMM=F IPFlag=           0 FMFlag=      100000 FMFlg1=           0
         NFxFlg=           0 DoJE=T BraDBF=F KetDBF=T FulRan=T
         wScrn=  0.000000 ICntrl=       500 IOpCl=  0 I1Cent=   200000004 NGrid=           0
         NMat0=    1 NMatS0=      1 NMatT0=    0 NMatD0=    1 NMtDS0=    0 NMtDT0=    0
 Petite list used in FoFCou.
 Requested convergence on RMS density matrix=1.00D-08 within 128 cycles.
 Requested convergence on MAX density matrix=1.00D-06.
 Requested convergence on             energy=1.00D-06.
 No special actions if energy rises.
 SCF Done:  E(RHF) =  -1649.64148727     A.U. after   17 cycles
            NFock= 17  Conv=0.60D-08     -V/T= 2.0001
 ExpMin= 2.97D-02 ExpMax= 1.11D+05 ExpMxC= 1.07D+03 IAcc=3 IRadAn=         5 AccDes= 0.00D+00
 HarFok:  IExCor=  205 AccDes= 0.00D+00 IRadAn=         5 IDoV=-2 UseB2=F ITyADJ=14
 ICtDFT= 12500011 ScaDFX=  1.000000  1.000000  1.000000  1.000000
 GSVD:  LWork=        -884 too small for GESVD, short by        3770 words or        3770 for optimal perf.
 Range of M.O.s used for correlation:    27   388
 NBasis=   388 NAE=    61 NBE=    61 NFC=    26 NFV=     0
 NROrb=    362 NOA=    35 NOB=    35 NVA=   327 NVB=   327

 **** Warning!!: The largest alpha MO coefficient is  0.77400818D+02

 Fully direct method using O(ONN) memory.
 JobTyp=1 Pass  1:  I=  27 to  61 NPSUse=  8 ParTrn=T ParDer=T DoDerP=T.
 Spin components of T(2) and E(2):
     alpha-alpha T2 =       0.1134457669D+00 E2=     -0.2736930664D+00
     alpha-beta  T2 =       0.5539057248D+00 E2=     -0.1420499159D+01
     beta-beta   T2 =       0.1134457669D+00 E2=     -0.2736930664D+00
 ANorm=    0.1334465158D+01
 E2 =    -0.1967885292D+01 EUMP2 =    -0.16516093725663D+04
          IDoAtm=11111111111111111111
          Differentiating once with respect to electric field.
                with respect to dipole field.
          Differentiating once with respect to nuclear coordinates.
 Keep R1 ints in memory in canonical form, NReq=2883857471.
          There are     1 degrees of freedom in the 1st order CPHF.  IDoFFX=0 NUNeed=     1.
 LinEq1:  Iter=  0 NonCon=     1 RMS=2.87D-03 Max=7.65D-02 NDo=     1
 AX will form     1 AO Fock derivatives at one time.
 LinEq1:  Iter=  1 NonCon=     1 RMS=6.78D-04 Max=9.87D-03 NDo=     1
 LinEq1:  Iter=  2 NonCon=     1 RMS=3.47D-04 Max=1.20D-02 NDo=     1
 LinEq1:  Iter=  3 NonCon=     1 RMS=9.11D-05 Max=2.01D-03 NDo=     1
 LinEq1:  Iter=  4 NonCon=     1 RMS=3.74D-05 Max=9.47D-04 NDo=     1
 LinEq1:  Iter=  5 NonCon=     1 RMS=1.50D-05 Max=4.02D-04 NDo=     1
 LinEq1:  Iter=  6 NonCon=     1 RMS=6.57D-06 Max=2.74D-04 NDo=     1
 LinEq1:  Iter=  7 NonCon=     1 RMS=2.82D-06 Max=5.36D-05 NDo=     1
 LinEq1:  Iter=  8 NonCon=     1 RMS=1.09D-06 Max=3.01D-05 NDo=     1
 LinEq1:  Iter=  9 NonCon=     1 RMS=4.16D-07 Max=1.05D-05 NDo=     1
 LinEq1:  Iter= 10 NonCon=     1 RMS=1.61D-07 Max=3.30D-06 NDo=     1
 LinEq1:  Iter= 11 NonCon=     1 RMS=6.31D-08 Max=3.07D-06 NDo=     1
 LinEq1:  Iter= 12 NonCon=     1 RMS=2.32D-08 Max=5.86D-07 NDo=     1
 LinEq1:  Iter= 13 NonCon=     1 RMS=9.15D-09 Max=2.59D-07 NDo=     1
 LinEq1:  Iter= 14 NonCon=     1 RMS=3.01D-09 Max=5.05D-08 NDo=     1
 LinEq1:  Iter= 15 NonCon=     1 RMS=1.08D-09 Max=1.64D-08 NDo=     1
 LinEq1:  Iter= 16 NonCon=     1 RMS=3.75D-10 Max=7.91D-09 NDo=     1
 LinEq1:  Iter= 17 NonCon=     1 RMS=1.44D-10 Max=3.28D-09 NDo=     1
 LinEq1:  Iter= 18 NonCon=     1 RMS=5.33D-11 Max=1.48D-09 NDo=     1
 LinEq1:  Iter= 19 NonCon=     0 RMS=2.16D-11 Max=8.61D-10 NDo=     1
 Linear equations converged to 1.000D-10 1.000D-09 after    19 iterations.
 End of Minotr F.D. properties file   721 does not exist.
 End of Minotr F.D. properties file   722 does not exist.
 End of Minotr F.D. properties file   788 does not exist.

 **********************************************************************

            Population analysis using the SCF Density.

 **********************************************************************

 Orbital symmetries:
       Occupied  (A) (A) (A) (A) (A) (A) (A) (A) (A) (A) (A) (A)
                 (A) (A) (A) (A) (A) (A) (A) (A) (A) (A) (A) (A)
                 (A) (A) (A) (A) (A) (A) (A) (A) (A) (A) (A) (A)
                 (A) (A) (A) (A) (A) (A) (A) (A) (A) (A) (A) (A)
                 (A) (A) (A) (A) (A) (A) (A) (A) (A) (A) (A) (A)
                 (A)
       Virtual   (A) (A) (A) (A) (A) (A) (A) (A) (A) (A) (A) (A)
                 (A) (A) (A) (A) (A) (A) (A) (A) (A) (A) (A) (A)
                 (A) (A) (A) (A) (A) (A) (A) (A) (A) (A) (A) (A)
                 (A) (A) (A) (A) (A) (A) (A) (A) (A) (A) (A) (A)
                 (A) (A) (A) (A) (A) (A) (A) (A) (A) (A) (A) (A)
                 (A) (A) (A) (A) (A) (A) (A) (A) (A) (A) (A) (A)
                 (A) (A) (A) (A) (A) (A) (A) (A) (A) (A) (A) (A)
                 (A) (A) (A) (A) (A) (A) (A) (A) (A) (A) (A) (A)
                 (A) (A) (A) (A) (A) (A) (A) (A) (A) (A) (A) (A)
                 (A) (A) (A) (A) (A) (A) (A) (A) (A) (A) (A) (A)
                 (A) (A) (A) (A) (A) (A) (A) (A) (A) (A) (A) (A)
                 (A) (A) (A) (A) (A) (A) (A) (A) (A) (A) (A) (A)
                 (A) (A) (A) (A) (A) (A) (A) (A) (A) (A) (A) (A)
                 (A) (A) (A) (A) (A) (A) (A) (A) (A) (A) (A) (A)
                 (A) (A) (A) (A) (A) (A) (A) (A) (A) (A) (A) (A)
                 (A) (A) (A) (A) (A) (A) (A) (A) (A) (A) (A) (A)
                 (A) (A) (A) (A) (A) (A) (A) (A) (A) (A) (A) (A)
                 (A) (A) (A) (A) (A) (A) (A) (A) (A) (A) (A) (A)
                 (A) (A) (A) (A) (A) (A) (A) (A) (A) (A) (A) (A)
                 (A) (A) (A) (A) (A) (A) (A) (A) (A) (A) (A) (A)
                 (A) (A) (A) (A) (A) (A) (A) (A) (A) (A) (A) (A)
                 (A) (A) (A) (A) (A) (A) (A) (A) (A) (A) (A) (A)
                 (A) (A) (A) (A) (A) (A) (A) (A) (A) (A) (A) (A)
                 (A) (A) (A) (A) (A) (A) (A) (A) (A) (A) (A) (A)
                 (A) (A) (A) (A) (A) (A) (A) (A) (A) (A) (A) (A)
                 (A) (A) (A) (A) (A) (A) (A) (A) (A) (A) (A) (A)
                 (A) (A) (A) (A) (A) (A) (A) (A) (A) (A) (A) (A)
                 (A) (A) (A)
 The electronic state is 1-A.
 Alpha  occ. eigenvalues --  -91.98947 -91.98656 -91.98430 -20.60927 -11.31778
 Alpha  occ. eigenvalues --  -11.28374 -11.28359 -11.27433 -11.26873 -11.26856
 Alpha  occ. eigenvalues --  -11.26707 -11.25457 -11.25433 -11.25340  -8.99135
 Alpha  occ. eigenvalues --   -8.98838  -8.98590  -6.67301  -6.67209  -6.67011
 Alpha  occ. eigenvalues --   -6.67005  -6.66927  -6.66754  -6.66721  -6.66672
 Alpha  occ. eigenvalues --   -6.66465  -1.42923  -1.21261  -1.18394  -1.12573
 Alpha  occ. eigenvalues --   -1.02826  -1.01987  -0.98601  -0.95650  -0.94223
 Alpha  occ. eigenvalues --   -0.82535  -0.81082  -0.77035  -0.74957  -0.72189
 Alpha  occ. eigenvalues --   -0.69679  -0.66801  -0.66468  -0.62077  -0.60982
 Alpha  occ. eigenvalues --   -0.58336  -0.56348  -0.56033  -0.53730  -0.53269
 Alpha  occ. eigenvalues --   -0.52689  -0.50628  -0.49269  -0.48634  -0.45909
 Alpha  occ. eigenvalues --   -0.45819  -0.38362  -0.34906  -0.32570  -0.31684
 Alpha  occ. eigenvalues --   -0.30035
 Alpha virt. eigenvalues --    0.02768   0.03707   0.03978   0.04927   0.05093
 Alpha virt. eigenvalues --    0.06230   0.08016   0.08405   0.08776   0.09002
 Alpha virt. eigenvalues --    0.09746   0.10260   0.10399   0.10896   0.11448
 Alpha virt. eigenvalues --    0.12393   0.12469   0.12670   0.12973   0.13591
 Alpha virt. eigenvalues --    0.13883   0.14115   0.14407   0.14580   0.15083
 Alpha virt. eigenvalues --    0.15452   0.15938   0.16204   0.16313   0.16678
 Alpha virt. eigenvalues --    0.17256   0.17967   0.18387   0.18802   0.19357
 Alpha virt. eigenvalues --    0.19811   0.19943   0.20653   0.20801   0.21058
 Alpha virt. eigenvalues --    0.21885   0.22231   0.23083   0.23219   0.23314
 Alpha virt. eigenvalues --    0.24047   0.24362   0.24564   0.24952   0.25931
 Alpha virt. eigenvalues --    0.26221   0.27253   0.27554   0.27742   0.28275
 Alpha virt. eigenvalues --    0.29021   0.29949   0.30693   0.31365   0.31743
 Alpha virt. eigenvalues --    0.32038   0.32170   0.32890   0.33149   0.33195
 Alpha virt. eigenvalues --    0.33810   0.34715   0.35170   0.35434   0.36216
 Alpha virt. eigenvalues --    0.36497   0.36731   0.37380   0.38843   0.39552
 Alpha virt. eigenvalues --    0.40321   0.40399   0.40805   0.41853   0.42350
 Alpha virt. eigenvalues --    0.43383   0.43536   0.44675   0.45421   0.45812
 Alpha virt. eigenvalues --    0.46141   0.46528   0.47102   0.48281   0.48634
 Alpha virt. eigenvalues --    0.49130   0.49766   0.50462   0.50563   0.52066
 Alpha virt. eigenvalues --    0.53027   0.54199   0.54369   0.54886   0.55123
 Alpha virt. eigenvalues --    0.55896   0.57451   0.58171   0.59083   0.59379
 Alpha virt. eigenvalues --    0.60279   0.60836   0.61501   0.61731   0.62214
 Alpha virt. eigenvalues --    0.62648   0.63555   0.64479   0.65442   0.65982
 Alpha virt. eigenvalues --    0.66215   0.67086   0.68078   0.68166   0.68588
 Alpha virt. eigenvalues --    0.69119   0.69731   0.70047   0.70610   0.70942
 Alpha virt. eigenvalues --    0.72229   0.72809   0.73339   0.73788   0.74371
 Alpha virt. eigenvalues --    0.74592   0.74689   0.75497   0.76403   0.76768
 Alpha virt. eigenvalues --    0.76869   0.78282   0.78447   0.78815   0.80078
 Alpha virt. eigenvalues --    0.80761   0.81620   0.82756   0.83214   0.83971
 Alpha virt. eigenvalues --    0.85146   0.85593   0.85898   0.87226   0.87812
 Alpha virt. eigenvalues --    0.88543   0.88950   0.89882   0.91105   0.91682
 Alpha virt. eigenvalues --    0.91855   0.92865   0.93448   0.94475   0.95083
 Alpha virt. eigenvalues --    0.95997   0.96451   0.96567   0.97631   0.98389
 Alpha virt. eigenvalues --    0.99139   0.99742   1.00704   1.02307   1.02972
 Alpha virt. eigenvalues --    1.04238   1.05020   1.06264   1.06521   1.07593
 Alpha virt. eigenvalues --    1.08998   1.09566   1.10447   1.11144   1.12814
 Alpha virt. eigenvalues --    1.13499   1.14459   1.17514   1.18122   1.19071
 Alpha virt. eigenvalues --    1.19203   1.21676   1.22171   1.23003   1.23952
 Alpha virt. eigenvalues --    1.24726   1.25067   1.25895   1.26369   1.26444
 Alpha virt. eigenvalues --    1.28237   1.29567   1.30642   1.31435   1.32000
 Alpha virt. eigenvalues --    1.33549   1.33847   1.34914   1.36954   1.37189
 Alpha virt. eigenvalues --    1.37370   1.38342   1.40806   1.41967   1.42512
 Alpha virt. eigenvalues --    1.43457   1.44796   1.46310   1.46891   1.49259
 Alpha virt. eigenvalues --    1.50433   1.54261   1.55307   1.55844   1.56174
 Alpha virt. eigenvalues --    1.57344   1.58302   1.59436   1.60278   1.61174
 Alpha virt. eigenvalues --    1.62033   1.63462   1.64801   1.65811   1.66342
 Alpha virt. eigenvalues --    1.67087   1.69300   1.70333   1.71611   1.72170
 Alpha virt. eigenvalues --    1.73599   1.75012   1.75434   1.76046   1.77383
 Alpha virt. eigenvalues --    1.79859   1.80134   1.81300   1.82217   1.83672
 Alpha virt. eigenvalues --    1.85567   1.86546   1.88330   1.88628   1.89647
 Alpha virt. eigenvalues --    1.91749   1.93178   1.94384   1.95492   1.96726
 Alpha virt. eigenvalues --    1.97642   2.00733   2.01436   2.02645   2.05432
 Alpha virt. eigenvalues --    2.06744   2.06952   2.08560   2.08808   2.09830
 Alpha virt. eigenvalues --    2.10623   2.11519   2.13471   2.14718   2.16189
 Alpha virt. eigenvalues --    2.17292   2.18588   2.19846   2.21644   2.22210
 Alpha virt. eigenvalues --    2.23576   2.25684   2.28567   2.29415   2.30667
 Alpha virt. eigenvalues --    2.31631   2.33280   2.33585   2.35266   2.37600
 Alpha virt. eigenvalues --    2.39591   2.41753   2.42919   2.44379   2.46282
 Alpha virt. eigenvalues --    2.47788   2.49736   2.50056   2.51080   2.52578
 Alpha virt. eigenvalues --    2.56277   2.57790   2.60824   2.62998   2.66165
 Alpha virt. eigenvalues --    2.74677   2.81616   2.84692   2.86113   2.88072
 Alpha virt. eigenvalues --    2.92275   2.93216   2.97917   3.00331   3.03366
 Alpha virt. eigenvalues --    3.10529   3.18162   3.25028   3.26182   3.34644
 Alpha virt. eigenvalues --    3.44470   3.53269   3.57667   3.63785   3.75963
 Alpha virt. eigenvalues --    3.77966   3.80607   3.87686   3.88182   4.23170
 Alpha virt. eigenvalues --    4.24476   4.48525
          Condensed to atoms (all electrons):
               1          2          3          4          5          6
     1  C    7.429170  -1.737851  -0.156318   0.080360  -0.181978  -0.526670
     2  C   -1.737851   9.555056  -1.740719   0.518896   0.199847  -0.225494
     3  C   -0.156318  -1.740719  11.655013  -1.433242  -0.096723   0.037057
     4  C    0.080360   0.518896  -1.433242   6.514155   0.019973   0.402194
     5  H   -0.181978   0.199847  -0.096723   0.019973   1.655191  -0.013599
     6  S   -0.526670  -0.225494   0.037057   0.402194  -0.013599  16.340677
     7  H    0.028677   0.028414   0.080700   0.182426  -0.066742  -0.169146
     8  C    0.539731  -0.524846  -2.248603   0.284214   0.033793  -0.557547
     9  S   -0.008044   0.107224  -0.607238   0.017975  -0.002448   0.134780
    10  C    0.014991   0.055890  -0.470152   0.031932   0.002115  -0.008379
    11  C   -0.037317  -0.093917   0.575827  -0.011274  -0.002968   0.086214
    12  C   -0.097979   0.172835  -0.100446  -0.140423  -0.007597   0.085022
    13  H    0.001912   0.007801   0.070064   0.005045   0.000242   0.021105
    14  S    0.000602   0.002095  -0.068225  -0.001619   0.000036   0.002700
    15  C   -0.001566  -0.007342   0.036440   0.000711  -0.000087   0.003921
    16  C    0.003516   0.032727  -0.378111  -0.001638   0.000045  -0.008901
    17  H   -0.000084   0.000248  -0.000281   0.000040  -0.000004   0.000151
    18  H    0.000153  -0.000203  -0.011904  -0.000116   0.000009   0.000738
    19  O    0.096639  -0.683474   0.338981  -0.103808  -0.077527   0.001659
    20  H   -0.132662   0.005155  -0.052786  -0.018834  -0.011323   0.018281
               7          8          9         10         11         12
     1  C    0.028677   0.539731  -0.008044   0.014991  -0.037317  -0.097979
     2  C    0.028414  -0.524846   0.107224   0.055890  -0.093917   0.172835
     3  C    0.080700  -2.248603  -0.607238  -0.470152   0.575827  -0.100446
     4  C    0.182426   0.284214   0.017975   0.031932  -0.011274  -0.140423
     5  H   -0.066742   0.033793  -0.002448   0.002115  -0.002968  -0.007597
     6  S   -0.169146  -0.557547   0.134780  -0.008379   0.086214   0.085022
     7  H    1.255003  -0.017217   0.001357  -0.000089   0.000844   0.005508
     8  C   -0.017217  12.849880   0.250192   0.409056  -0.992485  -3.650519
     9  S    0.001357   0.250192  16.424800   0.255342  -0.430758  -0.387058
    10  C   -0.000089   0.409056   0.255342  11.030070  -0.531164  -1.958206
    11  C    0.000844  -0.992485  -0.430758  -0.531164  11.943058  -2.697813
    12  C    0.005508  -3.650519  -0.387058  -1.958206  -2.697813  15.283177
    13  H    0.000338   0.056888   0.035321  -0.055336   0.688997  -1.008672
    14  S   -0.000121  -0.257130   0.088974  -0.117829  -0.258612   0.032938
    15  C    0.000067   0.073663  -0.092109  -0.070135  -0.958218  -0.203658
    16  C   -0.000047  -0.792603  -0.199351  -2.437697  -1.094618   0.635743
    17  H    0.000004   0.003685   0.006894   0.060332  -0.035695   0.032550
    18  H   -0.000008   0.129143   0.011026   0.604744   0.039891  -0.075497
    19  O   -0.000699  -0.080759   0.012844  -0.005334   0.032675   0.020941
    20  H    0.000957   0.024923  -0.002340   0.002024   0.000620  -0.003422
              13         14         15         16         17         18
     1  C    0.001912   0.000602  -0.001566   0.003516  -0.000084   0.000153
     2  C    0.007801   0.002095  -0.007342   0.032727   0.000248  -0.000203
     3  C    0.070064  -0.068225   0.036440  -0.378111  -0.000281  -0.011904
     4  C    0.005045  -0.001619   0.000711  -0.001638   0.000040  -0.000116
     5  H    0.000242   0.000036  -0.000087   0.000045  -0.000004   0.000009
     6  S    0.021105   0.002700   0.003921  -0.008901   0.000151   0.000738
     7  H    0.000338  -0.000121   0.000067  -0.000047   0.000004  -0.000008
     8  C    0.056888  -0.257130   0.073663  -0.792603   0.003685   0.129143
     9  S    0.035321   0.088974  -0.092109  -0.199351   0.006894   0.011026
    10  C   -0.055336  -0.117829  -0.070135  -2.437697   0.060332   0.604744
    11  C    0.688997  -0.258612  -0.958218  -1.094618  -0.035695   0.039891
    12  C   -1.008672   0.032938  -0.203658   0.635743   0.032550  -0.075497
    13  H    1.662664  -0.041831   0.018037  -0.044719   0.001665  -0.001892
    14  S   -0.041831  15.960450   0.185994  -0.004440  -0.160360  -0.006339
    15  C    0.018037   0.185994   6.912207   0.118341   0.181025  -0.112711
    16  C   -0.044719  -0.004440   0.118341  10.100065   0.062689  -0.624037
    17  H    0.001665  -0.160360   0.181025   0.062689   1.294839  -0.068737
    18  H   -0.001892  -0.006339  -0.112711  -0.624037  -0.068737   1.442774
    19  O    0.007726  -0.002225  -0.000141  -0.003227  -0.000065   0.000163
    20  H    0.000726   0.000251   0.000093   0.000612   0.000014   0.000006
              19         20
     1  C    0.096639  -0.132662
     2  C   -0.683474   0.005155
     3  C    0.338981  -0.052786
     4  C   -0.103808  -0.018834
     5  H   -0.077527  -0.011323
     6  S    0.001659   0.018281
     7  H   -0.000699   0.000957
     8  C   -0.080759   0.024923
     9  S    0.012844  -0.002340
    10  C   -0.005334   0.002024
    11  C    0.032675   0.000620
    12  C    0.020941  -0.003422
    13  H    0.007726   0.000726
    14  S   -0.002225   0.000251
    15  C   -0.000141   0.000093
    16  C   -0.003227   0.000612
    17  H   -0.000065   0.000014
    18  H    0.000163   0.000006
    19  O    8.997081   0.377429
    20  H    0.377429   0.632098
 Mulliken charges:
               1
     1  C    0.684716
     2  C    0.327657
     3  C    0.570665
     4  C   -0.346969
     5  H   -0.450257
     6  S    0.375235
     7  H   -0.330229
     8  C    0.466542
     9  S    0.382616
    10  C   -0.812176
    11  C   -0.223287
    12  C    0.062576
    13  H   -0.426083
    14  S    0.644692
    15  C   -0.084532
    16  C    0.635651
    17  H   -0.378910
    18  H   -0.327205
    19  O   -0.928880
    20  H    0.158178
 Sum of Mulliken charges =  -0.00000
 Mulliken charges with hydrogens summed into heavy atoms:
               1
     1  C    0.234459
     2  C    0.327657
     3  C    0.570665
     4  C   -0.677198
     6  S    0.375235
     8  C    0.466542
     9  S    0.382616
    10  C   -0.812176
    11  C   -0.223287
    12  C   -0.363506
    14  S    0.644692
    15  C   -0.463442
    16  C    0.308446
    19  O   -0.770702
 Electronic spatial extent (au):  <R**2>=           4301.2750
 Charge=              0.0000 electrons
 Dipole moment (field-independent basis, Debye):
    X=             -2.1411    Y=              0.9947    Z=              0.7374  Tot=              2.4734
 Quadrupole moment (field-independent basis, Debye-Ang):
   XX=            -77.2091   YY=           -101.4293   ZZ=           -104.1676
   XY=             -8.8357   XZ=             -0.4396   YZ=              0.1029
 Traceless Quadrupole moment (field-independent basis, Debye-Ang):
   XX=             17.0595   YY=             -7.1606   ZZ=             -9.8989
   XY=             -8.8357   XZ=             -0.4396   YZ=              0.1029
 Octapole moment (field-independent basis, Debye-Ang**2):
  XXX=            -46.7341  YYY=             18.9526  ZZZ=             11.2169  XYY=            -19.2199
  XXY=              7.4910  XXZ=             24.4385  XZZ=            -11.3559  YZZ=              7.6504
  YYZ=             10.3140  XYZ=            -27.4069
 Hexadecapole moment (field-independent basis, Debye-Ang**3):
 XXXX=          -3987.3059 YYYY=           -676.1591 ZZZZ=           -524.1873 XXXY=           -114.2354
 XXXZ=             19.8340 YYYX=            -71.0204 YYYZ=             26.4190 ZZZX=            -26.3240
 ZZZY=             17.3820 XXYY=           -868.6768 XXZZ=           -889.7091 YYZZ=           -171.3155
 XXYZ=             53.6129 YYXZ=            -24.4609 ZZXY=            -34.7509
 N-N= 1.126335934523D+03 E-N=-6.160140539822D+03  KE= 1.649558972254D+03
 Calling FoFJK, ICntrl=  10002127 FMM=F ISym2X=0 I1Cent= 0 IOpClX= 0 NMat=1 NMatS=1 NMatT=0.
 ***** Axes restored to original set *****
 -------------------------------------------------------------------
 Center     Atomic                   Forces (Hartrees/Bohr)
 Number     Number              X              Y              Z
 -------------------------------------------------------------------
      1        6           0.015143212    0.024313991    0.019196530
      2        6          -0.037889144    0.015301011    0.009263766
      3        6           0.028848813   -0.026216186   -0.016420718
      4        6          -0.004074800   -0.023909123   -0.018224079
      5        1          -0.006910479    0.005155061    0.003481167
      6       16           0.005221353   -0.004834473   -0.003134999
      7        1          -0.007824943   -0.004577470   -0.003953523
      8        6          -0.029992165   -0.019228641    0.016428556
      9       16          -0.003744619   -0.006092135    0.005031877
     10        6           0.007841539   -0.031320260    0.027727696
     11        6          -0.009405977    0.031455553   -0.027627153
     12        6           0.030668888    0.017089730   -0.014520821
     13        1          -0.003581472    0.007437695   -0.006825666
     14       16           0.002661210    0.005754757   -0.005064218
     15        6           0.014203027    0.018651180   -0.016482830
     16        6          -0.027906828   -0.016105227    0.014223323
     17        1           0.010979929    0.000553225   -0.000447248
     18        1           0.002955700   -0.007118888    0.006342979
     19        8           0.034215225    0.002160563    0.001113293
     20        1          -0.021408471    0.011529636    0.009892068
 -------------------------------------------------------------------
 Cartesian Forces:  Max     0.037889144 RMS     0.016802335

 GradGradGradGradGradGradGradGradGradGradGradGradGradGradGradGradGradGrad
 Berny optimization.
 FormGI is forming the generalized inverse of G from B-inverse, IUseBI=4.
 Internal  Forces:  Max     0.043013818 RMS     0.009844964
 Search for a local minimum.
 Step number   1 out of a maximum of  116
 All quantities printed in internal units (Hartrees-Bohrs-Radians)
 Mixed Optimization -- RFO/linear search
 Second derivative matrix not updated -- first step.
 ITU=  0
     Eigenvalues ---    0.01446   0.01577   0.01626   0.01689   0.01750
     Eigenvalues ---    0.01758   0.01983   0.02015   0.02063   0.02135
     Eigenvalues ---    0.02218   0.02288   0.02332   0.02352   0.02380
     Eigenvalues ---    0.02448   0.16000   0.16000   0.16000   0.16000
     Eigenvalues ---    0.16000   0.16000   0.22525   0.22566   0.23649
     Eigenvalues ---    0.24761   0.24784   0.24995   0.24998   0.24999
     Eigenvalues ---    0.25000   0.29045   0.29894   0.30317   0.30979
     Eigenvalues ---    0.31215   0.32632   0.35457   0.35907   0.36256
     Eigenvalues ---    0.36324   0.36328   0.36472   0.38878   0.39111
     Eigenvalues ---    0.39395   0.45851   0.50766   0.52695   0.53785
     Eigenvalues ---    0.54400   0.55009   0.595021000.000001000.00000
     Eigenvalues --- 1000.000001000.000001000.000001000.000001000.00000
     Eigenvalues --- 1000.000001000.000001000.000001000.000001000.00000
     Eigenvalues --- 1000.000001000.000001000.000001000.000001000.00000
     Eigenvalues --- 1000.000001000.000001000.000001000.000001000.00000
     Eigenvalues --- 1000.000001000.000001000.000001000.000001000.00000
     Eigenvalues --- 1000.000001000.000001000.000001000.000001000.00000
     Eigenvalues --- 1000.000001000.000001000.000001000.000001000.00000
     Eigenvalues --- 1000.000001000.000001000.000001000.000001000.00000
     Eigenvalues --- 1000.000001000.000001000.000001000.000001000.00000
     Eigenvalues --- 1000.000001000.000001000.000001000.000001000.00000
     Eigenvalues --- 1000.00000
 RFO step:  Lambda=-1.92686124D-02 EMin= 1.44568057D-02
 Linear search not attempted -- first point.
 Iteration  1 RMS(Cart)=  0.02507279 RMS(Int)=  0.00012545
 Iteration  2 RMS(Cart)=  0.00025470 RMS(Int)=  0.00004233
 Iteration  3 RMS(Cart)=  0.00000003 RMS(Int)=  0.00004233
 Iteration  1 RMS(Cart)=  0.00000454 RMS(Int)=  0.00000186
 Iteration  2 RMS(Cart)=  0.00000249 RMS(Int)=  0.00000208
 Iteration  3 RMS(Cart)=  0.00000136 RMS(Int)=  0.00000235
 Iteration  4 RMS(Cart)=  0.00000075 RMS(Int)=  0.00000253
 Variable       Old X    -DE/DX   Delta X   Delta X   Delta X     New X
                                 (Linear)    (Quad)   (Total)
    R1        2.71700  -0.00219   0.00000  -0.00282  -0.00277   2.71424
    R2        2.54762   0.03987   0.00000   0.07040   0.07043   2.61805
    R3        2.04227   0.00930   0.00000   0.02457   0.02457   2.06684
    R4        2.55637   0.03980   0.00000   0.07113   0.07114   2.62751
    R5        2.55124   0.02092   0.00000   0.03674   0.03674   2.58798
    R6        3.30666   0.00264   0.00000   0.00563   0.00558   3.31224
    R7        2.78239  -0.00540   0.00000  -0.01445  -0.01445   2.76794
    R8        3.25281   0.00730   0.00000   0.01887   0.01883   3.27165
    R9        2.03579   0.00976   0.00000   0.02553   0.02553   2.06131
   R10        3.32623   0.00591   0.00000   0.01596   0.01591   3.34214
   R11        2.55276   0.04004   0.00000   0.07087   0.07089   2.62364
   R12        3.28062   0.00552   0.00000   0.01460   0.01456   3.29518
   R13        2.57829   0.04301   0.00000   0.08200   0.08208   2.66037
   R14        2.71272  -0.00223   0.00000  -0.00287  -0.00281   2.70990
   R15        2.70842  -0.00374   0.00000  -0.00636  -0.00629   2.70213
   R16        3.28413   0.00520   0.00000   0.01389   0.01386   3.29799
   R17        2.03572   0.01070   0.00000   0.02796   0.02796   2.06368
   R18        3.29707   0.00650   0.00000   0.01694   0.01689   3.31396
   R19        2.54876   0.03896   0.00000   0.06829   0.06830   2.61706
   R20        2.03350   0.01094   0.00000   0.02848   0.02848   2.06199
   R21        2.03683   0.00998   0.00000   0.02614   0.02614   2.06297
   R22        1.78036   0.02612   0.00000   0.04251   0.04251   1.82288
    A1        1.95762  -0.00211   0.00000  -0.00234  -0.00224   1.95538
    A2        2.15905   0.00122   0.00000   0.00206   0.00202   2.16107
    A3        2.16651   0.00090   0.00000   0.00028   0.00023   2.16674
    A4        1.98380  -0.00403   0.00000  -0.01009  -0.01001   1.97379
    A5        2.16020   0.00719   0.00000   0.02425   0.02421   2.18440
    A6        2.13918  -0.00315   0.00000  -0.01416  -0.01420   2.12498
    A7        1.92472   0.00281   0.00000   0.00913   0.00910   1.93382
    A8        2.22936  -0.00169   0.00000  -0.00565  -0.00563   2.22373
    A9        2.12893  -0.00111   0.00000  -0.00350  -0.00349   2.12545
   A10        1.95923   0.00015   0.00000   0.00082   0.00083   1.96006
   A11        2.22028   0.00153   0.00000   0.00852   0.00852   2.22880
   A12        2.10365  -0.00168   0.00000  -0.00934  -0.00934   2.09431
   A13        1.59937   0.00319   0.00000   0.00246   0.00232   1.60169
   A14        2.10326  -0.00314   0.00000  -0.01131  -0.01131   2.09195
   A15        2.22149  -0.00029   0.00000  -0.00074  -0.00074   2.22075
   A16        1.95838   0.00344   0.00000   0.01198   0.01196   1.97033
   A17        1.58576   0.00182   0.00000  -0.00145  -0.00160   1.58415
   A18        1.93903   0.00164   0.00000   0.00423   0.00419   1.94323
   A19        2.35511   0.00153   0.00000   0.00134   0.00128   2.35639
   A20        1.98904  -0.00318   0.00000  -0.00557  -0.00547   1.98357
   A21        1.99074  -0.00275   0.00000  -0.00399  -0.00387   1.98686
   A22        1.93989   0.00132   0.00000   0.00314   0.00310   1.94299
   A23        2.35254   0.00143   0.00000   0.00084   0.00077   2.35331
   A24        1.95086  -0.00414   0.00000  -0.01078  -0.01068   1.94018
   A25        2.14698   0.00148   0.00000   0.00211   0.00206   2.14904
   A26        2.18534   0.00266   0.00000   0.00867   0.00862   2.19396
   A27        1.58040   0.00260   0.00000   0.00123   0.00109   1.58150
   A28        1.97705   0.00238   0.00000   0.00837   0.00836   1.98541
   A29        2.08637  -0.00241   0.00000  -0.01098  -0.01097   2.07540
   A30        2.21977   0.00003   0.00000   0.00260   0.00261   2.22238
   A31        1.93839  -0.00312   0.00000  -0.00717  -0.00708   1.93131
   A32        2.18249   0.00171   0.00000   0.00442   0.00437   2.18686
   A33        2.16230   0.00141   0.00000   0.00275   0.00271   2.16501
   A34        1.93425  -0.00474   0.00000  -0.02644  -0.02644   1.90782
    D1        0.00837  -0.00003   0.00000   0.00099   0.00098   0.00935
    D2       -3.13700  -0.00007   0.00000  -0.00017  -0.00018  -3.13718
    D3       -3.13513  -0.00001   0.00000   0.00091   0.00090  -3.13422
    D4        0.00269  -0.00005   0.00000  -0.00024  -0.00026   0.00243
    D5       -0.00574  -0.00004   0.00000   0.00012   0.00011  -0.00564
    D6       -3.14033   0.00001   0.00000  -0.00007  -0.00008  -3.14040
    D7        3.13776  -0.00006   0.00000   0.00019   0.00018   3.13794
    D8        0.00318  -0.00001   0.00000   0.00000  -0.00000   0.00318
    D9       -0.00694  -0.00002   0.00000  -0.00178  -0.00179  -0.00872
   D10       -3.12906  -0.00013   0.00000  -0.00058  -0.00057  -3.12963
   D11        3.13839  -0.00000   0.00000  -0.00074  -0.00076   3.13762
   D12        0.01626  -0.00011   0.00000   0.00046   0.00045   0.01671
   D13        0.08037  -0.00010   0.00000  -0.00227  -0.00227   0.07809
   D14       -3.06533  -0.00015   0.00000  -0.00351  -0.00351  -3.06884
   D15        0.00313  -0.00002   0.00000   0.00153   0.00154   0.00467
   D16        3.12658   0.00007   0.00000   0.00038   0.00036   3.12694
   D17        1.74514   0.00040   0.00000   0.00000   0.00000   1.74514
   D18       -1.38453   0.00049   0.00000   0.00817   0.00813  -1.37640
   D19       -1.37493   0.00024   0.00000   0.00120   0.00122  -1.37371
   D20        1.77859   0.00034   0.00000   0.00937   0.00934   1.78793
   D21        0.00163  -0.00001   0.00000  -0.00100  -0.00100   0.00063
   D22        3.13674  -0.00003   0.00000  -0.00074  -0.00076   3.13598
   D23       -3.13287   0.00015   0.00000   0.00703   0.00701  -3.12585
   D24       -0.00152   0.00005   0.00000  -0.00005  -0.00007  -0.00159
   D25        3.12907  -0.00024   0.00000  -0.00829  -0.00833   3.12074
   D26       -0.01022  -0.00018   0.00000  -0.00666  -0.00670  -0.01693
   D27       -0.00143  -0.00011   0.00000  -0.00056  -0.00055  -0.00198
   D28       -3.14072  -0.00005   0.00000   0.00107   0.00107  -3.13965
   D29        0.00418  -0.00002   0.00000   0.00059   0.00058   0.00476
   D30       -3.13579  -0.00006   0.00000  -0.00057  -0.00058  -3.13637
   D31       -0.00586  -0.00005   0.00000  -0.00106  -0.00106  -0.00692
   D32        3.14124  -0.00002   0.00000  -0.00050  -0.00051   3.14073
   D33        3.13448  -0.00002   0.00000  -0.00016  -0.00016   3.13432
   D34       -0.00162   0.00001   0.00000   0.00040   0.00039  -0.00122
   D35       -3.14129  -0.00000   0.00000   0.00023   0.00025  -3.14105
   D36       -0.00179   0.00002   0.00000   0.00094   0.00095  -0.00084
   D37        0.00196  -0.00004   0.00000  -0.00095  -0.00094   0.00102
   D38        3.14146  -0.00002   0.00000  -0.00025  -0.00024   3.14122
   D39        0.00477   0.00006   0.00000   0.00098   0.00096   0.00573
   D40       -3.13918  -0.00000   0.00000  -0.00070  -0.00073  -3.13991
   D41        3.13914   0.00002   0.00000   0.00025   0.00023   3.13937
   D42       -0.00482  -0.00005   0.00000  -0.00144  -0.00145  -0.00627
   D43        0.00069  -0.00000   0.00000   0.00014   0.00015   0.00084
   D44       -3.13383   0.00006   0.00000   0.00088   0.00088  -3.13295
   D45        0.00044  -0.00002   0.00000  -0.00071  -0.00071  -0.00027
   D46       -3.13976  -0.00003   0.00000  -0.00058  -0.00058  -3.14034
   D47       -0.00140   0.00003   0.00000   0.00102   0.00103  -0.00036
   D48       -3.14092   0.00000   0.00000   0.00032   0.00034  -3.14059
   D49        3.13868   0.00003   0.00000   0.00087   0.00087   3.13955
   D50       -0.00085   0.00001   0.00000   0.00017   0.00018  -0.00067
         Item               Value     Threshold  Converged?
 Maximum Force            0.043013     0.000450     NO 
 RMS     Force            0.009892     0.000300     NO 
 Maximum Displacement     0.075949     0.001800     NO 
 RMS     Displacement     0.025008     0.001200     NO 
 Predicted change in Energy=-9.995469D-03
 GradGradGradGradGradGradGradGradGradGradGradGradGradGradGradGradGradGrad

                          Input orientation:                          
 ---------------------------------------------------------------------
 Center     Atomic      Atomic             Coordinates (Angstroms)
 Number     Number       Type             X           Y           Z
 ---------------------------------------------------------------------
      1          6           0       -3.968997    0.691652    0.290177
      2          6           0       -2.574361    0.923798    0.543347
      3          6           0       -1.743971    0.017239   -0.106170
      4          6           0       -4.172060   -0.398325   -0.540533
      5          1           0       -4.773576    1.303962    0.707263
      6         16           0       -2.685162   -1.140579   -1.025845
      7          1           0       -5.122636   -0.798190   -0.895998
      8          6           0       -0.281361   -0.043621   -0.056217
      9         16           0        0.515564   -1.215955    1.001343
     10          6           0        2.082467   -0.633073    0.505688
     11          6           0        1.967541    0.417455   -0.424418
     12          6           0        0.616988    0.754623   -0.751454
     13          1           0        0.306001    1.534980   -1.449244
     14         16           0        3.535947    1.001486   -0.919198
     15          6           0        4.321718   -0.168837    0.124003
     16          6           0        3.438568   -0.974174    0.823569
     17          1           0        5.411938   -0.193613    0.161822
     18          1           0        3.745506   -1.757013    1.519778
     19          8           0       -2.071849    1.925359    1.330676
     20          1           0       -2.801265    2.403825    1.742409
 ---------------------------------------------------------------------
                    Distance matrix (angstroms):
                    1          2          3          4          5
     1  C    0.000000
     2  C    1.436313   0.000000
     3  C    2.358530   1.390420   0.000000
     4  C    1.385411   2.339967   2.501396   0.000000
     5  H    1.093724   2.237842   3.390551   2.194675   0.000000
     6  S    2.595615   2.595437   1.752765   1.731282   3.652522
     7  H    2.226551   3.395683   3.564286   1.090799   2.666709
     8  C    3.776145   2.559927   1.464728   3.936740   4.751724
     9  S    4.925039   3.786284   2.802294   5.001972   5.866129
    10  C    6.198513   4.910328   3.929237   6.345770   7.127276
    11  C    5.985675   4.671383   3.746568   6.194649   6.892695
    12  C    4.703214   3.448165   2.556219   4.930392   5.611400
    13  H    4.691737   3.555341   2.882668   4.961498   5.523223
    14  S    7.608072   6.283386   5.432061   7.843228   8.472605
    15  C    8.336907   6.994685   6.072907   8.522825   9.232210
    16  C    7.611274   6.311588   5.357800   7.753324   8.523071
    17  H    9.423487   8.073112   7.164029   9.611879  10.309458
    18  H    8.186661   6.934038   5.993833   8.293296   9.088701
    19  O    2.490750   1.369500   2.411007   3.648536   2.841496
    20  H    2.530635   1.918259   3.198580   3.865611   2.484197
                    6          7          8          9         10
     6  S    0.000000
     7  H    2.464827   0.000000
     8  C    2.814561   4.971173   0.000000
     9  S    3.789435   5.963534   1.768584   0.000000
    10  C    5.033234   7.342037   2.500175   1.743735   0.000000
    11  C    4.943361   7.209077   2.325021   2.609417   1.407805
    12  C    3.817234   5.947723   1.388373   2.639273   2.377758
    13  H    4.035460   5.934633   2.185750   3.690114   3.417315
    14  S    6.580426   8.843666   4.050780   4.210491   2.610495
    15  C    7.166785   9.520101   4.608307   4.043883   2.318500
    16  C    6.399069   8.733963   3.934186   2.938369   1.434018
    17  H    8.238344  10.604799   5.699446   5.071928   3.375906
    18  H    6.943606   9.241172   4.651357   3.315726   2.248848
    19  O    3.915267   4.656512   3.001034   4.083017   4.948184
    20  H    4.498835   4.754247   3.946514   4.965214   5.882438
                   11         12         13         14         15
    11  C    0.000000
    12  C    1.429904   0.000000
    13  H    2.249410   1.092054   0.000000
    14  S    1.745221   2.934178   3.316340   0.000000
    15  C    2.487299   3.917171   4.637250   1.753671   0.000000
    16  C    2.378660   3.664799   4.612430   2.636276   1.384888
    17  H    3.546964   4.972400   5.626203   2.473097   1.091156
    18  H    3.416046   4.610253   5.610927   3.688067   2.191464
    19  O    4.655191   3.596628   3.678929   6.112516   6.835161
    20  H    5.601992   4.541330   4.538353   7.015053   7.744335
                   16         17         18         19         20
    16  C    0.000000
    17  H    2.222920   0.000000
    18  H    1.091675   2.658056   0.000000
    19  O    6.247332   7.865325   6.887470   0.000000
    20  H    7.154765   8.757948   7.760306   0.964625   0.000000
 Stoichiometry    C10H6OS3
 Framework group  C1[X(C10H6OS3)]
 Deg. of freedom    54
 Full point group                 C1      NOp   1
 Largest Abelian subgroup         C1      NOp   1
 Largest concise Abelian subgroup C1      NOp   1
                         Standard orientation:                         
 ---------------------------------------------------------------------
 Center     Atomic      Atomic             Coordinates (Angstroms)
 Number     Number       Type             X           Y           Z
 ---------------------------------------------------------------------
      1          6           0       -3.968945    0.704854    0.285318
      2          6           0       -2.574031    0.933923    0.539751
      3          6           0       -1.745189    0.023728   -0.106650
      4          6           0       -4.173801   -0.386464   -0.543189
      5          1           0       -4.772450    1.320208    0.699988
      6         16           0       -2.688233   -1.133700   -1.024916
      7          1           0       -5.124967   -0.784644   -0.898970
      8          6           0       -0.282808   -0.040844   -0.054684
      9         16           0        0.509693   -1.212865    1.006541
     10          6           0        2.078749   -0.635205    0.511582
     11          6           0        1.967761    0.413514   -0.421040
     12          6           0        0.618515    0.753473   -0.750569
     13          1           0        0.310464    1.533062   -1.450517
     14         16           0        3.538322    0.992320   -0.915125
     15          6           0        4.319694   -0.177692    0.131723
     16          6           0        3.433545   -0.979133    0.831972
     17          1           0        5.409795   -0.205235    0.170996
     18          1           0        3.737542   -1.761196    1.530340
     19          8           0       -2.069904    1.935944    1.325461
     20          1           0       -2.798590    2.417246    1.735178
 ---------------------------------------------------------------------
 Rotational constants (GHZ):           1.2780769           0.2590250           0.2489935
 Standard basis: Aug-CC-pVDZ (5D, 7F)
 There are   416 symmetry adapted cartesian basis functions of A   symmetry.
 There are   388 symmetry adapted basis functions of A   symmetry.
   388 basis functions,   782 primitive gaussians,   416 cartesian basis functions
    61 alpha electrons       61 beta electrons
       nuclear repulsion energy      1117.7098415429 Hartrees.
 NAtoms=   20 NActive=   20 NUniq=   20 SFac= 1.00D+00 NAtFMM=   60 NAOKFM=F Big=F
 Integral buffers will be    131072 words long.
 Raffenetti 1 integral format.
 Two-electron integral symmetry is turned on.
 One-electron integrals computed using PRISM.
 NBasis=   388 RedAO= T EigKep=  4.01D-06  NBF=   388
 NBsUse=   388 1.00D-06 EigRej= -1.00D+00 NBFU=   388
 Initial guess from the checkpoint file:  "/tmp/pbs.4766300[275].pbs/Gau-2908424.chk"
 B after Tr=     0.000000    0.000000    0.000000
         Rot=    0.999999    0.000300    0.000648    0.001104 Ang=   0.15 deg.
 ExpMin= 2.97D-02 ExpMax= 1.11D+05 ExpMxC= 1.07D+03 IAcc=3 IRadAn=         5 AccDes= 0.00D+00
 Harris functional with IExCor=  205 and IRadAn=       5 diagonalized for initial guess.
 HarFok:  IExCor=  205 AccDes= 0.00D+00 IRadAn=         5 IDoV= 1 UseB2=F ITyADJ=14
 ICtDFT=  3500011 ScaDFX=  1.000000  1.000000  1.000000  1.000000
 FoFCou: FMM=F IPFlag=           0 FMFlag=      100000 FMFlg1=           0
         NFxFlg=           0 DoJE=T BraDBF=F KetDBF=T FulRan=T
         wScrn=  0.000000 ICntrl=       500 IOpCl=  0 I1Cent=   200000004 NGrid=           0
         NMat0=    1 NMatS0=      1 NMatT0=    0 NMatD0=    1 NMtDS0=    0 NMtDT0=    0
 Petite list used in FoFCou.
 Requested convergence on RMS density matrix=1.00D-08 within 128 cycles.
 Requested convergence on MAX density matrix=1.00D-06.
 Requested convergence on             energy=1.00D-06.
 No special actions if energy rises.
 SCF Done:  E(RHF) =  -1649.63221081     A.U. after   14 cycles
            NFock= 14  Conv=0.87D-08     -V/T= 2.0006
 ExpMin= 2.97D-02 ExpMax= 1.11D+05 ExpMxC= 1.07D+03 IAcc=3 IRadAn=         5 AccDes= 0.00D+00
 HarFok:  IExCor=  205 AccDes= 0.00D+00 IRadAn=         5 IDoV=-2 UseB2=F ITyADJ=14
 ICtDFT= 12500011 ScaDFX=  1.000000  1.000000  1.000000  1.000000
 GSVD:  LWork=        -884 too small for GESVD, short by        3770 words or        3770 for optimal perf.
 Range of M.O.s used for correlation:    27   388
 NBasis=   388 NAE=    61 NBE=    61 NFC=    26 NFV=     0
 NROrb=    362 NOA=    35 NOB=    35 NVA=   327 NVB=   327

 **** Warning!!: The largest alpha MO coefficient is  0.76456951D+02

 Fully direct method using O(ONN) memory.
 JobTyp=1 Pass  1:  I=  27 to  61 NPSUse=  8 ParTrn=T ParDer=T DoDerP=T.
 Spin components of T(2) and E(2):
     alpha-alpha T2 =       0.1167776151D+00 E2=     -0.2765120707D+00
     alpha-beta  T2 =       0.5695597776D+00 E2=     -0.1434308770D+01
     beta-beta   T2 =       0.1167776151D+00 E2=     -0.2765120707D+00
 ANorm=    0.1342801180D+01
 E2 =    -0.1987332911D+01 EUMP2 =    -0.16516195437243D+04
          IDoAtm=11111111111111111111
          Differentiating once with respect to electric field.
                with respect to dipole field.
          Differentiating once with respect to nuclear coordinates.
 Keep R1 ints in memory in canonical form, NReq=2883857471.
          There are     1 degrees of freedom in the 1st order CPHF.  IDoFFX=0 NUNeed=     1.
 LinEq1:  Iter=  0 NonCon=     1 RMS=2.90D-03 Max=6.54D-02 NDo=     1
 AX will form     1 AO Fock derivatives at one time.
 LinEq1:  Iter=  1 NonCon=     1 RMS=7.13D-04 Max=8.26D-03 NDo=     1
 LinEq1:  Iter=  2 NonCon=     1 RMS=3.69D-04 Max=1.07D-02 NDo=     1
 LinEq1:  Iter=  3 NonCon=     1 RMS=1.01D-04 Max=1.90D-03 NDo=     1
 LinEq1:  Iter=  4 NonCon=     1 RMS=4.41D-05 Max=1.12D-03 NDo=     1
 LinEq1:  Iter=  5 NonCon=     1 RMS=1.82D-05 Max=4.26D-04 NDo=     1
 LinEq1:  Iter=  6 NonCon=     1 RMS=8.40D-06 Max=3.05D-04 NDo=     1
 LinEq1:  Iter=  7 NonCon=     1 RMS=3.68D-06 Max=5.89D-05 NDo=     1
 LinEq1:  Iter=  8 NonCon=     1 RMS=1.42D-06 Max=3.44D-05 NDo=     1
 LinEq1:  Iter=  9 NonCon=     1 RMS=5.63D-07 Max=1.52D-05 NDo=     1
 LinEq1:  Iter= 10 NonCon=     1 RMS=2.16D-07 Max=3.77D-06 NDo=     1
 LinEq1:  Iter= 11 NonCon=     1 RMS=8.82D-08 Max=4.37D-06 NDo=     1
 LinEq1:  Iter= 12 NonCon=     1 RMS=3.38D-08 Max=7.15D-07 NDo=     1
 LinEq1:  Iter= 13 NonCon=     1 RMS=1.31D-08 Max=3.46D-07 NDo=     1
 LinEq1:  Iter= 14 NonCon=     1 RMS=4.45D-09 Max=7.57D-08 NDo=     1
 LinEq1:  Iter= 15 NonCon=     1 RMS=1.65D-09 Max=2.95D-08 NDo=     1
 LinEq1:  Iter= 16 NonCon=     1 RMS=6.44D-10 Max=1.70D-08 NDo=     1
 LinEq1:  Iter= 17 NonCon=     1 RMS=2.87D-10 Max=9.30D-09 NDo=     1
 LinEq1:  Iter= 18 NonCon=     1 RMS=1.14D-10 Max=2.82D-09 NDo=     1
 LinEq1:  Iter= 19 NonCon=     0 RMS=4.38D-11 Max=9.73D-10 NDo=     1
 Linear equations converged to 1.000D-10 1.000D-09 after    19 iterations.
 End of Minotr F.D. properties file   721 does not exist.
 End of Minotr F.D. properties file   722 does not exist.
 End of Minotr F.D. properties file   788 does not exist.
 Calling FoFJK, ICntrl=  10002127 FMM=F ISym2X=0 I1Cent= 0 IOpClX= 0 NMat=1 NMatS=1 NMatT=0.
 ***** Axes restored to original set *****
 -------------------------------------------------------------------
 Center     Atomic                   Forces (Hartrees/Bohr)
 Number     Number              X              Y              Z
 -------------------------------------------------------------------
      1        6           0.007871244    0.003549608    0.003101556
      2        6          -0.015057429   -0.000579631   -0.001952170
      3        6           0.006502030   -0.005228038   -0.002604137
      4        6          -0.002177740   -0.003648075   -0.002742209
      5        1          -0.000646026   -0.000737016   -0.000571118
      6       16          -0.000114364    0.004445175    0.003407611
      7        1           0.000221162    0.000023946    0.000046892
      8        6          -0.006531064   -0.002053118    0.001984275
      9       16           0.001271923    0.003005751   -0.002977476
     10        6           0.005860480   -0.006665648    0.005934150
     11        6          -0.005815212    0.006549815   -0.005639048
     12        6           0.008665152    0.001175221   -0.000304236
     13        1          -0.001229858   -0.000583821    0.000417343
     14       16          -0.001024837   -0.003138072    0.002706869
     15        6           0.003359936    0.001993238   -0.001688025
     16        6          -0.006954469   -0.000165414   -0.000023808
     17        1           0.000030411    0.000092370   -0.000063985
     18        1           0.000892710    0.000421929   -0.000367910
     19        8           0.007935494    0.001118607    0.001020710
     20        1          -0.003059542    0.000423175    0.000314715
 -------------------------------------------------------------------
 Cartesian Forces:  Max     0.015057429 RMS     0.004045382

 GradGradGradGradGradGradGradGradGradGradGradGradGradGradGradGradGradGrad
 Berny optimization.
 Using GEDIIS/GDIIS optimizer.
 FormGI is forming the generalized inverse of G from B-inverse, IUseBI=4.
 Internal  Forces:  Max     0.005310500 RMS     0.001616100
 Search for a local minimum.
 Step number   2 out of a maximum of  116
 All quantities printed in internal units (Hartrees-Bohrs-Radians)
 Mixed Optimization -- RFO/linear search
 Update second derivatives using D2CorX and points    1    2
 DE= -1.02D-02 DEPred=-1.00D-02 R= 1.02D+00
 TightC=F SS=  1.41D+00  RLast= 1.94D-01 DXNew= 5.0454D-01 5.8321D-01
 Trust test= 1.02D+00 RLast= 1.94D-01 DXMaxT set to 5.05D-01
 ITU=  1  0
 Use linear search instead of GDIIS.
     Eigenvalues ---    0.01449   0.01576   0.01624   0.01693   0.01749
     Eigenvalues ---    0.01756   0.01982   0.02014   0.02068   0.02143
     Eigenvalues ---    0.02223   0.02288   0.02331   0.02352   0.02383
     Eigenvalues ---    0.02450   0.15784   0.16000   0.16000   0.16000
     Eigenvalues ---    0.16000   0.16033   0.22507   0.22601   0.23697
     Eigenvalues ---    0.24341   0.24770   0.24907   0.24995   0.24996
     Eigenvalues ---    0.25171   0.29093   0.29852   0.30334   0.31024
     Eigenvalues ---    0.31336   0.32713   0.35367   0.35946   0.36275
     Eigenvalues ---    0.36325   0.36422   0.36697   0.38765   0.39153
     Eigenvalues ---    0.39402   0.45321   0.50572   0.52245   0.53316
     Eigenvalues ---    0.54210   0.55187   0.593641000.000001000.00000
     Eigenvalues --- 1000.000001000.000001000.000001000.000001000.00000
     Eigenvalues --- 1000.000001000.000001000.000001000.000001000.00000
     Eigenvalues --- 1000.000001000.000001000.000001000.000001000.00000
     Eigenvalues --- 1000.000001000.000001000.000001000.000001000.00000
     Eigenvalues --- 1000.000001000.000001000.000001000.000001000.00000
     Eigenvalues --- 1000.000001000.000001000.000001000.000001000.00000
     Eigenvalues --- 1000.000001000.000001000.000001000.000001000.00000
     Eigenvalues --- 1000.000001000.000001000.000001000.000001000.00000
     Eigenvalues --- 1000.000001000.000001000.000001000.000001000.00000
     Eigenvalues --- 1000.000001000.000001000.000001000.000001000.00000
     Eigenvalues --- 1000.00000
 RFO step:  Lambda=-8.76053922D-04 EMin= 1.44858039D-02
 Quartic linear search produced a step of  0.10509.
 Iteration  1 RMS(Cart)=  0.01429717 RMS(Int)=  0.00010274
 Iteration  2 RMS(Cart)=  0.00014302 RMS(Int)=  0.00001430
 Iteration  3 RMS(Cart)=  0.00000001 RMS(Int)=  0.00001430
 Iteration  1 RMS(Cart)=  0.00000678 RMS(Int)=  0.00000278
 Iteration  2 RMS(Cart)=  0.00000370 RMS(Int)=  0.00000310
 Iteration  3 RMS(Cart)=  0.00000203 RMS(Int)=  0.00000351
 Iteration  4 RMS(Cart)=  0.00000111 RMS(Int)=  0.00000377
 Iteration  5 RMS(Cart)=  0.00000061 RMS(Int)=  0.00000393
 Variable       Old X    -DE/DX   Delta X   Delta X   Delta X     New X
                                 (Linear)    (Quad)   (Total)
    R1        2.71424  -0.00524  -0.00029  -0.01432  -0.01461   2.69962
    R2        2.61805   0.00297   0.00740   0.00206   0.00946   2.62750
    R3        2.06684  -0.00016   0.00258  -0.00175   0.00083   2.06767
    R4        2.62751   0.00422   0.00748   0.00464   0.01212   2.63963
    R5        2.58798   0.00368   0.00386   0.00537   0.00923   2.59721
    R6        3.31224  -0.00320   0.00059  -0.01188  -0.01129   3.30095
    R7        2.76794  -0.00150  -0.00152  -0.00391  -0.00543   2.76250
    R8        3.27165  -0.00106   0.00198  -0.00446  -0.00248   3.26917
    R9        2.06131  -0.00022   0.00268  -0.00198   0.00070   2.06201
   R10        3.34214  -0.00116   0.00167  -0.00548  -0.00380   3.33834
   R11        2.62364   0.00388   0.00745   0.00382   0.01127   2.63492
   R12        3.29518  -0.00140   0.00153  -0.00553  -0.00400   3.29118
   R13        2.66037   0.00531   0.00863   0.00720   0.01582   2.67619
   R14        2.70990  -0.00348  -0.00030  -0.00926  -0.00956   2.70034
   R15        2.70213  -0.00351  -0.00066  -0.00906  -0.00972   2.69240
   R16        3.29799  -0.00148   0.00146  -0.00570  -0.00424   3.29375
   R17        2.06368  -0.00033   0.00294  -0.00246   0.00047   2.06416
   R18        3.31396  -0.00137   0.00178  -0.00607  -0.00430   3.30966
   R19        2.61706   0.00254   0.00718   0.00116   0.00833   2.62539
   R20        2.06199   0.00003   0.00299  -0.00140   0.00159   2.06358
   R21        2.06297  -0.00029   0.00275  -0.00223   0.00052   2.06349
   R22        1.82288   0.00266   0.00447   0.00257   0.00704   1.82992
    A1        1.95538   0.00032  -0.00024   0.00194   0.00170   1.95708
    A2        2.16107   0.00100   0.00021   0.00696   0.00718   2.16825
    A3        2.16674  -0.00132   0.00002  -0.00891  -0.00889   2.15786
    A4        1.97379   0.00156  -0.00105   0.00750   0.00644   1.98023
    A5        2.18440   0.00266   0.00254   0.01051   0.01305   2.19746
    A6        2.12498  -0.00423  -0.00149  -0.01800  -0.01949   2.10549
    A7        1.93382  -0.00233   0.00096  -0.01063  -0.00968   1.92414
    A8        2.22373   0.00031  -0.00059   0.00156   0.00096   2.22469
    A9        2.12545   0.00202  -0.00037   0.00899   0.00862   2.13407
   A10        1.96006  -0.00180   0.00009  -0.00881  -0.00873   1.95133
   A11        2.22880   0.00097   0.00089   0.00452   0.00541   2.23421
   A12        2.09431   0.00083  -0.00098   0.00429   0.00331   2.09762
   A13        1.60169   0.00225   0.00024   0.01000   0.01025   1.61194
   A14        2.09195   0.00083  -0.00119   0.00438   0.00313   2.09508
   A15        2.22075   0.00109  -0.00008   0.00496   0.00482   2.22557
   A16        1.97033  -0.00192   0.00126  -0.00963  -0.00841   1.96192
   A17        1.58415   0.00265  -0.00017   0.01122   0.01108   1.59523
   A18        1.94323  -0.00251   0.00044  -0.01109  -0.01065   1.93258
   A19        2.35639   0.00163   0.00013   0.00640   0.00653   2.36292
   A20        1.98357   0.00088  -0.00058   0.00469   0.00411   1.98768
   A21        1.98686   0.00101  -0.00041   0.00498   0.00456   1.99143
   A22        1.94299  -0.00248   0.00033  -0.01058  -0.01024   1.93275
   A23        2.35331   0.00146   0.00008   0.00559   0.00567   2.35898
   A24        1.94018   0.00076  -0.00112   0.00449   0.00337   1.94355
   A25        2.14904  -0.00181   0.00022  -0.01191  -0.01170   2.13734
   A26        2.19396   0.00105   0.00091   0.00742   0.00833   2.20228
   A27        1.58150   0.00230   0.00011   0.00991   0.01004   1.59153
   A28        1.98541  -0.00137   0.00088  -0.00779  -0.00692   1.97849
   A29        2.07540   0.00057  -0.00115   0.00337   0.00222   2.07762
   A30        2.22238   0.00080   0.00027   0.00442   0.00470   2.22707
   A31        1.93131   0.00067  -0.00074   0.00376   0.00301   1.93432
   A32        2.18686   0.00071   0.00046   0.00527   0.00573   2.19259
   A33        2.16501  -0.00138   0.00028  -0.00903  -0.00874   2.15627
   A34        1.90782  -0.00292  -0.00278  -0.01897  -0.02175   1.88607
    D1        0.00935  -0.00003   0.00010   0.00119   0.00129   0.01064
    D2       -3.13718  -0.00002  -0.00002   0.00226   0.00224  -3.13494
    D3       -3.13422  -0.00004   0.00009  -0.00082  -0.00074  -3.13496
    D4        0.00243  -0.00003  -0.00003   0.00024   0.00021   0.00264
    D5       -0.00564  -0.00005   0.00001  -0.00229  -0.00227  -0.00791
    D6       -3.14040   0.00001  -0.00001  -0.00106  -0.00106  -3.14146
    D7        3.13794  -0.00005   0.00002  -0.00029  -0.00028   3.13766
    D8        0.00318   0.00001  -0.00000   0.00094   0.00093   0.00411
    D9       -0.00872   0.00011  -0.00019   0.00050   0.00032  -0.00840
   D10       -3.12963  -0.00006  -0.00006   0.00511   0.00502  -3.12461
   D11        3.13762   0.00008  -0.00008  -0.00061  -0.00067   3.13695
   D12        0.01671  -0.00009   0.00005   0.00400   0.00403   0.02074
   D13        0.07809  -0.00011  -0.00024  -0.00501  -0.00525   0.07284
   D14       -3.06884  -0.00008  -0.00037  -0.00379  -0.00416  -3.07300
   D15        0.00467  -0.00013   0.00016  -0.00155  -0.00140   0.00327
   D16        3.12694   0.00001   0.00004  -0.00594  -0.00590   3.12104
   D17        1.74514   0.00045   0.00000   0.00000  -0.00000   1.74514
   D18       -1.37640   0.00054   0.00085   0.01963   0.02052  -1.35588
   D19       -1.37371   0.00031   0.00013   0.00529   0.00542  -1.36829
   D20        1.78793   0.00040   0.00098   0.02492   0.02594   1.81387
   D21        0.00063   0.00009  -0.00011   0.00218   0.00208   0.00271
   D22        3.13598   0.00004  -0.00008   0.00106   0.00099   3.13697
   D23       -3.12585   0.00003   0.00074   0.01045   0.01112  -3.11474
   D24       -0.00159  -0.00001  -0.00001  -0.00638  -0.00637  -0.00795
   D25        3.12074  -0.00007  -0.00088  -0.01250  -0.01337   3.10738
   D26       -0.01693  -0.00008  -0.00070  -0.01280  -0.01349  -0.03041
   D27       -0.00198  -0.00002  -0.00006   0.00585   0.00575   0.00377
   D28       -3.13965  -0.00002   0.00011   0.00555   0.00563  -3.13402
   D29        0.00476   0.00002   0.00006   0.00506   0.00512   0.00988
   D30       -3.13637   0.00002  -0.00006   0.00327   0.00321  -3.13316
   D31       -0.00692  -0.00004  -0.00011  -0.00279  -0.00289  -0.00981
   D32        3.14073  -0.00001  -0.00005  -0.00165  -0.00169   3.13904
   D33        3.13432  -0.00003  -0.00002  -0.00141  -0.00142   3.13289
[...]
 Number     Number       Type             X           Y           Z
 ---------------------------------------------------------------------
      1          6           0       -3.950550    0.734923    0.321742
      2          6           0       -2.557960    0.946696    0.532789
      3          6           0       -1.745546    0.021022   -0.129991
      4          6           0       -4.194449   -0.366963   -0.492739
      5          1           0       -4.744200    1.355017    0.747522
      6         16           0       -2.728513   -1.126783   -1.001140
      7          1           0       -5.157710   -0.757805   -0.821197
      8          6           0       -0.287965   -0.060314   -0.089496
      9         16           0        0.504321   -1.240445    0.956653
     10          6           0        2.078017   -0.656482    0.497047
     11          6           0        1.965267    0.420174   -0.419505
     12          6           0        0.625322    0.757695   -0.754297
     13          1           0        0.306476    1.548827   -1.435684
     14         16           0        3.540290    1.004039   -0.880987
     15          6           0        4.320009   -0.182078    0.141225
     16          6           0        3.424616   -1.002401    0.815861
     17          1           0        5.409673   -0.206109    0.189712
     18          1           0        3.735987   -1.796615    1.496592
     19          8           0       -1.994861    1.942726    1.298499
     20          1           0       -2.709454    2.452269    1.706812
 ---------------------------------------------------------------------
 Rotational constants (GHZ):           1.2907402           0.2601234           0.2483223

 **********************************************************************

            Population analysis using the SCF Density.

 **********************************************************************

 Orbital symmetries:
       Occupied  (A) (A) (A) (A) (A) (A) (A) (A) (A) (A) (A) (A)
                 (A) (A) (A) (A) (A) (A) (A) (A) (A) (A) (A) (A)
                 (A) (A) (A) (A) (A) (A) (A) (A) (A) (A) (A) (A)
                 (A) (A) (A) (A) (A) (A) (A) (A) (A) (A) (A) (A)
                 (A) (A) (A) (A) (A) (A) (A) (A) (A) (A) (A) (A)
                 (A)
       Virtual   (A) (A) (A) (A) (A) (A) (A) (A) (A) (A) (A) (A)
                 (A) (A) (A) (A) (A) (A) (A) (A) (A) (A) (A) (A)
                 (A) (A) (A) (A) (A) (A) (A) (A) (A) (A) (A) (A)
                 (A) (A) (A) (A) (A) (A) (A) (A) (A) (A) (A) (A)
                 (A) (A) (A) (A) (A) (A) (A) (A) (A) (A) (A) (A)
                 (A) (A) (A) (A) (A) (A) (A) (A) (A) (A) (A) (A)
                 (A) (A) (A) (A) (A) (A) (A) (A) (A) (A) (A) (A)
                 (A) (A) (A) (A) (A) (A) (A) (A) (A) (A) (A) (A)
                 (A) (A) (A) (A) (A) (A) (A) (A) (A) (A) (A) (A)
                 (A) (A) (A) (A) (A) (A) (A) (A) (A) (A) (A) (A)
                 (A) (A) (A) (A) (A) (A) (A) (A) (A) (A) (A) (A)
                 (A) (A) (A) (A) (A) (A) (A) (A) (A) (A) (A) (A)
                 (A) (A) (A) (A) (A) (A) (A) (A) (A) (A) (A) (A)
                 (A) (A) (A) (A) (A) (A) (A) (A) (A) (A) (A) (A)
                 (A) (A) (A) (A) (A) (A) (A) (A) (A) (A) (A) (A)
                 (A) (A) (A) (A) (A) (A) (A) (A) (A) (A) (A) (A)
                 (A) (A) (A) (A) (A) (A) (A) (A) (A) (A) (A) (A)
                 (A) (A) (A) (A) (A) (A) (A) (A) (A) (A) (A) (A)
                 (A) (A) (A) (A) (A) (A) (A) (A) (A) (A) (A) (A)
                 (A) (A) (A) (A) (A) (A) (A) (A) (A) (A) (A) (A)
                 (A) (A) (A) (A) (A) (A) (A) (A) (A) (A) (A) (A)
                 (A) (A) (A) (A) (A) (A) (A) (A) (A) (A) (A) (A)
                 (A) (A) (A) (A) (A) (A) (A) (A) (A) (A) (A) (A)
                 (A) (A) (A) (A) (A) (A) (A) (A) (A) (A) (A) (A)
                 (A) (A) (A) (A) (A) (A) (A) (A) (A) (A) (A) (A)
                 (A) (A) (A) (A) (A) (A) (A) (A) (A) (A) (A) (A)
                 (A) (A) (A) (A) (A) (A) (A) (A) (A) (A) (A) (A)
                 (A) (A) (A)
 The electronic state is 1-A.
 Alpha  occ. eigenvalues --  -91.99561 -91.99099 -91.98875 -20.61269 -11.32441
 Alpha  occ. eigenvalues --  -11.29230 -11.28799 -11.28162 -11.27638 -11.27473
 Alpha  occ. eigenvalues --  -11.27447 -11.26290 -11.26169 -11.26092  -8.99682
 Alpha  occ. eigenvalues --   -8.99213  -8.98965  -6.67844  -6.67753  -6.67569
 Alpha  occ. eigenvalues --   -6.67378  -6.67298  -6.67127  -6.67102  -6.67042
 Alpha  occ. eigenvalues --   -6.66845  -1.41349  -1.20126  -1.17506  -1.11555
 Alpha  occ. eigenvalues --   -1.02312  -1.01739  -0.98693  -0.94479  -0.93799
 Alpha  occ. eigenvalues --   -0.82326  -0.80214  -0.76378  -0.73688  -0.71937
 Alpha  occ. eigenvalues --   -0.69289  -0.66282  -0.65809  -0.60966  -0.60159
 Alpha  occ. eigenvalues --   -0.58087  -0.56535  -0.55584  -0.53833  -0.52980
 Alpha  occ. eigenvalues --   -0.52743  -0.50465  -0.49283  -0.48697  -0.45866
 Alpha  occ. eigenvalues --   -0.45441  -0.38482  -0.34835  -0.32143  -0.31503
 Alpha  occ. eigenvalues --   -0.28661
 Alpha virt. eigenvalues --    0.02794   0.03720   0.03955   0.04913   0.05077
 Alpha virt. eigenvalues --    0.06218   0.07716   0.08015   0.08363   0.08803
 Alpha virt. eigenvalues --    0.09168   0.10154   0.10382   0.10885   0.11362
 Alpha virt. eigenvalues --    0.12301   0.12441   0.12658   0.12958   0.13591
 Alpha virt. eigenvalues --    0.13741   0.14082   0.14386   0.14591   0.15100
 Alpha virt. eigenvalues --    0.15422   0.15911   0.16108   0.16272   0.16718
 Alpha virt. eigenvalues --    0.17231   0.17882   0.18300   0.18728   0.19240
 Alpha virt. eigenvalues --    0.19651   0.19794   0.20498   0.20769   0.20982
 Alpha virt. eigenvalues --    0.21752   0.22219   0.22682   0.23027   0.23164
 Alpha virt. eigenvalues --    0.23868   0.24319   0.24621   0.24756   0.25804
 Alpha virt. eigenvalues --    0.26262   0.27105   0.27415   0.27474   0.28287
 Alpha virt. eigenvalues --    0.28965   0.29882   0.30505   0.31317   0.31695
 Alpha virt. eigenvalues --    0.31907   0.32252   0.32777   0.33046   0.33181
 Alpha virt. eigenvalues --    0.33557   0.34487   0.34888   0.35072   0.35976
 Alpha virt. eigenvalues --    0.36379   0.36610   0.37078   0.38635   0.39217
 Alpha virt. eigenvalues --    0.40085   0.40247   0.40736   0.41502   0.41744
 Alpha virt. eigenvalues --    0.43055   0.43355   0.44380   0.44969   0.45547
 Alpha virt. eigenvalues --    0.45853   0.46167   0.46803   0.47798   0.47940
 Alpha virt. eigenvalues --    0.48949   0.49485   0.49964   0.50275   0.51908
 Alpha virt. eigenvalues --    0.52795   0.53788   0.54010   0.54473   0.54907
 Alpha virt. eigenvalues --    0.55503   0.56765   0.57780   0.58646   0.58991
 Alpha virt. eigenvalues --    0.59955   0.60291   0.60723   0.61193   0.61988
 Alpha virt. eigenvalues --    0.62461   0.62988   0.64164   0.65035   0.65476
 Alpha virt. eigenvalues --    0.65878   0.66604   0.67614   0.67702   0.68136
 Alpha virt. eigenvalues --    0.68772   0.69218   0.69583   0.70123   0.70547
 Alpha virt. eigenvalues --    0.71584   0.72266   0.72671   0.73172   0.73661
 Alpha virt. eigenvalues --    0.73960   0.74421   0.74862   0.75873   0.76032
 Alpha virt. eigenvalues --    0.76496   0.77294   0.77979   0.78227   0.79159
 Alpha virt. eigenvalues --    0.80492   0.81155   0.82420   0.82926   0.83944
 Alpha virt. eigenvalues --    0.85044   0.85491   0.85979   0.87039   0.87463
 Alpha virt. eigenvalues --    0.88491   0.88933   0.89411   0.90592   0.91328
 Alpha virt. eigenvalues --    0.91528   0.92398   0.93351   0.94043   0.94509
 Alpha virt. eigenvalues --    0.94950   0.95718   0.95949   0.96994   0.97920
 Alpha virt. eigenvalues --    0.98521   0.99422   1.00132   1.02210   1.02904
 Alpha virt. eigenvalues --    1.03292   1.04205   1.05995   1.06169   1.07429
 Alpha virt. eigenvalues --    1.08122   1.08846   1.09418   1.10574   1.11567
 Alpha virt. eigenvalues --    1.12796   1.13725   1.16922   1.17117   1.18816
 Alpha virt. eigenvalues --    1.19018   1.20848   1.21539   1.22227   1.23582
 Alpha virt. eigenvalues --    1.24242   1.24569   1.25383   1.25850   1.26295
 Alpha virt. eigenvalues --    1.27696   1.28726   1.29624   1.30932   1.31274
 Alpha virt. eigenvalues --    1.32928   1.33277   1.34653   1.36195   1.36334
 Alpha virt. eigenvalues --    1.36875   1.37910   1.40010   1.41110   1.41996
 Alpha virt. eigenvalues --    1.42917   1.44974   1.45548   1.45998   1.48815
 Alpha virt. eigenvalues --    1.49908   1.53528   1.54724   1.55383   1.56523
 Alpha virt. eigenvalues --    1.56831   1.58577   1.59393   1.60070   1.61531
 Alpha virt. eigenvalues --    1.62236   1.63363   1.64797   1.65627   1.66146
 Alpha virt. eigenvalues --    1.67295   1.68752   1.69300   1.70798   1.71666
 Alpha virt. eigenvalues --    1.73263   1.74186   1.74968   1.75702   1.77004
 Alpha virt. eigenvalues --    1.78986   1.79650   1.81101   1.81274   1.82670
 Alpha virt. eigenvalues --    1.84094   1.85083   1.87931   1.88196   1.88981
 Alpha virt. eigenvalues --    1.91017   1.91751   1.94213   1.94993   1.96410
 Alpha virt. eigenvalues --    1.96666   1.99382   2.00455   2.01508   2.03779
 Alpha virt. eigenvalues --    2.05521   2.06138   2.07312   2.07918   2.08790
 Alpha virt. eigenvalues --    2.09797   2.10608   2.12549   2.13651   2.14619
 Alpha virt. eigenvalues --    2.15861   2.17134   2.17941   2.19598   2.19851
 Alpha virt. eigenvalues --    2.20531   2.25062   2.25935   2.27271   2.28631
 Alpha virt. eigenvalues --    2.30104   2.31048   2.31315   2.33290   2.35660
 Alpha virt. eigenvalues --    2.37189   2.39919   2.41013   2.42606   2.42924
 Alpha virt. eigenvalues --    2.45521   2.47156   2.47904   2.48174   2.50314
 Alpha virt. eigenvalues --    2.53580   2.55887   2.57122   2.58988   2.63685
 Alpha virt. eigenvalues --    2.70248   2.77261   2.79985   2.81799   2.83629
 Alpha virt. eigenvalues --    2.86785   2.87857   2.94172   2.95552   2.99632
 Alpha virt. eigenvalues --    3.10157   3.13020   3.20965   3.23888   3.30377
 Alpha virt. eigenvalues --    3.38093   3.45777   3.50618   3.59397   3.76124
 Alpha virt. eigenvalues --    3.76782   3.77588   3.85667   3.87846   4.20389
 Alpha virt. eigenvalues --    4.23135   4.43438
          Condensed to atoms (all electrons):
               1          2          3          4          5          6
     1  C    7.267977  -1.614725  -0.241788   0.267767  -0.045844  -0.477128
     2  C   -1.614725   8.898649  -1.041392   0.295612   0.148178  -0.223032
     3  C   -0.241788  -1.041392  10.722465  -1.230304  -0.079240   0.006667
     4  C    0.267767   0.295612  -1.230304   6.310579  -0.032475   0.383841
     5  H   -0.045844   0.148178  -0.079240  -0.032475   1.545565  -0.012796
     6  S   -0.477128  -0.223032   0.006667   0.383841  -0.012796  16.268961
     7  H   -0.039367   0.032153   0.065653   0.270994  -0.062161  -0.156450
     8  C    0.420089  -0.524877  -1.996927   0.273083   0.033024  -0.470671
     9  S   -0.012512   0.093125  -0.545660   0.014139  -0.002180   0.154123
    10  C    0.006766   0.023899  -0.282375   0.029177   0.001546   0.001264
    11  C   -0.033617  -0.084052   0.428245  -0.012302  -0.002833   0.073549
    12  C   -0.052117   0.181502  -0.233118  -0.109184  -0.006417   0.013073
    13  H    0.002351  -0.000781   0.092540   0.005710   0.000401   0.017871
    14  S    0.000078   0.001717  -0.061911  -0.001431   0.000028   0.003164
    15  C   -0.001518  -0.007139   0.036014   0.000836  -0.000086   0.004309
    16  C    0.002669   0.023646  -0.349329  -0.002012   0.000012  -0.003521
    17  H   -0.000096   0.000113  -0.000111   0.000046  -0.000005   0.000218
    18  H    0.000063  -0.000295  -0.009317  -0.000144   0.000003   0.000796
    19  O    0.068604  -0.620242   0.284739  -0.079933  -0.068126   0.001231
    20  H   -0.146940   0.019943  -0.022136  -0.019047  -0.009742   0.017848
               7          8          9         10         11         12
     1  C   -0.039367   0.420089  -0.012512   0.006766  -0.033617  -0.052117
     2  C    0.032153  -0.524877   0.093125   0.023899  -0.084052   0.181502
     3  C    0.065653  -1.996927  -0.545660  -0.282375   0.428245  -0.233118
     4  C    0.270994   0.273083   0.014139   0.029177  -0.012302  -0.109184
     5  H   -0.062161   0.033024  -0.002180   0.001546  -0.002833  -0.006417
     6  S   -0.156450  -0.470671   0.154123   0.001264   0.073549   0.013073
     7  H    1.201724  -0.013036   0.001837   0.000259   0.000518   0.003675
     8  C   -0.013036  11.260381   0.208077   0.180868  -0.688153  -2.562489
     9  S    0.001837   0.208077  16.303785   0.232926  -0.313079  -0.333234
    10  C    0.000259   0.180868   0.232926   9.729993   0.216341  -1.365947
    11  C    0.000518  -0.688153  -0.313079   0.216341  10.494891  -2.626625
    12  C    0.003675  -2.562489  -0.333234  -1.365947  -2.626625  13.606517
    13  H    0.000286   0.069447   0.033244  -0.057865   0.548430  -0.805350
    14  S   -0.000109  -0.225213   0.078861  -0.080325  -0.204228  -0.043030
    15  C    0.000067   0.048837  -0.086321  -0.165158  -0.730469  -0.145446
    16  C   -0.000053  -0.566996  -0.248641  -2.270825  -0.910744   0.530812
    17  H    0.000004   0.003399   0.004701   0.037097  -0.024700   0.029696
    18  H   -0.000005   0.108993   0.011145   0.518092   0.032441  -0.067523
    19  O   -0.000895  -0.043582   0.011836  -0.000494   0.030396   0.000230
    20  H    0.000905   0.009678  -0.002734   0.001437   0.001288  -0.000252
              13         14         15         16         17         18
     1  C    0.002351   0.000078  -0.001518   0.002669  -0.000096   0.000063
     2  C   -0.000781   0.001717  -0.007139   0.023646   0.000113  -0.000295
     3  C    0.092540  -0.061911   0.036014  -0.349329  -0.000111  -0.009317
     4  C    0.005710  -0.001431   0.000836  -0.002012   0.000046  -0.000144
     5  H    0.000401   0.000028  -0.000086   0.000012  -0.000005   0.000003
     6  S    0.017871   0.003164   0.004309  -0.003521   0.000218   0.000796
     7  H    0.000286  -0.000109   0.000067  -0.000053   0.000004  -0.000005
     8  C    0.069447  -0.225213   0.048837  -0.566996   0.003399   0.108993
     9  S    0.033244   0.078861  -0.086321  -0.248641   0.004701   0.011145
    10  C   -0.057865  -0.080325  -0.165158  -2.270825   0.037097   0.518092
    11  C    0.548430  -0.204228  -0.730469  -0.910744  -0.024700   0.032441
    12  C   -0.805350  -0.043030  -0.145446   0.530812   0.029696  -0.067523
    13  H    1.537139  -0.038429   0.016555  -0.042997   0.001500  -0.001970
    14  S   -0.038429  15.885047   0.184046   0.009541  -0.152257  -0.003828
    15  C    0.016555   0.184046   6.513748   0.317812   0.276254  -0.133830
    16  C   -0.042997   0.009541   0.317812   9.390705  -0.004805  -0.454160
    17  H    0.001500  -0.152257   0.276254  -0.004805   1.239585  -0.060683
    18  H   -0.001970  -0.003828  -0.133830  -0.454160  -0.060683   1.354788
    19  O    0.007815  -0.002731  -0.000385  -0.002603  -0.000071   0.000162
    20  H    0.000453   0.000295   0.000162   0.000440   0.000018   0.000006
              19         20
     1  C    0.068604  -0.146940
     2  C   -0.620242   0.019943
     3  C    0.284739  -0.022136
     4  C   -0.079933  -0.019047
     5  H   -0.068126  -0.009742
     6  S    0.001231   0.017848
     7  H   -0.000895   0.000905
     8  C   -0.043582   0.009678
     9  S    0.011836  -0.002734
    10  C   -0.000494   0.001437
    11  C    0.030396   0.001288
    12  C    0.000230  -0.000252
    13  H    0.007815   0.000453
    14  S   -0.002731   0.000295
    15  C   -0.000385   0.000162
    16  C   -0.002603   0.000440
    17  H   -0.000071   0.000018
    18  H    0.000162   0.000006
    19  O    9.015616   0.364330
    20  H    0.364330   0.599967
 Mulliken charges:
               1
     1  C    0.629287
     2  C    0.397998
     3  C    0.457284
     4  C   -0.364951
     5  H   -0.406853
     6  S    0.396683
     7  H   -0.305998
     8  C    0.476067
     9  S    0.396563
    10  C   -0.756678
    11  C   -0.195297
    12  C   -0.014774
    13  H   -0.386351
    14  S    0.650714
    15  C   -0.128289
    16  C    0.581049
    17  H   -0.349901
    18  H   -0.294734
    19  O   -0.965898
    20  H    0.184081
 Sum of Mulliken charges =  -0.00000
 Mulliken charges with hydrogens summed into heavy atoms:
               1
     1  C    0.222434
     2  C    0.397998
     3  C    0.457284
     4  C   -0.670949
     6  S    0.396683
     8  C    0.476067
     9  S    0.396563
    10  C   -0.756678
    11  C   -0.195297
    12  C   -0.401126
    14  S    0.650714
    15  C   -0.478190
    16  C    0.286315
    19  O   -0.781817
 Electronic spatial extent (au):  <R**2>=           4330.0210
 Charge=             -0.0000 electrons
 Dipole moment (field-independent basis, Debye):
    X=             -2.1354    Y=              0.9589    Z=              0.6981  Tot=              2.4427
 Quadrupole moment (field-independent basis, Debye-Ang):
   XX=            -77.8656   YY=           -100.9420   ZZ=           -104.6207
   XY=             -8.4887   XZ=             -0.4610   YZ=              0.0011
 Traceless Quadrupole moment (field-independent basis, Debye-Ang):
   XX=             16.6105   YY=             -6.4659   ZZ=            -10.1446
   XY=             -8.4887   XZ=             -0.4610   YZ=              0.0011
 Octapole moment (field-independent basis, Debye-Ang**2):
  XXX=            -45.4833  YYY=             19.9315  ZZZ=             10.5744  XYY=            -19.7482
  XXY=              7.4950  XXZ=             23.7941  XZZ=            -10.4573  YZZ=              7.8382
  YYZ=             11.2642  XYZ=            -29.0679
 Hexadecapole moment (field-independent basis, Debye-Ang**3):
 XXXX=          -4025.8366 YYYY=           -702.0844 ZZZZ=           -511.9555 XXXY=           -101.7130
 XXXZ=             21.5026 YYYX=            -71.7819 YYYZ=             27.7776 ZZZX=            -25.7237
 ZZZY=             16.9771 XXYY=           -876.5300 XXZZ=           -901.7626 YYZZ=           -172.6859
 XXYZ=             52.4450 YYXZ=            -25.4904 ZZXY=            -34.3656
 N-N= 1.118847267056D+03 E-N=-6.144309707773D+03  KE= 1.648678188575D+03
 Unable to Open any file for archive entry.
 1\1\GINC-CX3-12-21\FOpt\RMP2-FC\Aug-CC-pVDZ\C10H6O1S3\NS5018\27-Oct-20
 21\0\\# opt=modredundant mp2/aug-cc-pvdz\\pBTTT_100.pdb\\0,1\C,-3.9603
 764449,0.6955529002,0.3036360065\C,-2.5704760501,0.9187626157,0.520546
 0317\C,-1.7476077155,0.0016459827,-0.1412337082\C,-4.1916791814,-0.406
 4699969,-0.5143276687\H,-4.7609490615,1.3078176143,0.7277821071\S,-2.7
 173346261,-1.1524982811,-1.0188224128\H,-5.1502820235,-0.8047856177,-0
 .8474045194\C,-0.2895490791,-0.0672845124,-0.0953004695\S,0.5088145341
 ,-1.243030424,0.9511662877\C,2.079193387,-0.6445184824,0.4989899903\C,
 1.9607267355,0.4332787626,-0.4154971621\C,0.619229427,0.7600828266,-0.
 7546771773\H,0.296223627,1.5500480185,-1.435458305\S,3.5324403697,1.03
 17071862,-0.8695450388\C,4.3183803649,-0.1500753155,0.1529227312\C,3.4
 274773768,-0.9796264551,0.8221979443\H,5.4080164592,-0.164876676,0.205
 5594279\H,3.7430380876,-1.77273666,1.5022862278\O,-2.018891699,1.91778
 39152,1.2907253442\H,-2.7393944878,2.4202225989,1.697454363\\Version=E
 S64L-G16RevC.01\State=1-A\HF=-1649.6295497\MP2=-1651.6202173\RMSD=8.17
 3e-09\RMSF=2.967e-04\Dipole=-0.6667842,0.3052932,0.2365203\PG=C01 [X(C
 10H6O1S3)]\\@
 The archive entry for this job was punched.


 A COMPLEXITY IS MERELY A DISARRANGEMENT OF SIMPLICITIES.

                                    -- G. O. ABELL IN "EXPLORATION OF THE UNIVERSE"
 Job cpu time:       0 days 11 hours 44 minutes  7.3 seconds.
 Elapsed time:       0 days  1 hours 36 minutes  0.7 seconds.
 File lengths (MBytes):  RWF=    106 Int=      0 D2E=      0 Chk=     16 Scr=      1
 Normal termination of Gaussian 16 at Wed Oct 27 07:22:17 2021.
