 Entering Gaussian System, Link 0=g16
 Input=pBTTT_-125.gjf
 Output=pBTTT_-125.log
 Initial command:
 /apps/gaussian/g16-c01-avx/g16/l1.exe "/tmp/pbs.4766300[50].pbs/Gau-3427011.inp" -scrdir="/tmp/pbs.4766300[50].pbs/"
 Entering Link 1 = /apps/gaussian/g16-c01-avx/g16/l1.exe PID=   3427012.
  
 Copyright (c) 1988-2019, Gaussian, Inc.  All Rights Reserved.
  
 This is part of the Gaussian(R) 16 program.  It is based on
 the Gaussian(R) 09 system (copyright 2009, Gaussian, Inc.),
 the Gaussian(R) 03 system (copyright 2003, Gaussian, Inc.),
 the Gaussian(R) 98 system (copyright 1998, Gaussian, Inc.),
 the Gaussian(R) 94 system (copyright 1995, Gaussian, Inc.),
 the Gaussian 92(TM) system (copyright 1992, Gaussian, Inc.),
 the Gaussian 90(TM) system (copyright 1990, Gaussian, Inc.),
 the Gaussian 88(TM) system (copyright 1988, Gaussian, Inc.),
 the Gaussian 86(TM) system (copyright 1986, Carnegie Mellon
 University), and the Gaussian 82(TM) system (copyright 1983,
 Carnegie Mellon University). Gaussian is a federally registered
 trademark of Gaussian, Inc.
  
 This software contains proprietary and confidential information,
 including trade secrets, belonging to Gaussian, Inc.
  
 This software is provided under written license and may be
 used, copied, transmitted, or stored only in accord with that
 written license.
  
 The following legend is applicable only to US Government
 contracts under FAR:
  
                    RESTRICTED RIGHTS LEGEND
  
 Use, reproduction and disclosure by the US Government is
 subject to restrictions as set forth in subparagraphs (a)
 and (c) of the Commercial Computer Software - Restricted
 Rights clause in FAR 52.227-19.
  
 Gaussian, Inc.
 340 Quinnipiac St., Bldg. 40, Wallingford CT 06492
  
  
 ---------------------------------------------------------------
 Warning -- This program may not be used in any manner that
 competes with the business of Gaussian, Inc. or will provide
 assistance to any competitor of Gaussian, Inc.  The licensee
 of this program is prohibited from giving any competitor of
 Gaussian, Inc. access to this program.  By using this program,
 the user acknowledges that Gaussian, Inc. is engaged in the
 business of creating and licensing software in the field of
 computational chemistry and represents and warrants to the
 licensee that it is not a competitor of Gaussian, Inc. and that
 it will not use this program in any manner prohibited above.
 ---------------------------------------------------------------
  

 Cite this work as:
 Gaussian 16, Revision C.01,
 M. J. Frisch, G. W. Trucks, H. B. Schlegel, G. E. Scuseria, 
 M. A. Robb, J. R. Cheeseman, G. Scalmani, V. Barone, 
 G. A. Petersson, H. Nakatsuji, X. Li, M. Caricato, A. V. Marenich, 
 J. Bloino, B. G. Janesko, R. Gomperts, B. Mennucci, H. P. Hratchian, 
 J. V. Ortiz, A. F. Izmaylov, J. L. Sonnenberg, D. Williams-Young, 
 F. Ding, F. Lipparini, F. Egidi, J. Goings, B. Peng, A. Petrone, 
 T. Henderson, D. Ranasinghe, V. G. Zakrzewski, J. Gao, N. Rega, 
 G. Zheng, W. Liang, M. Hada, M. Ehara, K. Toyota, R. Fukuda, 
 J. Hasegawa, M. Ishida, T. Nakajima, Y. Honda, O. Kitao, H. Nakai, 
 T. Vreven, K. Throssell, J. A. Montgomery, Jr., J. E. Peralta, 
 F. Ogliaro, M. J. Bearpark, J. J. Heyd, E. N. Brothers, K. N. Kudin, 
 V. N. Staroverov, T. A. Keith, R. Kobayashi, J. Normand, 
 K. Raghavachari, A. P. Rendell, J. C. Burant, S. S. Iyengar, 
 J. Tomasi, M. Cossi, J. M. Millam, M. Klene, C. Adamo, R. Cammi, 
 J. W. Ochterski, R. L. Martin, K. Morokuma, O. Farkas, 
 J. B. Foresman, and D. J. Fox, Gaussian, Inc., Wallingford CT, 2019.
 
 ******************************************
 Gaussian 16:  ES64L-G16RevC.01  3-Jul-2019
                27-Oct-2021 
 ******************************************
 %mem=100GB
 %nprocshared=8
 Will use up to    8 processors via shared memory.
 ----------------------------------
 # opt=modredundant mp2/aug-cc-pvdz
 ----------------------------------
 1/18=120,19=15,38=1/1,3;
 2/9=110,12=2,17=6,18=5,40=1/2;
 3/5=16,7=10,11=9,25=1,30=1,71=1/1,2,3;
 4//1;
 5/5=2,38=5/2;
 8/6=4,10=1/1;
 9/15=2,16=-3/6;
 10/5=1/2;
 6/7=2,8=2,9=2,10=2/1;
 7/12=2/1,2,3,16;
 1/18=20,19=15/3(2);
 2/9=110/2;
 99//99;
 2/9=110/2;
 3/5=16,7=10,11=9,25=1,30=1,71=1/1,2,3;
 4/5=5,16=3,69=1/1;
 5/5=2,38=5/2;
 8/6=4,10=1/1;
 9/15=2,16=-3/6;
 10/5=1/2;
 7/12=2/1,2,3,16;
 1/18=20,19=15/3(-8);
 2/9=110/2;
 6/7=2,8=2,9=2,10=2/1;
 99/9=10/99;
 --------------
 pBTTT_-125.pdb
 --------------
 Symbolic Z-matrix:
 Charge =  0 Multiplicity = 1
 C                     3.936     0.79      0.222 
 C                     2.529     1.039     0.382 
 C                     1.743     0.039    -0.081 
 C                     4.179    -0.405    -0.354 
 H                     4.706     1.481     0.532 
 S                     2.728    -1.251    -0.733 
 H                     5.139    -0.834    -0.586 
 C                     0.278    -0.041    -0.052 
 S                    -0.527    -1.424     0.686 
 C                    -2.083    -0.735     0.339 
 C                    -1.958     0.475    -0.278 
 C                    -0.602     0.877    -0.51 
 H                    -0.301     1.793    -0.989 
 S                    -3.514     1.165    -0.624 
 C                    -4.305    -0.219     0.085 
 C                    -3.442    -1.145     0.552 
 H                    -5.381    -0.261     0.112 
 H                    -3.745    -2.066     1.022 
 O                     2.029     2.166     0.935 
 H                     2.713     2.671     1.341 
 
 The following ModRedundant input section has been read:
 D       2       3       8       9 F                                           
 

 GradGradGradGradGradGradGradGradGradGradGradGradGradGradGradGradGradGrad
 Berny optimization.
 Initialization pass.
                           ----------------------------
                           !    Initial Parameters    !
                           ! (Angstroms and Degrees)  !
 --------------------------                            --------------------------
 ! Name  Definition              Value          Derivative Info.                !
 --------------------------------------------------------------------------------
 ! R1    R(1,2)                  1.4378         estimate D2E/DX2                !
 ! R2    R(1,4)                  1.3486         estimate D2E/DX2                !
 ! R3    R(1,5)                  1.08           estimate D2E/DX2                !
 ! R4    R(2,3)                  1.3536         estimate D2E/DX2                !
 ! R5    R(2,19)                 1.3513         estimate D2E/DX2                !
 ! R6    R(3,6)                  1.7491         estimate D2E/DX2                !
 ! R7    R(3,8)                  1.4675         estimate D2E/DX2                !
 ! R8    R(4,6)                  1.7218         estimate D2E/DX2                !
 ! R9    R(4,7)                  1.0768         estimate D2E/DX2                !
 ! R10   R(8,9)                  1.7622         estimate D2E/DX2                !
 ! R11   R(8,12)                 1.3516         estimate D2E/DX2                !
 ! R12   R(9,10)                 1.7367         estimate D2E/DX2                !
 ! R13   R(10,11)                1.364          estimate D2E/DX2                !
 ! R14   R(10,16)                1.4354         estimate D2E/DX2                !
 ! R15   R(11,12)                1.4332         estimate D2E/DX2                !
 ! R16   R(11,14)                1.7369         estimate D2E/DX2                !
 ! R17   R(12,13)                1.0766         estimate D2E/DX2                !
 ! R18   R(14,15)                1.7447         estimate D2E/DX2                !
 ! R19   R(15,16)                1.3492         estimate D2E/DX2                !
 ! R20   R(15,17)                1.0772         estimate D2E/DX2                !
 ! R21   R(16,18)                1.0775         estimate D2E/DX2                !
 ! R22   R(19,20)                0.9422         estimate D2E/DX2                !
 ! A1    A(2,1,4)              112.1666         estimate D2E/DX2                !
 ! A2    A(2,1,5)              123.7057         estimate D2E/DX2                !
 ! A3    A(4,1,5)              124.1273         estimate D2E/DX2                !
 ! A4    A(1,2,3)              113.7182         estimate D2E/DX2                !
 ! A5    A(1,2,19)             123.5096         estimate D2E/DX2                !
 ! A6    A(3,2,19)             122.7712         estimate D2E/DX2                !
 ! A7    A(2,3,6)              110.2038         estimate D2E/DX2                !
 ! A8    A(2,3,8)              127.8229         estimate D2E/DX2                !
 ! A9    A(6,3,8)              121.9617         estimate D2E/DX2                !
 ! A10   A(1,4,6)              112.1806         estimate D2E/DX2                !
 ! A11   A(1,4,7)              127.2776         estimate D2E/DX2                !
 ! A12   A(6,4,7)              120.5392         estimate D2E/DX2                !
 ! A13   A(3,6,4)               91.7274         estimate D2E/DX2                !
 ! A14   A(3,8,9)              120.4713         estimate D2E/DX2                !
 ! A15   A(3,8,12)             127.3189         estimate D2E/DX2                !
 ! A16   A(9,8,12)             112.1803         estimate D2E/DX2                !
 ! A17   A(8,9,10)              90.8164         estimate D2E/DX2                !
 ! A18   A(9,10,11)            111.1131         estimate D2E/DX2                !
 ! A19   A(9,10,16)            134.8524         estimate D2E/DX2                !
 ! A20   A(11,10,16)           114.0344         estimate D2E/DX2                !
 ! A21   A(10,11,12)           114.1264         estimate D2E/DX2                !
 ! A22   A(10,11,14)           111.126          estimate D2E/DX2                !
 ! A23   A(12,11,14)           134.7397         estimate D2E/DX2                !
 ! A24   A(8,12,11)            111.7546         estimate D2E/DX2                !
 ! A25   A(8,12,13)            123.1336         estimate D2E/DX2                !
 ! A26   A(11,12,13)           125.1118         estimate D2E/DX2                !
 ! A27   A(11,14,15)            90.5771         estimate D2E/DX2                !
 ! A28   A(14,15,16)           113.2731         estimate D2E/DX2                !
 ! A29   A(14,15,17)           119.6048         estimate D2E/DX2                !
 ! A30   A(16,15,17)           127.122          estimate D2E/DX2                !
 ! A31   A(10,16,15)           110.9893         estimate D2E/DX2                !
 ! A32   A(10,16,18)           125.1088         estimate D2E/DX2                !
 ! A33   A(15,16,18)           123.9018         estimate D2E/DX2                !
 ! A34   A(2,19,20)            110.7782         estimate D2E/DX2                !
 ! D1    D(4,1,2,3)             -0.4237         estimate D2E/DX2                !
 ! D2    D(4,1,2,19)           179.9177         estimate D2E/DX2                !
 ! D3    D(5,1,2,3)            179.7933         estimate D2E/DX2                !
 ! D4    D(5,1,2,19)             0.1347         estimate D2E/DX2                !
 ! D5    D(2,1,4,6)              0.6183         estimate D2E/DX2                !
 ! D6    D(2,1,4,7)           -179.9694         estimate D2E/DX2                !
 ! D7    D(5,1,4,6)           -179.5998         estimate D2E/DX2                !
 ! D8    D(5,1,4,7)             -0.1875         estimate D2E/DX2                !
 ! D9    D(1,2,3,6)              0.0326         estimate D2E/DX2                !
 ! D10   D(1,2,3,8)            178.8029         estimate D2E/DX2                !
 ! D11   D(19,2,3,6)           179.694          estimate D2E/DX2                !
 ! D12   D(19,2,3,8)            -1.5356         estimate D2E/DX2                !
 ! D13   D(1,2,19,20)          -10.9012         estimate D2E/DX2                !
 ! D14   D(3,2,19,20)          169.4705         estimate D2E/DX2                !
 ! D15   D(2,3,6,4)              0.2643         estimate D2E/DX2                !
 ! D16   D(8,3,6,4)           -178.5908         estimate D2E/DX2                !
 ! D17   D(2,3,8,9)           -125.0365         Frozen                          !
 ! D18   D(2,3,8,12)            52.8276         estimate D2E/DX2                !
 ! D19   D(6,3,8,9)             53.6032         estimate D2E/DX2                !
 ! D20   D(6,3,8,12)          -128.5326         estimate D2E/DX2                !
 ! D21   D(1,4,6,3)             -0.5142         estimate D2E/DX2                !
 ! D22   D(7,4,6,3)           -179.9713         estimate D2E/DX2                !
 ! D23   D(3,8,9,10)           178.8513         estimate D2E/DX2                !
 ! D24   D(12,8,9,10)            0.6855         estimate D2E/DX2                !
 ! D25   D(3,8,12,11)         -178.3097         estimate D2E/DX2                !
 ! D26   D(3,8,12,13)            1.7305         estimate D2E/DX2                !
 ! D27   D(9,8,12,11)           -0.2976         estimate D2E/DX2                !
 ! D28   D(9,8,12,13)          179.7426         estimate D2E/DX2                !
 ! D29   D(8,9,10,11)           -0.8988         estimate D2E/DX2                !
 ! D30   D(8,9,10,16)          179.1227         estimate D2E/DX2                !
 ! D31   D(9,10,11,12)           0.9177         estimate D2E/DX2                !
 ! D32   D(9,10,11,14)        -179.9524         estimate D2E/DX2                !
 ! D33   D(16,10,11,12)       -179.099          estimate D2E/DX2                !
 ! D34   D(16,10,11,14)          0.0309         estimate D2E/DX2                !
 ! D35   D(9,10,16,15)         179.8841         estimate D2E/DX2                !
 ! D36   D(9,10,16,18)          -0.0367         estimate D2E/DX2                !
 ! D37   D(11,10,16,15)         -0.094          estimate D2E/DX2                !
 ! D38   D(11,10,16,18)        179.9852         estimate D2E/DX2                !
 ! D39   D(10,11,12,8)          -0.404          estimate D2E/DX2                !
 ! D40   D(10,11,12,13)        179.5549         estimate D2E/DX2                !
 ! D41   D(14,11,12,8)        -179.2613         estimate D2E/DX2                !
 ! D42   D(14,11,12,13)          0.6976         estimate D2E/DX2                !
 ! D43   D(10,11,14,15)          0.0277         estimate D2E/DX2                !
 ! D44   D(12,11,14,15)        178.9097         estimate D2E/DX2                !
 ! D45   D(11,14,15,16)         -0.0839         estimate D2E/DX2                !
 ! D46   D(11,14,15,17)        179.9209         estimate D2E/DX2                !
 ! D47   D(14,15,16,10)          0.114          estimate D2E/DX2                !
 ! D48   D(14,15,16,18)       -179.9641         estimate D2E/DX2                !
 ! D49   D(17,15,16,10)       -179.8912         estimate D2E/DX2                !
 ! D50   D(17,15,16,18)          0.0307         estimate D2E/DX2                !
 --------------------------------------------------------------------------------
 Trust Radius=3.00D-01 FncErr=1.00D-07 GrdErr=1.00D-07 EigMax=2.50D+02 EigMin=1.00D-04
 Number of steps in this run=    116 maximum allowed number of steps=    120.
 GradGradGradGradGradGradGradGradGradGradGradGradGradGradGradGradGradGrad

                          Input orientation:                          
 ---------------------------------------------------------------------
 Center     Atomic      Atomic             Coordinates (Angstroms)
 Number     Number       Type             X           Y           Z
 ---------------------------------------------------------------------
      1          6           0        3.936000    0.790000    0.222000
      2          6           0        2.529000    1.039000    0.382000
      3          6           0        1.743000    0.039000   -0.081000
      4          6           0        4.179000   -0.405000   -0.354000
      5          1           0        4.706000    1.481000    0.532000
      6         16           0        2.728000   -1.251000   -0.733000
      7          1           0        5.139000   -0.834000   -0.586000
      8          6           0        0.278000   -0.041000   -0.052000
      9         16           0       -0.527000   -1.424000    0.686000
     10          6           0       -2.083000   -0.735000    0.339000
     11          6           0       -1.958000    0.475000   -0.278000
     12          6           0       -0.602000    0.877000   -0.510000
     13          1           0       -0.301000    1.793000   -0.989000
     14         16           0       -3.514000    1.165000   -0.624000
     15          6           0       -4.305000   -0.219000    0.085000
     16          6           0       -3.442000   -1.145000    0.552000
     17          1           0       -5.381000   -0.261000    0.112000
     18          1           0       -3.745000   -2.066000    1.022000
     19          8           0        2.029000    2.166000    0.935000
     20          1           0        2.713000    2.671000    1.341000
 ---------------------------------------------------------------------
                    Distance matrix (angstroms):
                    1          2          3          4          5
     1  C    0.000000
     2  C    1.437793   0.000000
     3  C    2.337747   1.353575   0.000000
     4  C    1.348647   2.312862   2.491136   0.000000
     5  H    1.080037   2.226475   3.351791   2.149354   0.000000
     6  S    2.556750   2.554785   1.749122   1.721847   3.602296
     7  H    2.176568   3.355183   3.542594   1.076785   2.607036
     8  C    3.761197   2.534119   1.467469   3.929568   4.718551
     9  S    5.003545   3.936740   2.807411   4.926093   5.987239
    10  C    6.210288   4.941606   3.926035   6.308866   7.144118
    11  C    5.923551   4.570215   3.731797   6.200237   6.788006
    12  C    4.597482   3.259612   2.526917   4.952355   5.442926
    13  H    4.519369   3.233737   2.842343   5.030391   5.242217
    14  S    7.507253   6.127460   5.403589   7.856211   8.306900
    15  C    8.303670   6.955166   6.055776   8.497386   9.180846
    16  C    7.634658   6.360157   5.356003   7.710258   8.560735
    17  H    9.376737   8.020661   7.132925   9.572434  10.244927
    18  H    8.233741   7.029488   5.980450   8.212312   9.178274
    19  O    2.457314   1.351273   2.374485   3.590830   2.792483
    20  H    2.507200   1.901831   3.144902   3.805779   2.458176
                    6          7          8          9         10
     6  S    0.000000
     7  H    2.451208   0.000000
     8  C    2.816090   4.954122   0.000000
     9  S    3.555069   5.836920   1.762203   0.000000
    10  C    4.955922   7.281669   2.491754   1.736740   0.000000
    11  C    5.014449   7.223279   2.305868   2.565786   1.363970
    12  C    3.958158   5.991025   1.351624   2.594348   2.347915
    13  H    4.301896   6.054514   2.139338   3.633977   3.365990
    14  S    6.694139   8.880983   4.020060   4.164275   2.566151
    15  C    7.155224   9.487761   4.588501   4.010799   2.295225
    16  C    6.303282   8.661716   3.927090   2.931386   1.435392
    17  H    8.212795  10.558690   5.665649   5.024277   3.339612
    18  H    6.756033   9.112022   4.630187   3.298573   2.236134
    19  O    3.866098   4.580998   2.985133   4.413982   5.067500
    20  H    4.436641   4.678016   3.901874   5.262666   5.967115
                   11         12         13         14         15
    11  C    0.000000
    12  C    1.433236   0.000000
    13  H    2.233449   1.076614   0.000000
    14  S    1.736938   2.928427   3.294082   0.000000
    15  C    2.474230   3.907358   4.607997   1.744654   0.000000
    16  C    2.348522   3.644438   4.568633   2.593118   1.349198
    17  H    3.522886   4.951845   5.589053   2.461882   1.077158
    18  H    3.367499   4.570199   5.549517   3.633461   2.145455
    19  O    4.497446   3.266758   3.044635   5.844427   6.821311
    20  H    5.409419   4.199269   3.909473   6.701104   7.692981
                   16         17         18         19         20
    16  C    0.000000
    17  H    2.175954   0.000000
    18  H    1.077474   2.600504   0.000000
    19  O    6.406345   7.840648   7.159362   0.000000
    20  H    7.284806   8.695970   8.015404   0.942187   0.000000
 Stoichiometry    C10H6OS3
 Framework group  C1[X(C10H6OS3)]
 Deg. of freedom    54
 Full point group                 C1      NOp   1
 Largest Abelian subgroup         C1      NOp   1
 Largest concise Abelian subgroup C1      NOp   1
                         Standard orientation:                         
 ---------------------------------------------------------------------
 Center     Atomic      Atomic             Coordinates (Angstroms)
 Number     Number       Type             X           Y           Z
 ---------------------------------------------------------------------
      1          6           0        3.935896    0.790225    0.222212
      2          6           0        2.528874    1.039079    0.382250
      3          6           0        1.742957    0.039135   -0.081011
      4          6           0        4.178995   -0.404613   -0.354081
      5          1           0        4.705839    1.481206    0.532396
      6         16           0        2.728065   -1.250629   -0.733315
      7          1           0        5.139031   -0.833483   -0.586172
      8          6           0        0.277963   -0.040983   -0.052055
      9         16           0       -0.526945   -1.424226    0.685589
     10          6           0       -2.082991   -0.735258    0.338734
     11          6           0       -1.958072    0.474905   -0.277963
     12          6           0       -0.602099    0.877065   -0.509841
     13          1           0       -0.301160    1.793206   -0.988609
     14         16           0       -3.514119    1.164874   -0.623818
     15          6           0       -4.305026   -0.219362    0.084826
     16          6           0       -3.441964   -1.145413    0.551610
     17          1           0       -5.381023   -0.261450    0.111798
     18          1           0       -3.744902   -2.066552    1.021376
     19          8           0        2.028780    2.165904    0.935522
     20          1           0        2.712736    2.670855    1.341659
 ---------------------------------------------------------------------
 Rotational constants (GHZ):           1.3153943           0.2716694           0.2415836
 Standard basis: Aug-CC-pVDZ (5D, 7F)
 There are   416 symmetry adapted cartesian basis functions of A   symmetry.
 There are   388 symmetry adapted basis functions of A   symmetry.
   388 basis functions,   782 primitive gaussians,   416 cartesian basis functions
    61 alpha electrons       61 beta electrons
       nuclear repulsion energy      1127.8603294295 Hartrees.
 NAtoms=   20 NActive=   20 NUniq=   20 SFac= 1.00D+00 NAtFMM=   60 NAOKFM=F Big=F
 Integral buffers will be    131072 words long.
 Raffenetti 1 integral format.
 Two-electron integral symmetry is turned on.
 One-electron integrals computed using PRISM.
 NBasis=   388 RedAO= T EigKep=  3.46D-06  NBF=   388
 NBsUse=   388 1.00D-06 EigRej= -1.00D+00 NBFU=   388
 ExpMin= 2.97D-02 ExpMax= 1.11D+05 ExpMxC= 1.07D+03 IAcc=3 IRadAn=         5 AccDes= 0.00D+00
 Harris functional with IExCor=  205 and IRadAn=       5 diagonalized for initial guess.
 HarFok:  IExCor=  205 AccDes= 0.00D+00 IRadAn=         5 IDoV= 1 UseB2=F ITyADJ=14
 ICtDFT=  3500011 ScaDFX=  1.000000  1.000000  1.000000  1.000000
 FoFCou: FMM=F IPFlag=           0 FMFlag=      100000 FMFlg1=           0
         NFxFlg=           0 DoJE=T BraDBF=F KetDBF=T FulRan=T
         wScrn=  0.000000 ICntrl=       500 IOpCl=  0 I1Cent=   200000004 NGrid=           0
         NMat0=    1 NMatS0=      1 NMatT0=    0 NMatD0=    1 NMtDS0=    0 NMtDT0=    0
 Petite list used in FoFCou.
 Requested convergence on RMS density matrix=1.00D-08 within 128 cycles.
 Requested convergence on MAX density matrix=1.00D-06.
 Requested convergence on             energy=1.00D-06.
 No special actions if energy rises.
 SCF Done:  E(RHF) =  -1649.64217311     A.U. after   17 cycles
            NFock= 17  Conv=0.59D-08     -V/T= 2.0000
 ExpMin= 2.97D-02 ExpMax= 1.11D+05 ExpMxC= 1.07D+03 IAcc=3 IRadAn=         5 AccDes= 0.00D+00
 HarFok:  IExCor=  205 AccDes= 0.00D+00 IRadAn=         5 IDoV=-2 UseB2=F ITyADJ=14
 ICtDFT= 12500011 ScaDFX=  1.000000  1.000000  1.000000  1.000000
 GSVD:  LWork=        -884 too small for GESVD, short by        3770 words or        3770 for optimal perf.
 Range of M.O.s used for correlation:    27   388
 NBasis=   388 NAE=    61 NBE=    61 NFC=    26 NFV=     0
 NROrb=    362 NOA=    35 NOB=    35 NVA=   327 NVB=   327

 **** Warning!!: The largest alpha MO coefficient is  0.93156195D+02

 Fully direct method using O(ONN) memory.
 JobTyp=1 Pass  1:  I=  27 to  61 NPSUse=  8 ParTrn=T ParDer=T DoDerP=T.
 Spin components of T(2) and E(2):
     alpha-alpha T2 =       0.1136464104D+00 E2=     -0.2739428543D+00
     alpha-beta  T2 =       0.5541210415D+00 E2=     -0.1420785174D+01
     beta-beta   T2 =       0.1136464104D+00 E2=     -0.2739428543D+00
 ANorm=    0.1334696169D+01
 E2 =    -0.1968670882D+01 EUMP2 =    -0.16516108439882D+04
          IDoAtm=11111111111111111111
          Differentiating once with respect to electric field.
                with respect to dipole field.
          Differentiating once with respect to nuclear coordinates.
 Keep R1 ints in memory in canonical form, NReq=2883857471.
          There are     1 degrees of freedom in the 1st order CPHF.  IDoFFX=0 NUNeed=     1.
 LinEq1:  Iter=  0 NonCon=     1 RMS=2.87D-03 Max=6.62D-02 NDo=     1
 AX will form     1 AO Fock derivatives at one time.
 LinEq1:  Iter=  1 NonCon=     1 RMS=6.77D-04 Max=1.03D-02 NDo=     1
 LinEq1:  Iter=  2 NonCon=     1 RMS=3.47D-04 Max=1.10D-02 NDo=     1
 LinEq1:  Iter=  3 NonCon=     1 RMS=9.14D-05 Max=1.69D-03 NDo=     1
 LinEq1:  Iter=  4 NonCon=     1 RMS=3.62D-05 Max=9.10D-04 NDo=     1
 LinEq1:  Iter=  5 NonCon=     1 RMS=1.48D-05 Max=4.52D-04 NDo=     1
 LinEq1:  Iter=  6 NonCon=     1 RMS=6.15D-06 Max=2.22D-04 NDo=     1
 LinEq1:  Iter=  7 NonCon=     1 RMS=2.89D-06 Max=1.08D-04 NDo=     1
 LinEq1:  Iter=  8 NonCon=     1 RMS=1.07D-06 Max=3.77D-05 NDo=     1
 LinEq1:  Iter=  9 NonCon=     1 RMS=4.51D-07 Max=1.36D-05 NDo=     1
 LinEq1:  Iter= 10 NonCon=     1 RMS=1.71D-07 Max=2.36D-06 NDo=     1
 LinEq1:  Iter= 11 NonCon=     1 RMS=7.24D-08 Max=2.86D-06 NDo=     1
 LinEq1:  Iter= 12 NonCon=     1 RMS=2.67D-08 Max=4.88D-07 NDo=     1
 LinEq1:  Iter= 13 NonCon=     1 RMS=1.08D-08 Max=2.22D-07 NDo=     1
 LinEq1:  Iter= 14 NonCon=     1 RMS=3.46D-09 Max=5.96D-08 NDo=     1
 LinEq1:  Iter= 15 NonCon=     1 RMS=1.44D-09 Max=3.51D-08 NDo=     1
 LinEq1:  Iter= 16 NonCon=     1 RMS=5.49D-10 Max=1.16D-08 NDo=     1
 LinEq1:  Iter= 17 NonCon=     1 RMS=2.34D-10 Max=6.68D-09 NDo=     1
 LinEq1:  Iter= 18 NonCon=     1 RMS=8.44D-11 Max=1.38D-09 NDo=     1
 LinEq1:  Iter= 19 NonCon=     0 RMS=2.83D-11 Max=4.06D-10 NDo=     1
 Linear equations converged to 1.000D-10 1.000D-09 after    19 iterations.
 End of Minotr F.D. properties file   721 does not exist.
 End of Minotr F.D. properties file   722 does not exist.
 End of Minotr F.D. properties file   788 does not exist.

 **********************************************************************

            Population analysis using the SCF Density.

 **********************************************************************

 Orbital symmetries:
       Occupied  (A) (A) (A) (A) (A) (A) (A) (A) (A) (A) (A) (A)
                 (A) (A) (A) (A) (A) (A) (A) (A) (A) (A) (A) (A)
                 (A) (A) (A) (A) (A) (A) (A) (A) (A) (A) (A) (A)
                 (A) (A) (A) (A) (A) (A) (A) (A) (A) (A) (A) (A)
                 (A) (A) (A) (A) (A) (A) (A) (A) (A) (A) (A) (A)
                 (A)
       Virtual   (A) (A) (A) (A) (A) (A) (A) (A) (A) (A) (A) (A)
                 (A) (A) (A) (A) (A) (A) (A) (A) (A) (A) (A) (A)
                 (A) (A) (A) (A) (A) (A) (A) (A) (A) (A) (A) (A)
                 (A) (A) (A) (A) (A) (A) (A) (A) (A) (A) (A) (A)
                 (A) (A) (A) (A) (A) (A) (A) (A) (A) (A) (A) (A)
                 (A) (A) (A) (A) (A) (A) (A) (A) (A) (A) (A) (A)
                 (A) (A) (A) (A) (A) (A) (A) (A) (A) (A) (A) (A)
                 (A) (A) (A) (A) (A) (A) (A) (A) (A) (A) (A) (A)
                 (A) (A) (A) (A) (A) (A) (A) (A) (A) (A) (A) (A)
                 (A) (A) (A) (A) (A) (A) (A) (A) (A) (A) (A) (A)
                 (A) (A) (A) (A) (A) (A) (A) (A) (A) (A) (A) (A)
                 (A) (A) (A) (A) (A) (A) (A) (A) (A) (A) (A) (A)
                 (A) (A) (A) (A) (A) (A) (A) (A) (A) (A) (A) (A)
                 (A) (A) (A) (A) (A) (A) (A) (A) (A) (A) (A) (A)
                 (A) (A) (A) (A) (A) (A) (A) (A) (A) (A) (A) (A)
                 (A) (A) (A) (A) (A) (A) (A) (A) (A) (A) (A) (A)
                 (A) (A) (A) (A) (A) (A) (A) (A) (A) (A) (A) (A)
                 (A) (A) (A) (A) (A) (A) (A) (A) (A) (A) (A) (A)
                 (A) (A) (A) (A) (A) (A) (A) (A) (A) (A) (A) (A)
                 (A) (A) (A) (A) (A) (A) (A) (A) (A) (A) (A) (A)
                 (A) (A) (A) (A) (A) (A) (A) (A) (A) (A) (A) (A)
                 (A) (A) (A) (A) (A) (A) (A) (A) (A) (A) (A) (A)
                 (A) (A) (A) (A) (A) (A) (A) (A) (A) (A) (A) (A)
                 (A) (A) (A) (A) (A) (A) (A) (A) (A) (A) (A) (A)
                 (A) (A) (A) (A) (A) (A) (A) (A) (A) (A) (A) (A)
                 (A) (A) (A) (A) (A) (A) (A) (A) (A) (A) (A) (A)
                 (A) (A) (A) (A) (A) (A) (A) (A) (A) (A) (A) (A)
                 (A) (A) (A)
 The electronic state is 1-A.
 Alpha  occ. eigenvalues --  -91.99027 -91.98634 -91.98502 -20.61036 -11.31788
 Alpha  occ. eigenvalues --  -11.28458 -11.28402 -11.27379 -11.27086 -11.26847
 Alpha  occ. eigenvalues --  -11.26703 -11.25550 -11.25428 -11.25151  -8.99229
 Alpha  occ. eigenvalues --   -8.98818  -8.98669  -6.67397  -6.67304  -6.67105
 Alpha  occ. eigenvalues --   -6.66985  -6.66907  -6.66834  -6.66753  -6.66700
 Alpha  occ. eigenvalues --   -6.66544  -1.42998  -1.21274  -1.18490  -1.12580
 Alpha  occ. eigenvalues --   -1.02953  -1.02001  -0.98714  -0.95584  -0.94242
 Alpha  occ. eigenvalues --   -0.82649  -0.81174  -0.77006  -0.75018  -0.72301
 Alpha  occ. eigenvalues --   -0.69691  -0.66778  -0.66493  -0.62186  -0.61141
 Alpha  occ. eigenvalues --   -0.58311  -0.56309  -0.55990  -0.53987  -0.53015
 Alpha  occ. eigenvalues --   -0.52605  -0.50783  -0.49364  -0.48572  -0.46223
 Alpha  occ. eigenvalues --   -0.45799  -0.38522  -0.35267  -0.33551  -0.31783
 Alpha  occ. eigenvalues --   -0.28704
 Alpha virt. eigenvalues --    0.02749   0.03728   0.03931   0.05047   0.05097
 Alpha virt. eigenvalues --    0.06256   0.07964   0.08182   0.08575   0.09212
 Alpha virt. eigenvalues --    0.10101   0.10411   0.10526   0.10967   0.11324
 Alpha virt. eigenvalues --    0.12445   0.12613   0.12763   0.12914   0.13467
 Alpha virt. eigenvalues --    0.13700   0.14099   0.14460   0.14806   0.15030
 Alpha virt. eigenvalues --    0.15366   0.15817   0.16511   0.16691   0.16874
 Alpha virt. eigenvalues --    0.17887   0.18185   0.18551   0.18630   0.19325
 Alpha virt. eigenvalues --    0.20031   0.20253   0.20570   0.21315   0.21392
 Alpha virt. eigenvalues --    0.21830   0.22390   0.23117   0.23338   0.23503
 Alpha virt. eigenvalues --    0.23965   0.24395   0.25000   0.25107   0.25605
 Alpha virt. eigenvalues --    0.26832   0.27256   0.27449   0.27782   0.28448
 Alpha virt. eigenvalues --    0.28578   0.29649   0.30923   0.31155   0.31646
 Alpha virt. eigenvalues --    0.31874   0.32134   0.32630   0.32893   0.33223
 Alpha virt. eigenvalues --    0.34319   0.34590   0.34712   0.35270   0.35897
 Alpha virt. eigenvalues --    0.36448   0.37313   0.37833   0.38593   0.38641
 Alpha virt. eigenvalues --    0.40110   0.40796   0.40984   0.41215   0.42664
 Alpha virt. eigenvalues --    0.43214   0.43919   0.44373   0.44974   0.45558
 Alpha virt. eigenvalues --    0.45867   0.46226   0.47351   0.48713   0.48792
 Alpha virt. eigenvalues --    0.49463   0.49783   0.49841   0.51226   0.52217
 Alpha virt. eigenvalues --    0.53330   0.53870   0.54380   0.54702   0.55136
 Alpha virt. eigenvalues --    0.56303   0.57820   0.58567   0.59091   0.59898
 Alpha virt. eigenvalues --    0.60487   0.60803   0.61365   0.62195   0.62700
 Alpha virt. eigenvalues --    0.63172   0.63527   0.64461   0.64950   0.66105
 Alpha virt. eigenvalues --    0.66388   0.67175   0.67488   0.68000   0.68584
 Alpha virt. eigenvalues --    0.68990   0.69526   0.70104   0.70425   0.71307
 Alpha virt. eigenvalues --    0.71595   0.72425   0.72961   0.73556   0.74007
 Alpha virt. eigenvalues --    0.74287   0.75266   0.75673   0.75988   0.76331
 Alpha virt. eigenvalues --    0.77175   0.77610   0.78546   0.79472   0.79611
 Alpha virt. eigenvalues --    0.81275   0.82413   0.83210   0.83855   0.84268
 Alpha virt. eigenvalues --    0.85204   0.85671   0.86869   0.87324   0.87884
 Alpha virt. eigenvalues --    0.88375   0.89301   0.89983   0.90790   0.91649
 Alpha virt. eigenvalues --    0.91923   0.92879   0.93619   0.94871   0.95558
 Alpha virt. eigenvalues --    0.96191   0.96585   0.96999   0.97506   0.98069
 Alpha virt. eigenvalues --    0.99509   1.00411   1.01066   1.02958   1.03481
 Alpha virt. eigenvalues --    1.04994   1.05299   1.05707   1.06910   1.08458
 Alpha virt. eigenvalues --    1.09193   1.10708   1.10921   1.11728   1.12963
 Alpha virt. eigenvalues --    1.13071   1.14437   1.17417   1.17422   1.18395
 Alpha virt. eigenvalues --    1.20473   1.21209   1.22574   1.23013   1.23690
 Alpha virt. eigenvalues --    1.24070   1.24785   1.25312   1.26137   1.27866
 Alpha virt. eigenvalues --    1.28381   1.28984   1.29838   1.31051   1.32098
 Alpha virt. eigenvalues --    1.33428   1.34113   1.35323   1.36701   1.37282
 Alpha virt. eigenvalues --    1.39142   1.39504   1.41219   1.41635   1.42493
 Alpha virt. eigenvalues --    1.43940   1.44775   1.45205   1.46623   1.49599
 Alpha virt. eigenvalues --    1.51101   1.53759   1.55079   1.56131   1.57009
 Alpha virt. eigenvalues --    1.58053   1.58219   1.59475   1.61366   1.61900
 Alpha virt. eigenvalues --    1.62370   1.64271   1.65058   1.65920   1.67125
 Alpha virt. eigenvalues --    1.67573   1.69613   1.70507   1.71422   1.72225
 Alpha virt. eigenvalues --    1.73575   1.74413   1.76287   1.76732   1.77395
 Alpha virt. eigenvalues --    1.79490   1.81081   1.81828   1.82392   1.84185
 Alpha virt. eigenvalues --    1.85537   1.86575   1.87527   1.88544   1.90189
 Alpha virt. eigenvalues --    1.91231   1.92228   1.93744   1.95153   1.96950
 Alpha virt. eigenvalues --    1.98641   1.99647   2.02166   2.04020   2.05190
 Alpha virt. eigenvalues --    2.06358   2.07861   2.08697   2.09476   2.10058
 Alpha virt. eigenvalues --    2.11011   2.14410   2.14557   2.14679   2.15624
 Alpha virt. eigenvalues --    2.16501   2.19046   2.19760   2.21176   2.22023
 Alpha virt. eigenvalues --    2.24446   2.25416   2.27442   2.28383   2.31396
 Alpha virt. eigenvalues --    2.33069   2.33455   2.34788   2.36059   2.37675
 Alpha virt. eigenvalues --    2.40741   2.42019   2.42259   2.45708   2.46831
 Alpha virt. eigenvalues --    2.47277   2.50165   2.50545   2.51968   2.52990
 Alpha virt. eigenvalues --    2.56596   2.58782   2.61311   2.62343   2.67401
 Alpha virt. eigenvalues --    2.74450   2.81829   2.84015   2.86480   2.87698
 Alpha virt. eigenvalues --    2.91321   2.93623   2.98523   3.00410   3.05355
 Alpha virt. eigenvalues --    3.12295   3.17587   3.25116   3.25935   3.36463
 Alpha virt. eigenvalues --    3.42322   3.53773   3.60150   3.63347   3.76621
 Alpha virt. eigenvalues --    3.78499   3.80465   3.86532   3.88904   4.22678
 Alpha virt. eigenvalues --    4.24857   4.47821
          Condensed to atoms (all electrons):
               1          2          3          4          5          6
     1  C    7.908860  -2.290073   0.141499  -0.048135  -0.171893  -0.501740
     2  C   -2.290073  10.744207  -2.020518   0.556320   0.157944  -0.276377
     3  C    0.141499  -2.020518  11.467451  -1.349940  -0.003648  -0.269688
     4  C   -0.048135   0.556320  -1.349940   6.519999  -0.028923   0.412572
     5  H   -0.171893   0.157944  -0.003648  -0.028923   1.652123  -0.019055
     6  S   -0.501740  -0.276377  -0.269688   0.412572  -0.019055  16.311978
     7  H   -0.006652   0.067113   0.029961   0.199745  -0.069656  -0.150743
     8  C    0.467736  -0.829285  -1.982254   0.197030   0.005815   0.003609
     9  S   -0.043634  -0.019108  -0.684331   0.042686  -0.003200   0.279308
    10  C    0.018993   0.037705  -0.359157   0.013760   0.000042   0.052482
    11  C   -0.057285  -0.052485   0.506958   0.000584  -0.001359   0.030986
    12  C   -0.021480   0.407864  -0.186485  -0.111563   0.002926  -0.350893
    13  H    0.007845  -0.014564   0.067432   0.005404   0.001425   0.010101
    14  S    0.000529   0.012998  -0.078984  -0.000504  -0.000039   0.001474
    15  C   -0.000379  -0.013345   0.028051   0.000603  -0.000004   0.004554
    16  C   -0.000243   0.010990  -0.348023  -0.002721  -0.000154   0.013002
    17  H   -0.000030   0.000133  -0.000189   0.000020  -0.000001   0.000104
    18  H   -0.000323   0.000262  -0.010688   0.000008  -0.000032   0.001617
    19  O    0.134020  -0.768799   0.322239  -0.086457  -0.059679   0.002854
    20  H   -0.141232   0.019823  -0.035553  -0.006575  -0.009787   0.013192
               7          8          9         10         11         12
     1  C   -0.006652   0.467736  -0.043634   0.018993  -0.057285  -0.021480
     2  C    0.067113  -0.829285  -0.019108   0.037705  -0.052485   0.407864
     3  C    0.029961  -1.982254  -0.684331  -0.359157   0.506958  -0.186485
     4  C    0.199745   0.197030   0.042686   0.013760   0.000584  -0.111563
     5  H   -0.069656   0.005815  -0.003200   0.000042  -0.001359   0.002926
     6  S   -0.150743   0.003609   0.279308   0.052482   0.030986  -0.350893
     7  H    1.266290   0.001282   0.003862   0.001342   0.000863  -0.003148
     8  C    0.001282  11.878596   0.367036  -0.171748  -0.545300  -3.585779
     9  S    0.003862   0.367036  16.544660   0.371784  -0.553756  -0.585742
    10  C    0.001342  -0.171748   0.371784  10.889278  -0.823210  -1.204692
    11  C    0.000863  -0.545300  -0.553756  -0.823210  12.099134  -3.018979
    12  C   -0.003148  -3.585779  -0.585742  -1.204692  -3.018979  15.806622
    13  H    0.000307   0.429271   0.032772  -0.083561   0.564200  -1.181624
    14  S   -0.000045  -0.272668   0.106483  -0.051641  -0.360798   0.073559
    15  C    0.000049   0.076073  -0.103640  -0.127145  -0.963937  -0.128654
    16  C   -0.000106  -0.427053  -0.192606  -2.379151  -0.791706   0.086029
    17  H    0.000003   0.000264   0.009990   0.067456  -0.056292   0.035478
    18  H    0.000019   0.098440   0.014134   0.546534   0.063111  -0.067290
    19  O   -0.002199   0.064558   0.003665  -0.001844   0.020414  -0.078541
    20  H    0.001679  -0.009279  -0.001232   0.000491  -0.000242   0.016039
              13         14         15         16         17         18
     1  C    0.007845   0.000529  -0.000379  -0.000243  -0.000030  -0.000323
     2  C   -0.014564   0.012998  -0.013345   0.010990   0.000133   0.000262
     3  C    0.067432  -0.078984   0.028051  -0.348023  -0.000189  -0.010688
     4  C    0.005404  -0.000504   0.000603  -0.002721   0.000020   0.000008
     5  H    0.001425  -0.000039  -0.000004  -0.000154  -0.000001  -0.000032
     6  S    0.010101   0.001474   0.004554   0.013002   0.000104   0.001617
     7  H    0.000307  -0.000045   0.000049  -0.000106   0.000003   0.000019
     8  C    0.429271  -0.272668   0.076073  -0.427053   0.000264   0.098440
     9  S    0.032772   0.106483  -0.103640  -0.192606   0.009990   0.014134
    10  C   -0.083561  -0.051641  -0.127145  -2.379151   0.067456   0.546534
    11  C    0.564200  -0.360798  -0.963937  -0.791706  -0.056292   0.063111
    12  C   -1.181624   0.073559  -0.128654   0.086029   0.035478  -0.067290
    13  H    1.654500  -0.045911   0.013860  -0.030436   0.001890  -0.000390
    14  S   -0.045911  16.013317   0.197046  -0.046566  -0.158660  -0.003524
    15  C    0.013860   0.197046   6.902260   0.130742   0.192511  -0.117551
    16  C   -0.030436  -0.046566   0.130742   9.957808   0.060905  -0.562967
    17  H    0.001890  -0.158660   0.192511   0.060905   1.292284  -0.069098
    18  H   -0.000390  -0.003524  -0.117551  -0.562967  -0.069098   1.429314
    19  O    0.006930  -0.002926   0.000128  -0.000066  -0.000033   0.000116
    20  H   -0.001704   0.000228  -0.000185   0.000696   0.000001   0.000036
              19         20
     1  C    0.134020  -0.141232
     2  C   -0.768799   0.019823
     3  C    0.322239  -0.035553
     4  C   -0.086457  -0.006575
     5  H   -0.059679  -0.009787
     6  S    0.002854   0.013192
     7  H   -0.002199   0.001679
     8  C    0.064558  -0.009279
     9  S    0.003665  -0.001232
    10  C   -0.001844   0.000491
    11  C    0.020414  -0.000242
    12  C   -0.078541   0.016039
    13  H    0.006930  -0.001704
    14  S   -0.002926   0.000228
    15  C    0.000128  -0.000185
    16  C   -0.000066   0.000696
    17  H   -0.000033   0.000001
    18  H    0.000116   0.000036
    19  O    8.994022   0.373516
    20  H    0.373516   0.614052
 Mulliken charges:
               1
     1  C    0.603618
     2  C    0.269194
     3  C    0.765866
     4  C   -0.313915
     5  H   -0.452847
     6  S    0.430664
     7  H   -0.339966
     8  C    0.233653
     9  S    0.410870
    10  C   -0.797719
    11  C   -0.060901
    12  C    0.096354
    13  H   -0.437747
    14  S    0.616633
    15  C   -0.091038
    16  C    0.521625
    17  H   -0.376736
    18  H   -0.321727
    19  O   -0.921918
    20  H    0.166037
 Sum of Mulliken charges =  -0.00000
 Mulliken charges with hydrogens summed into heavy atoms:
               1
     1  C    0.150771
     2  C    0.269194
     3  C    0.765866
     4  C   -0.653880
     6  S    0.430664
     8  C    0.233653
     9  S    0.410870
    10  C   -0.797719
    11  C   -0.060901
    12  C   -0.341393
    14  S    0.616633
    15  C   -0.467774
    16  C    0.199898
    19  O   -0.755881
 Electronic spatial extent (au):  <R**2>=           4297.7306
 Charge=             -0.0000 electrons
 Dipole moment (field-independent basis, Debye):
    X=              2.1594    Y=              1.0826    Z=              0.7296  Tot=              2.5233
 Quadrupole moment (field-independent basis, Debye-Ang):
   XX=            -77.6080   YY=            -98.5357   ZZ=           -106.8256
   XY=              9.8856   XZ=              0.9705   YZ=              0.5731
 Traceless Quadrupole moment (field-independent basis, Debye-Ang):
   XX=             16.7151   YY=             -4.2126   ZZ=            -12.5025
   XY=              9.8856   XZ=              0.9705   YZ=              0.5731
 Octapole moment (field-independent basis, Debye-Ang**2):
  XXX=             46.0851  YYY=             22.6168  ZZZ=              7.9091  XYY=             20.5463
  XXY=              5.2821  XXZ=             18.5129  XZZ=              9.6614  YZZ=              8.1459
  YYZ=             10.6308  XYZ=             23.6932
 Hexadecapole moment (field-independent basis, Debye-Ang**3):
 XXXX=          -3991.0473 YYYY=           -837.2059 ZZZZ=           -332.6570 XXXY=            120.5301
 XXXZ=             -9.7330 YYYX=             95.6920 YYYZ=             24.5709 ZZZX=             20.9358
 ZZZY=             17.6843 XXYY=           -862.2425 XXZZ=           -897.9424 YYZZ=           -181.3610
 XXYZ=             45.7347 YYXZ=             23.3907 ZZXY=             26.7348
 N-N= 1.127860329429D+03 E-N=-6.163147293149D+03  KE= 1.649568194716D+03
 Calling FoFJK, ICntrl=  10002127 FMM=F ISym2X=0 I1Cent= 0 IOpClX= 0 NMat=1 NMatS=1 NMatT=0.
 ***** Axes restored to original set *****
 -------------------------------------------------------------------
 Center     Atomic                   Forces (Hartrees/Bohr)
 Number     Number              X              Y              Z
 -------------------------------------------------------------------
      1        6          -0.016714082    0.026368455    0.012819293
      2        6           0.038360760    0.017768816    0.007103324
      3        6          -0.028220804   -0.029623557   -0.011578628
      4        6           0.004481931   -0.026193254   -0.012272924
      5        1           0.007013162    0.006245033    0.002732812
      6       16          -0.004907926   -0.006181268   -0.002754615
      7        1           0.008206611   -0.005401252   -0.002715149
      8        6           0.029522341   -0.022679899    0.011380697
      9       16           0.003925145   -0.007388498    0.002985132
     10        6          -0.008011503   -0.037579008    0.019048136
     11        6           0.009984391    0.037288718   -0.018786494
     12        6          -0.030586815    0.020048482   -0.009193721
     13        1           0.003687513    0.009203731   -0.004942863
     14       16          -0.003063160    0.007058961   -0.003484792
     15        6          -0.015058853    0.021818918   -0.011146195
     16        6           0.028188003   -0.018508151    0.009225773
     17        1          -0.010171346    0.000767082   -0.000302771
     18        1          -0.002995482   -0.008736183    0.004477589
     19        8          -0.034477354    0.003383830   -0.002906735
     20        1           0.020837467    0.012339044    0.010312132
 -------------------------------------------------------------------
 Cartesian Forces:  Max     0.038360760 RMS     0.016814629

 GradGradGradGradGradGradGradGradGradGradGradGradGradGradGradGradGradGrad
 Berny optimization.
 FormGI is forming the generalized inverse of G from B-inverse, IUseBI=4.
 Internal  Forces:  Max     0.043098679 RMS     0.009844015
 Search for a local minimum.
 Step number   1 out of a maximum of  116
 All quantities printed in internal units (Hartrees-Bohrs-Radians)
 Mixed Optimization -- RFO/linear search
 Second derivative matrix not updated -- first step.
 ITU=  0
     Eigenvalues ---    0.01486   0.01576   0.01625   0.01707   0.01751
     Eigenvalues ---    0.01757   0.01981   0.02014   0.02061   0.02133
     Eigenvalues ---    0.02213   0.02284   0.02326   0.02336   0.02375
     Eigenvalues ---    0.02442   0.15999   0.16000   0.16000   0.16000
     Eigenvalues ---    0.16000   0.16000   0.22525   0.22566   0.23646
     Eigenvalues ---    0.24761   0.24782   0.24985   0.24994   0.24995
     Eigenvalues ---    0.24999   0.28881   0.29955   0.30321   0.31049
     Eigenvalues ---    0.31164   0.32579   0.35990   0.36045   0.36301
     Eigenvalues ---    0.36340   0.36386   0.36407   0.38875   0.39125
     Eigenvalues ---    0.39394   0.45885   0.50644   0.52567   0.53702
     Eigenvalues ---    0.54270   0.54751   0.594881000.000001000.00000
     Eigenvalues --- 1000.000001000.000001000.000001000.000001000.00000
     Eigenvalues --- 1000.000001000.000001000.000001000.000001000.00000
     Eigenvalues --- 1000.000001000.000001000.000001000.000001000.00000
     Eigenvalues --- 1000.000001000.000001000.000001000.000001000.00000
     Eigenvalues --- 1000.000001000.000001000.000001000.000001000.00000
     Eigenvalues --- 1000.000001000.000001000.000001000.000001000.00000
     Eigenvalues --- 1000.000001000.000001000.000001000.000001000.00000
     Eigenvalues --- 1000.000001000.000001000.000001000.000001000.00000
     Eigenvalues --- 1000.000001000.000001000.000001000.000001000.00000
     Eigenvalues --- 1000.000001000.000001000.000001000.000001000.00000
     Eigenvalues --- 1000.00000
 RFO step:  Lambda=-1.93480352D-02 EMin= 1.48584058D-02
 Linear search not attempted -- first point.
 Iteration  1 RMS(Cart)=  0.02572197 RMS(Int)=  0.00015244
 Iteration  2 RMS(Cart)=  0.00028088 RMS(Int)=  0.00004381
 Iteration  3 RMS(Cart)=  0.00000004 RMS(Int)=  0.00004381
 Iteration  1 RMS(Cart)=  0.00000610 RMS(Int)=  0.00000245
 Iteration  2 RMS(Cart)=  0.00000334 RMS(Int)=  0.00000274
 Iteration  3 RMS(Cart)=  0.00000183 RMS(Int)=  0.00000310
 Iteration  4 RMS(Cart)=  0.00000101 RMS(Int)=  0.00000333
 Iteration  5 RMS(Cart)=  0.00000055 RMS(Int)=  0.00000347
 Variable       Old X    -DE/DX   Delta X   Delta X   Delta X     New X
                                 (Linear)    (Quad)   (Total)
    R1        2.71704  -0.00267   0.00000  -0.00402  -0.00396   2.71307
    R2        2.54857   0.03938   0.00000   0.06958   0.06961   2.61818
    R3        2.04098   0.00978   0.00000   0.02579   0.02579   2.06676
    R4        2.55789   0.03993   0.00000   0.07160   0.07162   2.62951
    R5        2.55354   0.02119   0.00000   0.03738   0.03738   2.59092
    R6        3.30536   0.00314   0.00000   0.00730   0.00725   3.31262
    R7        2.77311  -0.00550   0.00000  -0.01447  -0.01447   2.75864
    R8        3.25382   0.00739   0.00000   0.01909   0.01906   3.27288
    R9        2.03483   0.01005   0.00000   0.02624   0.02624   2.06106
   R10        3.33008   0.00581   0.00000   0.01571   0.01565   3.34573
   R11        2.55420   0.03973   0.00000   0.07048   0.07050   2.62470
   R12        3.28196   0.00557   0.00000   0.01482   0.01478   3.29674
   R13        2.57753   0.04310   0.00000   0.08210   0.08217   2.65970
   R14        2.71250  -0.00248   0.00000  -0.00348  -0.00343   2.70907
   R15        2.70842  -0.00394   0.00000  -0.00685  -0.00678   2.70165
   R16        3.28234   0.00561   0.00000   0.01516   0.01513   3.29746
   R17        2.03451   0.01106   0.00000   0.02885   0.02885   2.06335
   R18        3.29692   0.00651   0.00000   0.01695   0.01690   3.31382
   R19        2.54961   0.03882   0.00000   0.06809   0.06810   2.61771
   R20        2.03553   0.01012   0.00000   0.02645   0.02645   2.06198
   R21        2.03613   0.01026   0.00000   0.02684   0.02684   2.06297
   R22        1.78048   0.02618   0.00000   0.04263   0.04263   1.82311
    A1        1.95768  -0.00191   0.00000  -0.00184  -0.00175   1.95593
    A2        2.15907   0.00102   0.00000   0.00126   0.00121   2.16028
    A3        2.16643   0.00089   0.00000   0.00057   0.00053   2.16696
    A4        1.98476  -0.00427   0.00000  -0.01096  -0.01088   1.97387
    A5        2.15565   0.00775   0.00000   0.02632   0.02628   2.18193
    A6        2.14276  -0.00348   0.00000  -0.01537  -0.01541   2.12735
    A7        1.92342   0.00299   0.00000   0.00999   0.00996   1.93338
    A8        2.23093  -0.00161   0.00000  -0.00548  -0.00548   2.22545
    A9        2.12863  -0.00138   0.00000  -0.00462  -0.00462   2.12402
   A10        1.95792   0.00046   0.00000   0.00184   0.00184   1.95976
   A11        2.22141   0.00148   0.00000   0.00859   0.00859   2.23000
   A12        2.10381  -0.00194   0.00000  -0.01044  -0.01044   2.09336
   A13        1.60095   0.00272   0.00000   0.00093   0.00078   1.60173
   A14        2.10262  -0.00301   0.00000  -0.01081  -0.01081   2.09181
   A15        2.22213  -0.00073   0.00000  -0.00237  -0.00237   2.21976
   A16        1.95792   0.00374   0.00000   0.01292   0.01289   1.97081
   A17        1.58505   0.00161   0.00000  -0.00215  -0.00231   1.58274
   A18        1.93929   0.00165   0.00000   0.00441   0.00437   1.94366
   A19        2.35362   0.00160   0.00000   0.00151   0.00145   2.35506
   A20        1.99028  -0.00325   0.00000  -0.00591  -0.00582   1.98446
   A21        1.99188  -0.00272   0.00000  -0.00385  -0.00373   1.98815
   A22        1.93951   0.00126   0.00000   0.00305   0.00301   1.94253
   A23        2.35165   0.00146   0.00000   0.00078   0.00071   2.35236
   A24        1.95049  -0.00428   0.00000  -0.01139  -0.01129   1.93920
   A25        2.14909   0.00151   0.00000   0.00217   0.00212   2.15120
   A26        2.18361   0.00277   0.00000   0.00922   0.00917   2.19278
   A27        1.58087   0.00252   0.00000   0.00110   0.00097   1.58184
   A28        1.97699   0.00234   0.00000   0.00807   0.00805   1.98504
   A29        2.08750  -0.00248   0.00000  -0.01135  -0.01134   2.07616
   A30        2.21870   0.00014   0.00000   0.00328   0.00329   2.22199
   A31        1.93713  -0.00288   0.00000  -0.00630  -0.00622   1.93091
   A32        2.18356   0.00155   0.00000   0.00380   0.00376   2.18732
   A33        2.16250   0.00132   0.00000   0.00250   0.00246   2.16496
   A34        1.93344  -0.00474   0.00000  -0.02642  -0.02642   1.90703
    D1       -0.00740  -0.00003   0.00000  -0.00410  -0.00407  -0.01147
    D2        3.14016   0.00009   0.00000  -0.00157  -0.00153   3.13863
    D3        3.13798  -0.00000   0.00000  -0.00157  -0.00156   3.13642
    D4        0.00235   0.00011   0.00000   0.00095   0.00099   0.00334
    D5        0.01079   0.00022   0.00000   0.00424   0.00427   0.01506
    D6       -3.14106   0.00005   0.00000   0.00253   0.00253  -3.13853
    D7       -3.13461   0.00019   0.00000   0.00171   0.00175  -3.13286
    D8       -0.00327   0.00002   0.00000  -0.00000   0.00001  -0.00326
    D9        0.00057  -0.00009   0.00000   0.00213   0.00216   0.00273
   D10        3.12070   0.00015   0.00000  -0.00411  -0.00413   3.11657
   D11        3.13625  -0.00016   0.00000  -0.00020  -0.00013   3.13612
   D12       -0.02680   0.00008   0.00000  -0.00645  -0.00642  -0.03323
   D13       -0.19026   0.00017   0.00000   0.00412   0.00411  -0.18615
   D14        2.95782   0.00029   0.00000   0.00683   0.00684   2.96465
   D15        0.00461   0.00022   0.00000   0.00026   0.00026   0.00487
   D16       -3.11700   0.00000   0.00000   0.00610   0.00615  -3.11085
   D17       -2.18230  -0.00120   0.00000   0.00000  -0.00000  -2.18230
   D18        0.92202  -0.00093   0.00000  -0.00895  -0.00891   0.91311
   D19        0.93555  -0.00088   0.00000  -0.00675  -0.00676   0.92880
   D20       -2.24332  -0.00062   0.00000  -0.01570  -0.01567  -2.25898
   D21       -0.00897  -0.00022   0.00000  -0.00258  -0.00257  -0.01154
   D22       -3.14109  -0.00009   0.00000  -0.00112  -0.00110   3.14099
   D23        3.12154   0.00012   0.00000  -0.00497  -0.00496   3.11658
   D24        0.01196  -0.00004   0.00000   0.00294   0.00297   0.01493
   D25       -3.11209   0.00003   0.00000   0.00684   0.00689  -3.10521
   D26        0.03020  -0.00001   0.00000   0.00654   0.00658   0.03678
   D27       -0.00519   0.00016   0.00000  -0.00189  -0.00191  -0.00710
   D28        3.13710   0.00012   0.00000  -0.00220  -0.00221   3.13489
   D29       -0.01569   0.00001   0.00000  -0.00298  -0.00298  -0.01867
   D30        3.12628   0.00002   0.00000  -0.00161  -0.00161   3.12467
   D31        0.01602   0.00008   0.00000   0.00260   0.00260   0.01862
   D32       -3.14076   0.00005   0.00000   0.00204   0.00205  -3.13871
   D33       -3.12587   0.00007   0.00000   0.00154   0.00154  -3.12433
   D34        0.00054   0.00004   0.00000   0.00098   0.00099   0.00153
   D35        3.13957  -0.00002   0.00000  -0.00152  -0.00152   3.13805
   D36       -0.00064   0.00000   0.00000  -0.00099  -0.00099  -0.00163
   D37       -0.00164  -0.00001   0.00000  -0.00012  -0.00013  -0.00177
   D38        3.14133   0.00001   0.00000   0.00040   0.00041  -3.14144
   D39       -0.00705  -0.00010   0.00000  -0.00035  -0.00034  -0.00739
   D40        3.13382  -0.00006   0.00000  -0.00004  -0.00003   3.13380
   D41       -3.12870  -0.00004   0.00000   0.00038   0.00038  -3.12832
   D42        0.01217  -0.00000   0.00000   0.00068   0.00069   0.01286
   D43        0.00048  -0.00003   0.00000  -0.00116  -0.00116  -0.00068
   D44        3.12256  -0.00012   0.00000  -0.00193  -0.00192   3.12064
   D45       -0.00146   0.00003   0.00000   0.00112   0.00113  -0.00033
   D46        3.14021  -0.00001   0.00000  -0.00024  -0.00023   3.13998
   D47        0.00199  -0.00001   0.00000  -0.00076  -0.00076   0.00123
   D48       -3.14097  -0.00003   0.00000  -0.00128  -0.00128   3.14094
   D49       -3.13969   0.00003   0.00000   0.00072   0.00073  -3.13896
   D50        0.00054   0.00001   0.00000   0.00021   0.00021   0.00075
         Item               Value     Threshold  Converged?
 Maximum Force            0.043095     0.000450     NO 
 RMS     Force            0.009889     0.000300     NO 
 Maximum Displacement     0.099773     0.001800     NO 
 RMS     Displacement     0.025665     0.001200     NO 
 Predicted change in Energy=-1.004386D-02
 GradGradGradGradGradGradGradGradGradGradGradGradGradGradGradGradGradGrad

                          Input orientation:                          
 ---------------------------------------------------------------------
 Center     Atomic      Atomic             Coordinates (Angstroms)
 Number     Number       Type             X           Y           Z
 ---------------------------------------------------------------------
      1          6           0        3.947515    0.799280    0.232709
      2          6           0        2.544226    1.059255    0.388973
      3          6           0        1.741489    0.029214   -0.091473
      4          6           0        4.186472   -0.433739   -0.352206
      5          1           0        4.732950    1.493005    0.545731
      6         16           0        2.721248   -1.272999   -0.737371
      7          1           0        5.150758   -0.886798   -0.585543
      8          6           0        0.283967   -0.048061   -0.064876
      9         16           0       -0.511095   -1.444614    0.678179
     10          6           0       -2.078929   -0.757351    0.341933
     11          6           0       -1.964892    0.495947   -0.288275
     12          6           0       -0.615667    0.903448   -0.527927
     13          1           0       -0.308112    1.833908   -1.009440
     14         16           0       -3.533903    1.183874   -0.619611
     15          6           0       -4.318498   -0.215418    0.088550
     16          6           0       -3.433937   -1.171642    0.559786
     17          1           0       -5.408668   -0.251411    0.117687
     18          1           0       -3.739786   -2.107198    1.031965
     19          8           0        2.011295    2.196179    0.939589
     20          1           0        2.715569    2.710122    1.352621
 ---------------------------------------------------------------------
                    Distance matrix (angstroms):
                    1          2          3          4          5
     1  C    0.000000
     2  C    1.435697   0.000000
     3  C    2.358951   1.391474   0.000000
     4  C    1.385483   2.339946   2.502049   0.000000
     5  H    1.093684   2.236788   3.390804   2.194828   0.000000
     6  S    2.595983   2.596035   1.752961   1.731932   3.652954
     7  H    2.227148   3.395705   3.564590   1.090668   2.667921
     8  C    3.772019   2.557519   1.459811   3.932029   4.747755
     9  S    5.011258   3.960806   2.799761   4.914335   6.012250
    10  C    6.225195   4.967478   3.924553   6.312036   7.176860
    11  C    5.943063   4.594358   3.740833   6.221550   6.822813
    12  C    4.627316   3.293920   2.551658   4.987934   5.487078
    13  H    4.552334   3.269782   2.881050   5.076954   5.286499
    14  S    7.539628   6.162502   5.426042   7.892552   8.354307
    15  C    8.329308   6.986561   6.067594   8.519181   9.222604
    16  C    7.647048   6.383143   5.352684   7.710179   8.590610
    17  H    9.415697   8.064737   7.158718   9.608369  10.299448
    18  H    8.257180   7.066023   5.989219   8.218392   9.218738
    19  O    2.489971   1.371055   2.414876   3.649192   2.838483
    20  H    2.534406   1.919203   3.197110   3.867022   2.490436
                    6          7          8          9         10
     6  S    0.000000
     7  H    2.464695   0.000000
     8  C    2.809460   4.965907   0.000000
     9  S    3.532884   5.827927   1.770483   0.000000
    10  C    4.946967   7.290085   2.500372   1.744562   0.000000
    11  C    5.028993   7.254849   2.324482   2.610237   1.407452
    12  C    3.989460   6.038208   1.388930   2.641783   2.378244
    13  H    4.347863   6.114016   2.187366   3.692961   3.417108
    14  S    6.721385   8.928168   4.049880   4.210769   2.609573
    15  C    7.166495   9.516930   4.608061   4.044120   2.318095
    16  C    6.291200   8.665443   3.933884   2.937948   1.433578
    17  H    8.238344  10.601874   5.699191   5.071894   3.375415
    18  H    6.750659   9.118524   4.651203   3.314911   2.248706
    19  O    3.918090   4.656931   3.004867   4.436909   5.080400
    20  H    4.498150   4.756517   3.940757   5.303590   6.002672
                   11         12         13         14         15
    11  C    0.000000
    12  C    1.429649   0.000000
    13  H    2.248364   1.091880   0.000000
    14  S    1.744942   2.933112   3.313645   0.000000
    15  C    2.487468   3.916996   4.635571   1.753596   0.000000
    16  C    2.378688   3.664937   4.611571   2.636176   1.385235
    17  H    3.547245   4.972261   5.624469   2.473539   1.091154
    18  H    3.416086   4.610571   5.610351   3.687986   2.191750
    19  O    4.495387   3.275009   3.051164   5.848512   6.826884
    20  H    5.431559   4.230564   3.935699   6.728673   7.722355
                   16         17         18         19         20
    16  C    0.000000
    17  H    2.223025   0.000000
    18  H    1.091678   2.658009   0.000000
    19  O    6.413815   7.856340   7.183489   0.000000
    20  H    7.315266   8.734929   8.061080   0.964746   0.000000
 Stoichiometry    C10H6OS3
 Framework group  C1[X(C10H6OS3)]
 Deg. of freedom    54
 Full point group                 C1      NOp   1
 Largest Abelian subgroup         C1      NOp   1
 Largest concise Abelian subgroup C1      NOp   1
                         Standard orientation:                         
 ---------------------------------------------------------------------
 Center     Atomic      Atomic             Coordinates (Angstroms)
 Number     Number       Type             X           Y           Z
 ---------------------------------------------------------------------
      1          6           0        3.946857    0.813007    0.231014
      2          6           0        2.542875    1.069180    0.387329
      3          6           0        1.742966    0.035882   -0.090835
      4          6           0        4.189191   -0.420424   -0.351638
      5          1           0        4.730382    1.509621    0.542404
      6         16           0        2.726278   -1.264696   -0.734628
      7          1           0        5.154708   -0.871108   -0.584486
      8          6           0        0.285687   -0.045601   -0.063522
      9         16           0       -0.505004   -1.443047    0.682509
     10          6           0       -2.074969   -0.761012    0.345563
     11          6           0       -1.964838    0.491407   -0.287082
     12          6           0       -0.616902    0.902389   -0.528038
     13          1           0       -0.312252    1.832822   -1.011447
     14         16           0       -3.535980    1.174112   -0.619119
     15          6           0       -4.316210   -0.226110    0.092019
     16          6           0       -3.428677   -1.178843    0.564735
     17          1           0       -5.406259   -0.265232    0.121650
     18          1           0       -3.731609   -2.114384    1.038819
     19          8           0        2.006835    2.205593    0.935981
     20          1           0        2.709764    2.722379    1.347756
 ---------------------------------------------------------------------
 Rotational constants (GHZ):           1.2783785           0.2706924           0.2396568
 Standard basis: Aug-CC-pVDZ (5D, 7F)
 There are   416 symmetry adapted cartesian basis functions of A   symmetry.
 There are   388 symmetry adapted basis functions of A   symmetry.
   388 basis functions,   782 primitive gaussians,   416 cartesian basis functions
    61 alpha electrons       61 beta electrons
       nuclear repulsion energy      1119.3650676405 Hartrees.
 NAtoms=   20 NActive=   20 NUniq=   20 SFac= 1.00D+00 NAtFMM=   60 NAOKFM=F Big=F
 Integral buffers will be    131072 words long.
 Raffenetti 1 integral format.
 Two-electron integral symmetry is turned on.
 One-electron integrals computed using PRISM.
 NBasis=   388 RedAO= T EigKep=  3.87D-06  NBF=   388
 NBsUse=   388 1.00D-06 EigRej= -1.00D+00 NBFU=   388
 Initial guess from the checkpoint file:  "/tmp/pbs.4766300[50].pbs/Gau-3427012.chk"
 B after Tr=     0.000000   -0.000000    0.000000
         Rot=    0.999999    0.000212   -0.000480   -0.001249 Ang=   0.16 deg.
 ExpMin= 2.97D-02 ExpMax= 1.11D+05 ExpMxC= 1.07D+03 IAcc=3 IRadAn=         5 AccDes= 0.00D+00
 Harris functional with IExCor=  205 and IRadAn=       5 diagonalized for initial guess.
 HarFok:  IExCor=  205 AccDes= 0.00D+00 IRadAn=         5 IDoV= 1 UseB2=F ITyADJ=14
 ICtDFT=  3500011 ScaDFX=  1.000000  1.000000  1.000000  1.000000
 FoFCou: FMM=F IPFlag=           0 FMFlag=      100000 FMFlg1=           0
         NFxFlg=           0 DoJE=T BraDBF=F KetDBF=T FulRan=T
         wScrn=  0.000000 ICntrl=       500 IOpCl=  0 I1Cent=   200000004 NGrid=           0
         NMat0=    1 NMatS0=      1 NMatT0=    0 NMatD0=    1 NMtDS0=    0 NMtDT0=    0
 Petite list used in FoFCou.
 Requested convergence on RMS density matrix=1.00D-08 within 128 cycles.
 Requested convergence on MAX density matrix=1.00D-06.
 Requested convergence on             energy=1.00D-06.
 No special actions if energy rises.
 SCF Done:  E(RHF) =  -1649.63294151     A.U. after   15 cycles
            NFock= 15  Conv=0.48D-08     -V/T= 2.0006
 ExpMin= 2.97D-02 ExpMax= 1.11D+05 ExpMxC= 1.07D+03 IAcc=3 IRadAn=         5 AccDes= 0.00D+00
 HarFok:  IExCor=  205 AccDes= 0.00D+00 IRadAn=         5 IDoV=-2 UseB2=F ITyADJ=14
 ICtDFT= 12500011 ScaDFX=  1.000000  1.000000  1.000000  1.000000
 GSVD:  LWork=        -884 too small for GESVD, short by        3770 words or        3770 for optimal perf.
 Range of M.O.s used for correlation:    27   388
 NBasis=   388 NAE=    61 NBE=    61 NFC=    26 NFV=     0
 NROrb=    362 NOA=    35 NOB=    35 NVA=   327 NVB=   327

 **** Warning!!: The largest alpha MO coefficient is  0.89970132D+02

 Fully direct method using O(ONN) memory.
 JobTyp=1 Pass  1:  I=  27 to  61 NPSUse=  8 ParTrn=T ParDer=T DoDerP=T.
 Spin components of T(2) and E(2):
     alpha-alpha T2 =       0.1170106602D+00 E2=     -0.2767834981D+00
     alpha-beta  T2 =       0.5697924623D+00 E2=     -0.1434575664D+01
     beta-beta   T2 =       0.1170106602D+00 E2=     -0.2767834981D+00
 ANorm=    0.1343061347D+01
 E2 =    -0.1988142660D+01 EUMP2 =    -0.16516210841660D+04
          IDoAtm=11111111111111111111
          Differentiating once with respect to electric field.
                with respect to dipole field.
          Differentiating once with respect to nuclear coordinates.
 Keep R1 ints in memory in canonical form, NReq=2883857471.
          There are     1 degrees of freedom in the 1st order CPHF.  IDoFFX=0 NUNeed=     1.
 LinEq1:  Iter=  0 NonCon=     1 RMS=2.90D-03 Max=7.20D-02 NDo=     1
 AX will form     1 AO Fock derivatives at one time.
 LinEq1:  Iter=  1 NonCon=     1 RMS=7.12D-04 Max=1.19D-02 NDo=     1
 LinEq1:  Iter=  2 NonCon=     1 RMS=3.69D-04 Max=1.30D-02 NDo=     1
 LinEq1:  Iter=  3 NonCon=     1 RMS=1.02D-04 Max=1.88D-03 NDo=     1
 LinEq1:  Iter=  4 NonCon=     1 RMS=4.16D-05 Max=9.72D-04 NDo=     1
 LinEq1:  Iter=  5 NonCon=     1 RMS=1.76D-05 Max=6.11D-04 NDo=     1
 LinEq1:  Iter=  6 NonCon=     1 RMS=7.52D-06 Max=3.07D-04 NDo=     1
 LinEq1:  Iter=  7 NonCon=     1 RMS=3.71D-06 Max=1.62D-04 NDo=     1
 LinEq1:  Iter=  8 NonCon=     1 RMS=1.38D-06 Max=4.74D-05 NDo=     1
 LinEq1:  Iter=  9 NonCon=     1 RMS=6.21D-07 Max=2.26D-05 NDo=     1
 LinEq1:  Iter= 10 NonCon=     1 RMS=2.32D-07 Max=4.52D-06 NDo=     1
 LinEq1:  Iter= 11 NonCon=     1 RMS=1.04D-07 Max=4.05D-06 NDo=     1
 LinEq1:  Iter= 12 NonCon=     1 RMS=3.97D-08 Max=7.49D-07 NDo=     1
 LinEq1:  Iter= 13 NonCon=     1 RMS=1.58D-08 Max=3.67D-07 NDo=     1
 LinEq1:  Iter= 14 NonCon=     1 RMS=5.29D-09 Max=9.33D-08 NDo=     1
 LinEq1:  Iter= 15 NonCon=     1 RMS=2.30D-09 Max=6.41D-08 NDo=     1
 LinEq1:  Iter= 16 NonCon=     1 RMS=8.96D-10 Max=2.46D-08 NDo=     1
 LinEq1:  Iter= 17 NonCon=     1 RMS=3.88D-10 Max=1.09D-08 NDo=     1
 LinEq1:  Iter= 18 NonCon=     1 RMS=1.35D-10 Max=2.23D-09 NDo=     1
 LinEq1:  Iter= 19 NonCon=     0 RMS=4.50D-11 Max=6.49D-10 NDo=     1
 Linear equations converged to 1.000D-10 1.000D-09 after    19 iterations.
 End of Minotr F.D. properties file   721 does not exist.
 End of Minotr F.D. properties file   722 does not exist.
 End of Minotr F.D. properties file   788 does not exist.
 Calling FoFJK, ICntrl=  10002127 FMM=F ISym2X=0 I1Cent= 0 IOpClX= 0 NMat=1 NMatS=1 NMatT=0.
 ***** Axes restored to original set *****
 -------------------------------------------------------------------
 Center     Atomic                   Forces (Hartrees/Bohr)
 Number     Number              X              Y              Z
 -------------------------------------------------------------------
      1        6          -0.008089689    0.003791913    0.002028763
      2        6           0.015438625   -0.000283394   -0.001916077
      3        6          -0.007121820   -0.006120166   -0.001205304
      4        6           0.002516850   -0.003862549   -0.001727687
      5        1           0.000673330   -0.000812858   -0.000381742
      6       16          -0.000062270    0.004659720    0.002490523
      7        1          -0.000235701   -0.000015267    0.000028846
      8        6           0.006962213   -0.002116544    0.001684368
      9       16          -0.001249802    0.003206063   -0.002660047
     10        6          -0.006108926   -0.007966653    0.004010352
     11        6           0.006036631    0.007727250   -0.003737670
     12        6          -0.008673139    0.001543073    0.000183920
     13        1           0.001271848   -0.000691156    0.000239538
     14       16           0.000934589   -0.003637191    0.001794474
     15        6          -0.003414630    0.002245308   -0.001119980
     16        6           0.007071248   -0.000111314   -0.000130111
     17        1          -0.000035997    0.000152109   -0.000021849
     18        1          -0.000888759    0.000474708   -0.000240073
     19        8          -0.008097222    0.001418077    0.000103900
     20        1           0.003072622    0.000398872    0.000575856
 -------------------------------------------------------------------
 Cartesian Forces:  Max     0.015438625 RMS     0.004112093

 GradGradGradGradGradGradGradGradGradGradGradGradGradGradGradGradGradGrad
 Berny optimization.
 Using GEDIIS/GDIIS optimizer.
 FormGI is forming the generalized inverse of G from B-inverse, IUseBI=4.
 Internal  Forces:  Max     0.005360078 RMS     0.001642267
 Search for a local minimum.
 Step number   2 out of a maximum of  116
 All quantities printed in internal units (Hartrees-Bohrs-Radians)
 Mixed Optimization -- RFO/linear search
 Update second derivatives using D2CorX and points    1    2
 DE= -1.02D-02 DEPred=-1.00D-02 R= 1.02D+00
 TightC=F SS=  1.41D+00  RLast= 1.96D-01 DXNew= 5.0454D-01 5.8891D-01
 Trust test= 1.02D+00 RLast= 1.96D-01 DXMaxT set to 5.05D-01
 ITU=  1  0
 Use linear search instead of GDIIS.
     Eigenvalues ---    0.01488   0.01574   0.01623   0.01712   0.01750
     Eigenvalues ---    0.01756   0.01980   0.02013   0.02066   0.02141
     Eigenvalues ---    0.02218   0.02283   0.02326   0.02336   0.02378
     Eigenvalues ---    0.02445   0.15780   0.15999   0.16000   0.16000
     Eigenvalues ---    0.16000   0.16034   0.22507   0.22593   0.23695
     Eigenvalues ---    0.24319   0.24769   0.24908   0.24979   0.24990
     Eigenvalues ---    0.25199   0.28925   0.29935   0.30339   0.31072
     Eigenvalues ---    0.31314   0.32659   0.35878   0.36032   0.36316
     Eigenvalues ---    0.36355   0.36395   0.36736   0.38747   0.39161
     Eigenvalues ---    0.39401   0.45360   0.50382   0.52110   0.53236
     Eigenvalues ---    0.54090   0.54967   0.593481000.000001000.00000
     Eigenvalues --- 1000.000001000.000001000.000001000.000001000.00000
     Eigenvalues --- 1000.000001000.000001000.000001000.000001000.00000
     Eigenvalues --- 1000.000001000.000001000.000001000.000001000.00000
     Eigenvalues --- 1000.000001000.000001000.000001000.000001000.00000
     Eigenvalues --- 1000.000001000.000001000.000001000.000001000.00000
     Eigenvalues --- 1000.000001000.000001000.000001000.000001000.00000
     Eigenvalues --- 1000.000001000.000001000.000001000.000001000.00000
     Eigenvalues --- 1000.000001000.000001000.000001000.000001000.00000
     Eigenvalues --- 1000.000001000.000001000.000001000.000001000.00000
     Eigenvalues --- 1000.000001000.000001000.000001000.000001000.00000
     Eigenvalues --- 1000.00000
 RFO step:  Lambda=-9.40155160D-04 EMin= 1.48775406D-02
 Quartic linear search produced a step of  0.10868.
 Iteration  1 RMS(Cart)=  0.02063321 RMS(Int)=  0.00019376
 Iteration  2 RMS(Cart)=  0.00025346 RMS(Int)=  0.00002521
 Iteration  3 RMS(Cart)=  0.00000003 RMS(Int)=  0.00002521
 Iteration  1 RMS(Cart)=  0.00001421 RMS(Int)=  0.00000570
 Iteration  2 RMS(Cart)=  0.00000777 RMS(Int)=  0.00000636
 Iteration  3 RMS(Cart)=  0.00000425 RMS(Int)=  0.00000719
 Iteration  4 RMS(Cart)=  0.00000232 RMS(Int)=  0.00000774
 Iteration  5 RMS(Cart)=  0.00000127 RMS(Int)=  0.00000806
 Iteration  6 RMS(Cart)=  0.00000069 RMS(Int)=  0.00000824
 Variable       Old X    -DE/DX   Delta X   Delta X   Delta X     New X
                                 (Linear)    (Quad)   (Total)
    R1        2.71307  -0.00527  -0.00043  -0.01439  -0.01482   2.69825
    R2        2.61818   0.00288   0.00756   0.00178   0.00934   2.62752
    R3        2.06676  -0.00014   0.00280  -0.00182   0.00098   2.06775
    R4        2.62951   0.00442   0.00778   0.00498   0.01277   2.64227
    R5        2.59092   0.00373   0.00406   0.00542   0.00948   2.60040
    R6        3.31262  -0.00297   0.00079  -0.01109  -0.01030   3.30232
    R7        2.75864  -0.00195  -0.00157  -0.00519  -0.00676   2.75188
    R8        3.27288  -0.00085   0.00207  -0.00386  -0.00179   3.27109
    R9        2.06106  -0.00021   0.00285  -0.00204   0.00081   2.06187
   R10        3.34573  -0.00107   0.00170  -0.00516  -0.00345   3.34228
   R11        2.62470   0.00395   0.00766   0.00392   0.01159   2.63629
   R12        3.29674  -0.00128   0.00161  -0.00523  -0.00363   3.29311
   R13        2.65970   0.00536   0.00893   0.00714   0.01606   2.67576
   R14        2.70907  -0.00356  -0.00037  -0.00950  -0.00988   2.69919
   R15        2.70165  -0.00352  -0.00074  -0.00907  -0.00981   2.69183
   R16        3.29746  -0.00135   0.00164  -0.00535  -0.00370   3.29376
   R17        2.06335  -0.00034   0.00314  -0.00257   0.00056   2.06392
   R18        3.31382  -0.00131   0.00184  -0.00591  -0.00408   3.30974
   R19        2.61771   0.00255   0.00740   0.00108   0.00848   2.62619
   R20        2.06198   0.00003   0.00287  -0.00133   0.00154   2.06353
   R21        2.06297  -0.00026   0.00292  -0.00224   0.00068   2.06365
   R22        1.82311   0.00270   0.00463   0.00259   0.00722   1.83032
    A1        1.95593   0.00041  -0.00019   0.00225   0.00205   1.95797
    A2        2.16028   0.00095   0.00013   0.00678   0.00691   2.16719
    A3        2.16696  -0.00135   0.00006  -0.00904  -0.00898   2.15797
    A4        1.97387   0.00157  -0.00118   0.00767   0.00650   1.98037
    A5        2.18193   0.00278   0.00286   0.01088   0.01373   2.19566
    A6        2.12735  -0.00435  -0.00167  -0.01854  -0.02022   2.10713
    A7        1.93338  -0.00239   0.00108  -0.01103  -0.00997   1.92341
    A8        2.22545   0.00045  -0.00060   0.00198   0.00132   2.22678
    A9        2.12402   0.00195  -0.00050   0.00861   0.00804   2.13206
   A10        1.95976  -0.00180   0.00020  -0.00900  -0.00881   1.95095
   A11        2.23000   0.00101   0.00093   0.00489   0.00582   2.23582
   A12        2.09336   0.00079  -0.00114   0.00411   0.00298   2.09634
   A13        1.60173   0.00222   0.00009   0.01006   0.01017   1.61190
   A14        2.09181   0.00106  -0.00117   0.00519   0.00392   2.09573
   A15        2.21976   0.00080  -0.00026   0.00356   0.00320   2.22297
   A16        1.97081  -0.00186   0.00140  -0.00961  -0.00827   1.96254
   A17        1.58274   0.00260  -0.00025   0.01109   0.01085   1.59358
   A18        1.94366  -0.00252   0.00047  -0.01125  -0.01079   1.93288
   A19        2.35506   0.00159   0.00016   0.00629   0.00646   2.36152
   A20        1.98446   0.00093  -0.00063   0.00496   0.00432   1.98878
   A21        1.98815   0.00108  -0.00041   0.00525   0.00483   1.99297
   A22        1.94253  -0.00254   0.00033  -0.01087  -0.01053   1.93200
   A23        2.35236   0.00146   0.00008   0.00558   0.00567   2.35803
   A24        1.93920   0.00069  -0.00123   0.00430   0.00308   1.94228
   A25        2.15120  -0.00182   0.00023  -0.01214  -0.01191   2.13930
   A26        2.19278   0.00112   0.00100   0.00783   0.00883   2.20161
   A27        1.58184   0.00230   0.00011   0.00999   0.01011   1.59195
   A28        1.98504  -0.00139   0.00088  -0.00792  -0.00705   1.97799
   A29        2.07616   0.00054  -0.00123   0.00323   0.00200   2.07815
   A30        2.22199   0.00084   0.00036   0.00470   0.00506   2.22704
   A31        1.93091   0.00070  -0.00068   0.00384   0.00315   1.93406
   A32        2.18732   0.00068   0.00041   0.00517   0.00559   2.19290
   A33        2.16496  -0.00138   0.00027  -0.00901  -0.00874   2.15622
   A34        1.90703  -0.00294  -0.00287  -0.01915  -0.02202   1.88501
    D1       -0.01147   0.00010  -0.00044  -0.00340  -0.00383  -0.01529
    D2        3.13863   0.00009  -0.00017  -0.00446  -0.00462   3.13401
    D3        3.13642   0.00008  -0.00017   0.00013  -0.00001   3.13641
    D4        0.00334   0.00007   0.00011  -0.00093  -0.00080   0.00253
    D5        0.01506   0.00008   0.00046   0.00327   0.00372   0.01878
    D6       -3.13853  -0.00004   0.00028   0.00237   0.00262  -3.13590
    D7       -3.13286   0.00012   0.00019  -0.00021   0.00000  -3.13286
    D8       -0.00326  -0.00000   0.00000  -0.00112  -0.00110  -0.00436
    D9        0.00273  -0.00025   0.00024   0.00187   0.00207   0.00480
   D10        3.11657   0.00012  -0.00045  -0.01600  -0.01636   3.10021
   D11        3.13612  -0.00020  -0.00001   0.00305   0.00300   3.13912
   D12       -0.03323   0.00016  -0.00070  -0.01481  -0.01544  -0.04866
   D13       -0.18615   0.00016   0.00045   0.00723   0.00768  -0.17848
   D14        2.96465   0.00012   0.00074   0.00594   0.00669   2.97135
   D15        0.00487   0.00027   0.00003   0.00004   0.00011   0.00498
   D16       -3.11085  -0.00005   0.00067   0.01680   0.01747  -3.09338
   D17       -2.18230  -0.00137  -0.00000   0.00000   0.00000  -2.18230
   D18        0.91311  -0.00114  -0.00097  -0.02524  -0.02624   0.88686
   D19        0.92880  -0.00103  -0.00073  -0.01992  -0.02070   0.90809
   D20       -2.25898  -0.00080  -0.00170  -0.04516  -0.04695  -2.30594
   D21       -0.01154  -0.00019  -0.00028  -0.00192  -0.00221  -0.01375
   D22        3.14099  -0.00009  -0.00012  -0.00111  -0.00124   3.13976
   D23        3.11658   0.00019  -0.00054  -0.01041  -0.01088   3.10570
   D24        0.01493  -0.00007   0.00032   0.01114   0.01144   0.02638
   D25       -3.10521  -0.00014   0.00075   0.01354   0.01426  -3.09094
   D26        0.03678  -0.00014   0.00072   0.01562   0.01628   0.05307
   D27       -0.00710   0.00014  -0.00021  -0.00991  -0.01006  -0.01716
   D28        3.13489   0.00013  -0.00024  -0.00783  -0.00804   3.12685
   D29       -0.01867   0.00002  -0.00032  -0.00912  -0.00943  -0.02810
   D30        3.12467  -0.00001  -0.00017  -0.00637  -0.00654   3.11813
   D31        0.01862   0.00005   0.00028   0.00535   0.00561   0.02422
[...]
 ---------------------------------------------------------------------
 Center     Atomic      Atomic             Coordinates (Angstroms)
 Number     Number       Type             X           Y           Z
 ---------------------------------------------------------------------
      1          6           0        3.930194    0.836753    0.267017
      2          6           0        2.531889    1.085808    0.362145
      3          6           0        1.742135    0.038550   -0.127967
      4          6           0        4.204271   -0.413607   -0.279013
      5          1           0        4.707194    1.535186    0.589780
      6         16           0        2.757104   -1.263349   -0.694477
      7          1           0        5.178019   -0.864763   -0.470067
      8          6           0        0.290990   -0.057581   -0.108441
      9         16           0       -0.496939   -1.459585    0.624362
     10          6           0       -2.072788   -0.779779    0.328684
     11          6           0       -1.962505    0.496271   -0.279786
     12          6           0       -0.625080    0.907004   -0.530770
     13          1           0       -0.311266    1.844437   -0.993390
     14         16           0       -3.539549    1.176369   -0.571973
     15          6           0       -4.315805   -0.234301    0.111767
     16          6           0       -3.417273   -1.199579    0.549765
     17          1           0       -5.405285   -0.271534    0.156020
     18          1           0       -3.725773   -2.143142    1.003349
     19          8           0        1.944215    2.224551    0.869978
     20          1           0        2.637365    2.771215    1.267480
 ---------------------------------------------------------------------
 Rotational constants (GHZ):           1.2900902           0.2720386           0.2390661

 **********************************************************************

            Population analysis using the SCF Density.

 **********************************************************************

 Orbital symmetries:
       Occupied  (A) (A) (A) (A) (A) (A) (A) (A) (A) (A) (A) (A)
                 (A) (A) (A) (A) (A) (A) (A) (A) (A) (A) (A) (A)
                 (A) (A) (A) (A) (A) (A) (A) (A) (A) (A) (A) (A)
                 (A) (A) (A) (A) (A) (A) (A) (A) (A) (A) (A) (A)
                 (A) (A) (A) (A) (A) (A) (A) (A) (A) (A) (A) (A)
                 (A)
       Virtual   (A) (A) (A) (A) (A) (A) (A) (A) (A) (A) (A) (A)
                 (A) (A) (A) (A) (A) (A) (A) (A) (A) (A) (A) (A)
                 (A) (A) (A) (A) (A) (A) (A) (A) (A) (A) (A) (A)
                 (A) (A) (A) (A) (A) (A) (A) (A) (A) (A) (A) (A)
                 (A) (A) (A) (A) (A) (A) (A) (A) (A) (A) (A) (A)
                 (A) (A) (A) (A) (A) (A) (A) (A) (A) (A) (A) (A)
                 (A) (A) (A) (A) (A) (A) (A) (A) (A) (A) (A) (A)
                 (A) (A) (A) (A) (A) (A) (A) (A) (A) (A) (A) (A)
                 (A) (A) (A) (A) (A) (A) (A) (A) (A) (A) (A) (A)
                 (A) (A) (A) (A) (A) (A) (A) (A) (A) (A) (A) (A)
                 (A) (A) (A) (A) (A) (A) (A) (A) (A) (A) (A) (A)
                 (A) (A) (A) (A) (A) (A) (A) (A) (A) (A) (A) (A)
                 (A) (A) (A) (A) (A) (A) (A) (A) (A) (A) (A) (A)
                 (A) (A) (A) (A) (A) (A) (A) (A) (A) (A) (A) (A)
                 (A) (A) (A) (A) (A) (A) (A) (A) (A) (A) (A) (A)
                 (A) (A) (A) (A) (A) (A) (A) (A) (A) (A) (A) (A)
                 (A) (A) (A) (A) (A) (A) (A) (A) (A) (A) (A) (A)
                 (A) (A) (A) (A) (A) (A) (A) (A) (A) (A) (A) (A)
                 (A) (A) (A) (A) (A) (A) (A) (A) (A) (A) (A) (A)
                 (A) (A) (A) (A) (A) (A) (A) (A) (A) (A) (A) (A)
                 (A) (A) (A) (A) (A) (A) (A) (A) (A) (A) (A) (A)
                 (A) (A) (A) (A) (A) (A) (A) (A) (A) (A) (A) (A)
                 (A) (A) (A) (A) (A) (A) (A) (A) (A) (A) (A) (A)
                 (A) (A) (A) (A) (A) (A) (A) (A) (A) (A) (A) (A)
                 (A) (A) (A) (A) (A) (A) (A) (A) (A) (A) (A) (A)
                 (A) (A) (A) (A) (A) (A) (A) (A) (A) (A) (A) (A)
                 (A) (A) (A) (A) (A) (A) (A) (A) (A) (A) (A) (A)
                 (A) (A) (A)
 The electronic state is 1-A.
 Alpha  occ. eigenvalues --  -91.99664 -91.99055 -91.98969 -20.61446 -11.32482
 Alpha  occ. eigenvalues --  -11.29264 -11.28950 -11.28053 -11.27760 -11.27591
 Alpha  occ. eigenvalues --  -11.27480 -11.26435 -11.26152 -11.25856  -8.99798
 Alpha  occ. eigenvalues --   -8.99168  -8.99066  -6.67962  -6.67870  -6.67685
 Alpha  occ. eigenvalues --   -6.67333  -6.67253  -6.67230  -6.67146  -6.67057
 Alpha  occ. eigenvalues --   -6.66946  -1.41476  -1.20148  -1.17616  -1.11570
 Alpha  occ. eigenvalues --   -1.02346  -1.01871  -0.98829  -0.94448  -0.93781
 Alpha  occ. eigenvalues --   -0.82467  -0.80368  -0.76349  -0.73736  -0.71990
 Alpha  occ. eigenvalues --   -0.69364  -0.66269  -0.65812  -0.61089  -0.60364
 Alpha  occ. eigenvalues --   -0.58166  -0.56424  -0.55533  -0.54085  -0.52856
 Alpha  occ. eigenvalues --   -0.52571  -0.50563  -0.49554  -0.48546  -0.45905
 Alpha  occ. eigenvalues --   -0.45719  -0.38654  -0.35102  -0.33301  -0.31727
 Alpha  occ. eigenvalues --   -0.27186
 Alpha virt. eigenvalues --    0.02761   0.03743   0.03899   0.05039   0.05083
 Alpha virt. eigenvalues --    0.06225   0.06758   0.08117   0.08483   0.09194
 Alpha virt. eigenvalues --    0.09978   0.10116   0.10495   0.10891   0.11262
 Alpha virt. eigenvalues --    0.12366   0.12608   0.12710   0.12939   0.13370
 Alpha virt. eigenvalues --    0.13719   0.14025   0.14483   0.14805   0.15041
 Alpha virt. eigenvalues --    0.15316   0.15710   0.16516   0.16690   0.16885
 Alpha virt. eigenvalues --    0.17894   0.18059   0.18499   0.18629   0.19195
 Alpha virt. eigenvalues --    0.19946   0.20011   0.20473   0.21218   0.21434
 Alpha virt. eigenvalues --    0.21656   0.22317   0.22873   0.23236   0.23340
 Alpha virt. eigenvalues --    0.23838   0.24403   0.24844   0.25140   0.25492
 Alpha virt. eigenvalues --    0.26744   0.27017   0.27480   0.27622   0.28335
 Alpha virt. eigenvalues --    0.28567   0.29523   0.30732   0.30910   0.31408
 Alpha virt. eigenvalues --    0.31915   0.32120   0.32559   0.32707   0.33163
 Alpha virt. eigenvalues --    0.34127   0.34286   0.34587   0.34920   0.35623
 Alpha virt. eigenvalues --    0.36188   0.36936   0.37625   0.38311   0.38549
 Alpha virt. eigenvalues --    0.39819   0.40574   0.40828   0.41049   0.42300
 Alpha virt. eigenvalues --    0.42983   0.43546   0.44363   0.44893   0.45006
 Alpha virt. eigenvalues --    0.45532   0.46044   0.46943   0.48291   0.48819
 Alpha virt. eigenvalues --    0.49161   0.49322   0.49710   0.50831   0.52001
 Alpha virt. eigenvalues --    0.53165   0.53251   0.53866   0.54389   0.54954
 Alpha virt. eigenvalues --    0.55615   0.57105   0.57998   0.58922   0.59473
 Alpha virt. eigenvalues --    0.59982   0.60592   0.60719   0.61519   0.62405
 Alpha virt. eigenvalues --    0.62965   0.63114   0.64373   0.64785   0.65435
 Alpha virt. eigenvalues --    0.66006   0.66577   0.67083   0.67540   0.67793
 Alpha virt. eigenvalues --    0.68426   0.69021   0.69769   0.69942   0.70999
 Alpha virt. eigenvalues --    0.71205   0.72096   0.72644   0.72819   0.73525
 Alpha virt. eigenvalues --    0.73811   0.74751   0.75237   0.75289   0.75991
 Alpha virt. eigenvalues --    0.76638   0.76831   0.77609   0.78369   0.78874
 Alpha virt. eigenvalues --    0.80553   0.82207   0.83034   0.83834   0.84457
 Alpha virt. eigenvalues --    0.85107   0.85355   0.86430   0.87302   0.87835
 Alpha virt. eigenvalues --    0.88089   0.89184   0.89778   0.90173   0.91114
 Alpha virt. eigenvalues --    0.91682   0.92750   0.93322   0.93981   0.94732
 Alpha virt. eigenvalues --    0.95574   0.96048   0.96446   0.96815   0.97553
 Alpha virt. eigenvalues --    0.98915   1.00179   1.00829   1.01857   1.02564
 Alpha virt. eigenvalues --    1.04096   1.04832   1.05785   1.06515   1.07168
 Alpha virt. eigenvalues --    1.08845   1.10161   1.10222   1.11382   1.12365
 Alpha virt. eigenvalues --    1.12935   1.14003   1.16244   1.16630   1.18162
 Alpha virt. eigenvalues --    1.19645   1.20531   1.21962   1.22118   1.23075
 Alpha virt. eigenvalues --    1.23876   1.24117   1.24847   1.26369   1.27463
 Alpha virt. eigenvalues --    1.28029   1.28269   1.29886   1.31003   1.31551
 Alpha virt. eigenvalues --    1.32407   1.33708   1.34721   1.35938   1.36560
 Alpha virt. eigenvalues --    1.38570   1.39094   1.40224   1.40876   1.42248
 Alpha virt. eigenvalues --    1.42963   1.44199   1.45213   1.46005   1.49148
 Alpha virt. eigenvalues --    1.50548   1.53709   1.54687   1.55471   1.56976
 Alpha virt. eigenvalues --    1.57903   1.58112   1.59761   1.61491   1.61687
 Alpha virt. eigenvalues --    1.62340   1.64235   1.64904   1.66244   1.66963
 Alpha virt. eigenvalues --    1.67676   1.68968   1.69467   1.70778   1.71626
 Alpha virt. eigenvalues --    1.73139   1.73997   1.75325   1.76385   1.76746
 Alpha virt. eigenvalues --    1.79149   1.80189   1.81180   1.82520   1.83197
 Alpha virt. eigenvalues --    1.84748   1.85463   1.86175   1.88224   1.89509
 Alpha virt. eigenvalues --    1.90868   1.91187   1.93358   1.94795   1.95786
 Alpha virt. eigenvalues --    1.98298   1.98684   2.00056   2.02799   2.04124
 Alpha virt. eigenvalues --    2.05964   2.06723   2.06837   2.07762   2.09568
 Alpha virt. eigenvalues --    2.10415   2.12512   2.13321   2.13548   2.14568
 Alpha virt. eigenvalues --    2.14905   2.16662   2.18223   2.19473   2.20650
 Alpha virt. eigenvalues --    2.22842   2.25007   2.25694   2.26473   2.29988
 Alpha virt. eigenvalues --    2.30769   2.31051   2.32525   2.34404   2.35599
 Alpha virt. eigenvalues --    2.38033   2.40344   2.40691   2.42811   2.44469
 Alpha virt. eigenvalues --    2.45005   2.47173   2.48026   2.48899   2.50462
 Alpha virt. eigenvalues --    2.53842   2.56450   2.57897   2.58802   2.64355
 Alpha virt. eigenvalues --    2.70527   2.77083   2.79478   2.81809   2.83688
 Alpha virt. eigenvalues --    2.86509   2.88280   2.94043   2.95791   3.02328
 Alpha virt. eigenvalues --    3.12290   3.13392   3.21034   3.23225   3.32106
 Alpha virt. eigenvalues --    3.36150   3.46922   3.53760   3.58961   3.76211
 Alpha virt. eigenvalues --    3.77135   3.78174   3.85270   3.89442   4.19513
 Alpha virt. eigenvalues --    4.24110   4.43563
          Condensed to atoms (all electrons):
               1          2          3          4          5          6
     1  C    7.726776  -2.207140   0.001950   0.150379  -0.049497  -0.418778
     2  C   -2.207140  10.007425  -1.279022   0.355419   0.130215  -0.301074
     3  C    0.001950  -1.279022  10.708394  -1.166714  -0.004245  -0.213810
     4  C    0.150379   0.355419  -1.166714   6.318055  -0.074206   0.384443
     5  H   -0.049497   0.130215  -0.004245  -0.074206   1.542234  -0.017848
     6  S   -0.418778  -0.301074  -0.213810   0.384443  -0.017848  16.244806
     7  H   -0.066782   0.062405   0.029467   0.279098  -0.063705  -0.140486
     8  C    0.450160  -0.819594  -1.975602   0.224467   0.012698   0.014875
     9  S   -0.030521  -0.016171  -0.605049   0.023262  -0.001841   0.254332
    10  C    0.012771   0.011260  -0.183171   0.011541  -0.000173   0.053692
    11  C   -0.055623  -0.002989   0.322578  -0.008362  -0.001195   0.005182
    12  C   -0.020555   0.328162  -0.231884  -0.084814  -0.000837  -0.345496
    13  H    0.003480  -0.000020   0.075778   0.004962   0.001289   0.008813
    14  S    0.000289   0.010971  -0.069616  -0.000582  -0.000020   0.000839
    15  C   -0.000171  -0.010458   0.027714   0.000465   0.000009   0.003510
    16  C   -0.000541   0.009129  -0.333568  -0.003065  -0.000169   0.015312
    17  H   -0.000024   0.000113  -0.000151   0.000013  -0.000000   0.000099
    18  H   -0.000343   0.000432  -0.007641  -0.000087  -0.000031   0.001153
    19  O    0.101008  -0.704262   0.267691  -0.064639  -0.053690   0.007530
    20  H   -0.139820   0.019448  -0.006286  -0.007639  -0.008492   0.011998
               7          8          9         10         11         12
     1  C   -0.066782   0.450160  -0.030521   0.012771  -0.055623  -0.020555
     2  C    0.062405  -0.819594  -0.016171   0.011260  -0.002989   0.328162
     3  C    0.029467  -1.975602  -0.605049  -0.183171   0.322578  -0.231884
     4  C    0.279098   0.224467   0.023262   0.011541  -0.008362  -0.084814
     5  H   -0.063705   0.012698  -0.001841  -0.000173  -0.001195  -0.000837
     6  S   -0.140486   0.014875   0.254332   0.053692   0.005182  -0.345496
     7  H    1.214546  -0.000723   0.003856   0.001665   0.000124  -0.003096
     8  C   -0.000723  11.006382   0.309400  -0.326719  -0.378020  -2.815798
     9  S    0.003856   0.309400  16.391513   0.320052  -0.442230  -0.471207
    10  C    0.001665  -0.326719   0.320052   9.867595  -0.123880  -0.735259
    11  C    0.000124  -0.378020  -0.442230  -0.123880  10.772860  -2.931990
    12  C   -0.003096  -2.815798  -0.471207  -0.735259  -2.931990  14.470161
    13  H    0.000187   0.370338   0.027137  -0.078915   0.453608  -0.956736
    14  S   -0.000051  -0.254621   0.098453   0.000080  -0.295996   0.001507
    15  C    0.000032   0.049111  -0.092270  -0.166635  -0.762536  -0.072344
    16  C   -0.000090  -0.239442  -0.236570  -2.442008  -0.545358  -0.020311
    17  H    0.000002  -0.000082   0.007274   0.039332  -0.043108   0.034222
    18  H    0.000018   0.082839   0.019034   0.481554   0.041465  -0.062570
    19  O   -0.002145   0.064074   0.002157   0.002731   0.007776  -0.062959
    20  H    0.001445  -0.024279  -0.002165   0.000234   0.002355   0.019533
              13         14         15         16         17         18
     1  C    0.003480   0.000289  -0.000171  -0.000541  -0.000024  -0.000343
     2  C   -0.000020   0.010971  -0.010458   0.009129   0.000113   0.000432
     3  C    0.075778  -0.069616   0.027714  -0.333568  -0.000151  -0.007641
     4  C    0.004962  -0.000582   0.000465  -0.003065   0.000013  -0.000087
     5  H    0.001289  -0.000020   0.000009  -0.000169  -0.000000  -0.000031
     6  S    0.008813   0.000839   0.003510   0.015312   0.000099   0.001153
     7  H    0.000187  -0.000051   0.000032  -0.000090   0.000002   0.000018
     8  C    0.370338  -0.254621   0.049111  -0.239442  -0.000082   0.082839
     9  S    0.027137   0.098453  -0.092270  -0.236570   0.007274   0.019034
    10  C   -0.078915   0.000080  -0.166635  -2.442008   0.039332   0.481554
    11  C    0.453608  -0.295996  -0.762536  -0.545358  -0.043108   0.041465
    12  C   -0.956736   0.001507  -0.072344  -0.020311   0.034222  -0.062570
    13  H    1.553308  -0.045484   0.012831  -0.032823   0.001652  -0.000536
    14  S   -0.045484  15.938398   0.191264  -0.037888  -0.150427  -0.002212
    15  C    0.012831   0.191264   6.504383   0.301756   0.286063  -0.136635
    16  C   -0.032823  -0.037888   0.301756   9.501089  -0.004418  -0.410852
    17  H    0.001652  -0.150427   0.286063  -0.004418   1.240598  -0.060815
    18  H   -0.000536  -0.002212  -0.136635  -0.410852  -0.060815   1.345282
    19  O    0.005692  -0.002971   0.000084   0.000322  -0.000031   0.000109
    20  H   -0.001476   0.000070  -0.000151   0.000600   0.000001   0.000032
              19         20
     1  C    0.101008  -0.139820
     2  C   -0.704262   0.019448
     3  C    0.267691  -0.006286
     4  C   -0.064639  -0.007639
     5  H   -0.053690  -0.008492
     6  S    0.007530   0.011998
     7  H   -0.002145   0.001445
     8  C    0.064074  -0.024279
     9  S    0.002157  -0.002165
    10  C    0.002731   0.000234
    11  C    0.007776   0.002355
    12  C   -0.062959   0.019533
    13  H    0.005692  -0.001476
    14  S   -0.002971   0.000070
    15  C    0.000084  -0.000151
    16  C    0.000322   0.000600
    17  H   -0.000031   0.000001
    18  H    0.000109   0.000032
    19  O    9.033124   0.360835
    20  H    0.360835   0.577126
 Mulliken charges:
               1
     1  C    0.542982
     2  C    0.405753
     3  C    0.643190
     4  C   -0.341997
     5  H   -0.410494
     6  S    0.430909
     7  H   -0.315766
     8  C    0.250534
     9  S    0.441553
    10  C   -0.745748
    11  C   -0.014662
    12  C   -0.037729
    13  H   -0.403085
    14  S    0.617997
    15  C   -0.136020
    16  C    0.478896
    17  H   -0.350312
    18  H   -0.290196
    19  O   -0.962436
    20  H    0.196632
 Sum of Mulliken charges =  -0.00000
 Mulliken charges with hydrogens summed into heavy atoms:
               1
     1  C    0.132489
     2  C    0.405753
     3  C    0.643190
     4  C   -0.657763
     6  S    0.430909
     8  C    0.250534
     9  S    0.441553
    10  C   -0.745748
    11  C   -0.014662
    12  C   -0.440814
    14  S    0.617997
    15  C   -0.486332
    16  C    0.188700
    19  O   -0.765804
 Electronic spatial extent (au):  <R**2>=           4324.4342
 Charge=             -0.0000 electrons
 Dipole moment (field-independent basis, Debye):
    X=              2.2057    Y=              1.0251    Z=              0.7375  Tot=              2.5416
 Quadrupole moment (field-independent basis, Debye-Ang):
   XX=            -78.2939   YY=            -97.6514   ZZ=           -107.7187
   XY=              9.4284   XZ=              1.0851   YZ=              0.4506
 Traceless Quadrupole moment (field-independent basis, Debye-Ang):
   XX=             16.2608   YY=             -3.0967   ZZ=            -13.1640
   XY=              9.4284   XZ=              1.0851   YZ=              0.4506
 Octapole moment (field-independent basis, Debye-Ang**2):
  XXX=             45.9344  YYY=             24.0800  ZZZ=              6.8063  XYY=             21.5998
  XXY=              5.0847  XXZ=             19.4863  XZZ=              8.3917  YZZ=              7.8905
  YYZ=             11.2918  XYZ=             24.2052
 Hexadecapole moment (field-independent basis, Debye-Ang**3):
 XXXX=          -4027.4788 YYYY=           -864.8897 ZZZZ=           -314.2471 XXXY=            105.7459
 XXXZ=             -5.1467 YYYX=             98.8763 YYYZ=             25.0013 ZZZX=             18.9351
 ZZZY=             15.9496 XXYY=           -865.6295 XXZZ=           -912.1090 YYZZ=           -185.9922
 XXYZ=             42.6550 YYXZ=             23.6112 ZZXY=             24.3849
 N-N= 1.120625577541D+03 E-N=-6.147809937567D+03  KE= 1.648687509031D+03
 Unable to Open any file for archive entry.
 1\1\GINC-CX3-12-17\FOpt\RMP2-FC\Aug-CC-pVDZ\C10H6O1S3\NS5018\27-Oct-20
 21\0\\# opt=modredundant mp2/aug-cc-pvdz\\pBTTT_-125.pdb\\0,1\C,3.9394
 594824,0.7987763112,0.2527241258\C,2.5436995381,1.0581622353,0.3571645
 637\C,1.7431240756,0.0228769928,-0.140766383\C,4.2007424097,-0.4476498
 95,-0.3083631343\H,4.7236459353,1.4872278517,0.5795255963\S,2.74474934
 97,-1.280901238,-0.7263809784\H,5.169863622,-0.9045905016,-0.508960630
 5\C,0.2913439629,-0.061622641,-0.115485339\S,-0.5046833646,-1.46518548
 08,0.6054837367\C,-2.076243589,-0.7693108365,0.3247386828\C,-1.9582931
 89,0.5124612885,-0.2701138753\C,-0.6187121702,0.9150248193,-0.52282747
 41\H,-0.2993473415,1.8549358387,-0.976536505\S,-3.5310305274,1.2085979
 493,-0.5473594028\C,-4.3156829285,-0.2031813681,0.1243999463\C,-3.4230
 977041,-1.1805525853,0.5474850767\H,-5.4052165707,-0.2320128027,0.1733
 574322\H,-3.7372401858,-2.1265359407,0.9920650125\O,1.9677399662,2.195
 9637283,0.8802983811\H,2.6671792289,2.7325162748,1.2805511681\\Version
 =ES64L-G16RevC.01\State=1-A\HF=-1649.6301968\MP2=-1651.6218129\RMSD=8.
 225e-09\RMSF=5.659e-04\Dipole=0.6838049,0.332626,0.253619\PG=C01 [X(C1
 0H6O1S3)]\\@
 The archive entry for this job was punched.


 TRUST EVERYONE, BUT CUT THE CARDS.
 Job cpu time:       0 days 16 hours 57 minutes 27.0 seconds.
 Elapsed time:       0 days  2 hours 18 minutes 24.4 seconds.
 File lengths (MBytes):  RWF=    106 Int=      0 D2E=      0 Chk=     16 Scr=      1
 Normal termination of Gaussian 16 at Wed Oct 27 06:26:00 2021.
