 Entering Gaussian System, Link 0=g16
 Input=pBTTT_100.gjf
 Output=pBTTT_100.log
 Initial command:
 /apps/gaussian/g16-c01-avx/g16/l1.exe "/tmp/pbs.4729018[275].pbs/Gau-3401670.inp" -scrdir="/tmp/pbs.4729018[275].pbs/"
 Entering Link 1 = /apps/gaussian/g16-c01-avx/g16/l1.exe PID=   3401672.
  
 Copyright (c) 1988-2019, Gaussian, Inc.  All Rights Reserved.
  
 This is part of the Gaussian(R) 16 program.  It is based on
 the Gaussian(R) 09 system (copyright 2009, Gaussian, Inc.),
 the Gaussian(R) 03 system (copyright 2003, Gaussian, Inc.),
 the Gaussian(R) 98 system (copyright 1998, Gaussian, Inc.),
 the Gaussian(R) 94 system (copyright 1995, Gaussian, Inc.),
 the Gaussian 92(TM) system (copyright 1992, Gaussian, Inc.),
 the Gaussian 90(TM) system (copyright 1990, Gaussian, Inc.),
 the Gaussian 88(TM) system (copyright 1988, Gaussian, Inc.),
 the Gaussian 86(TM) system (copyright 1986, Carnegie Mellon
 University), and the Gaussian 82(TM) system (copyright 1983,
 Carnegie Mellon University). Gaussian is a federally registered
 trademark of Gaussian, Inc.
  
 This software contains proprietary and confidential information,
 including trade secrets, belonging to Gaussian, Inc.
  
 This software is provided under written license and may be
 used, copied, transmitted, or stored only in accord with that
 written license.
  
 The following legend is applicable only to US Government
 contracts under FAR:
  
                    RESTRICTED RIGHTS LEGEND
  
 Use, reproduction and disclosure by the US Government is
 subject to restrictions as set forth in subparagraphs (a)
 and (c) of the Commercial Computer Software - Restricted
 Rights clause in FAR 52.227-19.
  
 Gaussian, Inc.
 340 Quinnipiac St., Bldg. 40, Wallingford CT 06492
  
  
 ---------------------------------------------------------------
 Warning -- This program may not be used in any manner that
 competes with the business of Gaussian, Inc. or will provide
 assistance to any competitor of Gaussian, Inc.  The licensee
 of this program is prohibited from giving any competitor of
 Gaussian, Inc. access to this program.  By using this program,
 the user acknowledges that Gaussian, Inc. is engaged in the
 business of creating and licensing software in the field of
 computational chemistry and represents and warrants to the
 licensee that it is not a competitor of Gaussian, Inc. and that
 it will not use this program in any manner prohibited above.
 ---------------------------------------------------------------
  

 Cite this work as:
 Gaussian 16, Revision C.01,
 M. J. Frisch, G. W. Trucks, H. B. Schlegel, G. E. Scuseria, 
 M. A. Robb, J. R. Cheeseman, G. Scalmani, V. Barone, 
 G. A. Petersson, H. Nakatsuji, X. Li, M. Caricato, A. V. Marenich, 
 J. Bloino, B. G. Janesko, R. Gomperts, B. Mennucci, H. P. Hratchian, 
 J. V. Ortiz, A. F. Izmaylov, J. L. Sonnenberg, D. Williams-Young, 
 F. Ding, F. Lipparini, F. Egidi, J. Goings, B. Peng, A. Petrone, 
 T. Henderson, D. Ranasinghe, V. G. Zakrzewski, J. Gao, N. Rega, 
 G. Zheng, W. Liang, M. Hada, M. Ehara, K. Toyota, R. Fukuda, 
 J. Hasegawa, M. Ishida, T. Nakajima, Y. Honda, O. Kitao, H. Nakai, 
 T. Vreven, K. Throssell, J. A. Montgomery, Jr., J. E. Peralta, 
 F. Ogliaro, M. J. Bearpark, J. J. Heyd, E. N. Brothers, K. N. Kudin, 
 V. N. Staroverov, T. A. Keith, R. Kobayashi, J. Normand, 
 K. Raghavachari, A. P. Rendell, J. C. Burant, S. S. Iyengar, 
 J. Tomasi, M. Cossi, J. M. Millam, M. Klene, C. Adamo, R. Cammi, 
 J. W. Ochterski, R. L. Martin, K. Morokuma, O. Farkas, 
 J. B. Foresman, and D. J. Fox, Gaussian, Inc., Wallingford CT, 2019.
 
 ******************************************
 Gaussian 16:  ES64L-G16RevC.01  3-Jul-2019
                17-Oct-2021 
 ******************************************
 %mem=10GB
 %nprocshared=8
 Will use up to    8 processors via shared memory.
 -------------------------------------
 # opt=modredundant b3lyp/6-311+g(d,p)
 -------------------------------------
 1/18=120,19=15,26=3,38=1/1,3;
 2/9=110,12=2,17=6,18=5,40=1/2;
 3/5=4,6=6,7=111,11=2,25=1,30=1,71=1,74=-5/1,2,3;
 4//1;
 5/5=2,38=5/2;
 6/7=2,8=2,9=2,10=2,28=1/1;
 7//1,2,3,16;
 1/18=20,19=15,26=3/3(2);
 2/9=110/2;
 99//99;
 2/9=110/2;
 3/5=4,6=6,7=111,11=2,25=1,30=1,71=1,74=-5/1,2,3;
 4/5=5,16=3,69=1/1;
 5/5=2,38=5/2;
 7//1,2,3,16;
 1/18=20,19=15,26=3/3(-5);
 2/9=110/2;
 6/7=2,8=2,9=2,10=2,19=2,28=1/1;
 99/9=1/99;
 -------------
 pBTTT_100.pdb
 -------------
 Symbolic Z-matrix:
 Charge =  0 Multiplicity = 1
 C                    -4.25     -1.36     -0.21 
 C                    -2.93     -0.95     -0.61 
 C                    -1.97     -2.05     -0.62 
 C                    -4.33     -2.76      0.1 
 H                    -5.1      -0.7      -0.14 
 S                    -2.8      -3.56     -0.11 
 H                    -5.23     -3.27      0.41 
 C                    -0.56     -2.13     -0.97 
 S                     0.727    -2.131     0.274 
 C                     1.985    -2.249    -0.907 
 C                     1.471    -2.319    -2.252 
 C                     0.04     -2.27     -2.298 
 H                    -0.526    -2.472    -3.195 
 S                     2.551    -3.127    -3.339 
 C                     3.725    -3.383    -2.045 
 C                     3.264    -2.867    -0.777 
 H                     4.59     -4.02     -2.166 
 H                     3.703    -3.163     0.172 
 O                    -2.4       0.49     -0.72 
 H                    -2.92      1.52     -0.76 
 
 Add virtual bond connecting atoms H20        and O19        Dist= 2.18D+00.
 The following ModRedundant input section has been read:
 D       2       3       8       9 F                                           
 

 GradGradGradGradGradGradGradGradGradGradGradGradGradGradGradGradGradGrad
 Berny optimization.
 Initialization pass.
                           ----------------------------
                           !    Initial Parameters    !
                           ! (Angstroms and Degrees)  !
 --------------------------                            --------------------------
 ! Name  Definition              Value          Derivative Info.                !
 --------------------------------------------------------------------------------
 ! R1    R(1,2)                  1.4389         estimate D2E/DX2                !
 ! R2    R(1,4)                  1.4361         estimate D2E/DX2                !
 ! R3    R(1,5)                  1.0784         estimate D2E/DX2                !
 ! R4    R(2,3)                  1.46           estimate D2E/DX2                !
 ! R5    R(2,19)                 1.5384         estimate D2E/DX2                !
 ! R6    R(3,6)                  1.797          estimate D2E/DX2                !
 ! R7    R(3,8)                  1.455          estimate D2E/DX2                !
 ! R8    R(4,6)                  1.7393         estimate D2E/DX2                !
 ! R9    R(4,7)                  1.0799         estimate D2E/DX2                !
 ! R10   R(8,9)                  1.7899         estimate D2E/DX2                !
 ! R11   R(8,12)                 1.464          estimate D2E/DX2                !
 ! R12   R(9,10)                 1.7295         estimate D2E/DX2                !
 ! R13   R(10,11)                1.4416         estimate D2E/DX2                !
 ! R14   R(10,16)                1.4264         estimate D2E/DX2                !
 ! R15   R(11,12)                1.4326         estimate D2E/DX2                !
 ! R16   R(11,14)                1.7323         estimate D2E/DX2                !
 ! R17   R(12,13)                1.0797         estimate D2E/DX2                !
 ! R18   R(14,15)                1.7659         estimate D2E/DX2                !
 ! R19   R(15,16)                1.4445         estimate D2E/DX2                !
 ! R20   R(15,17)                1.081          estimate D2E/DX2                !
 ! R21   R(16,18)                1.0867         estimate D2E/DX2                !
 ! R22   R(19,20)                1.1545         estimate D2E/DX2                !
 ! A1    A(2,1,4)              112.8843         estimate D2E/DX2                !
 ! A2    A(2,1,5)              124.5209         estimate D2E/DX2                !
 ! A3    A(4,1,5)              122.5942         estimate D2E/DX2                !
 ! A4    A(1,2,3)              112.9799         estimate D2E/DX2                !
 ! A5    A(1,2,19)             127.059          estimate D2E/DX2                !
 ! A6    A(3,2,19)             118.5686         estimate D2E/DX2                !
 ! A7    A(2,3,6)              109.1138         estimate D2E/DX2                !
 ! A8    A(2,3,8)              132.8639         estimate D2E/DX2                !
 ! A9    A(6,3,8)              118.0132         estimate D2E/DX2                !
 ! A10   A(1,4,6)              111.9209         estimate D2E/DX2                !
 ! A11   A(1,4,7)              124.6643         estimate D2E/DX2                !
 ! A12   A(6,4,7)              123.4062         estimate D2E/DX2                !
 ! A13   A(3,6,4)               93.0997         estimate D2E/DX2                !
 ! A14   A(3,8,9)              121.9806         estimate D2E/DX2                !
 ! A15   A(3,8,12)             128.363          estimate D2E/DX2                !
 ! A16   A(9,8,12)             109.6156         estimate D2E/DX2                !
 ! A17   A(8,9,10)              92.7773         estimate D2E/DX2                !
 ! A18   A(9,10,11)            112.4            estimate D2E/DX2                !
 ! A19   A(9,10,16)            128.2813         estimate D2E/DX2                !
 ! A20   A(11,10,16)           112.5631         estimate D2E/DX2                !
 ! A21   A(10,11,12)           112.6103         estimate D2E/DX2                !
 ! A22   A(10,11,14)           112.6941         estimate D2E/DX2                !
 ! A23   A(12,11,14)           128.2118         estimate D2E/DX2                !
 ! A24   A(8,12,11)            112.553          estimate D2E/DX2                !
 ! A25   A(8,12,13)            123.8256         estimate D2E/DX2                !
 ! A26   A(11,12,13)           122.9506         estimate D2E/DX2                !
 ! A27   A(11,14,15)            91.2773         estimate D2E/DX2                !
 ! A28   A(14,15,16)           112.2895         estimate D2E/DX2                !
 ! A29   A(14,15,17)           122.3695         estimate D2E/DX2                !
 ! A30   A(16,15,17)           124.3402         estimate D2E/DX2                !
 ! A31   A(10,16,15)           111.1568         estimate D2E/DX2                !
 ! A32   A(10,16,18)           124.0434         estimate D2E/DX2                !
 ! A33   A(15,16,18)           122.7073         estimate D2E/DX2                !
 ! A34   A(2,19,20)            133.0318         estimate D2E/DX2                !
 ! D1    D(4,1,2,3)              0.3915         estimate D2E/DX2                !
 ! D2    D(4,1,2,19)          -165.8104         estimate D2E/DX2                !
 ! D3    D(5,1,2,3)           -179.8811         estimate D2E/DX2                !
 ! D4    D(5,1,2,19)            13.9169         estimate D2E/DX2                !
 ! D5    D(2,1,4,6)             -0.3845         estimate D2E/DX2                !
 ! D6    D(2,1,4,7)           -179.3471         estimate D2E/DX2                !
 ! D7    D(5,1,4,6)            179.8822         estimate D2E/DX2                !
 ! D8    D(5,1,4,7)              0.9196         estimate D2E/DX2                !
 ! D9    D(1,2,3,6)             -0.2224         estimate D2E/DX2                !
 ! D10   D(1,2,3,8)            178.6265         estimate D2E/DX2                !
 ! D11   D(19,2,3,6)           167.2616         estimate D2E/DX2                !
 ! D12   D(19,2,3,8)           -13.8895         estimate D2E/DX2                !
 ! D13   D(1,2,19,20)          -16.0519         estimate D2E/DX2                !
 ! D14   D(3,2,19,20)          178.4264         estimate D2E/DX2                !
 ! D15   D(2,3,6,4)              0.0033         estimate D2E/DX2                !
 ! D16   D(8,3,6,4)           -179.041          estimate D2E/DX2                !
 ! D17   D(2,3,8,9)            100.0167         Frozen                          !
 ! D18   D(2,3,8,12)           -82.5565         estimate D2E/DX2                !
 ! D19   D(6,3,8,9)            -81.2153         estimate D2E/DX2                !
 ! D20   D(6,3,8,12)            96.2114         estimate D2E/DX2                !
 ! D21   D(1,4,6,3)              0.2153         estimate D2E/DX2                !
 ! D22   D(7,4,6,3)            179.1932         estimate D2E/DX2                !
 ! D23   D(3,8,9,10)           179.7814         estimate D2E/DX2                !
 ! D24   D(12,8,9,10)            1.9231         estimate D2E/DX2                !
 ! D25   D(3,8,12,11)         -179.8334         estimate D2E/DX2                !
 ! D26   D(3,8,12,13)           -8.9946         estimate D2E/DX2                !
 ! D27   D(9,8,12,11)           -2.1505         estimate D2E/DX2                !
 ! D28   D(9,8,12,13)          168.6884         estimate D2E/DX2                !
 ! D29   D(8,9,10,11)           -1.2435         estimate D2E/DX2                !
 ! D30   D(8,9,10,16)         -149.8918         estimate D2E/DX2                !
 ! D31   D(9,10,11,12)           0.2007         estimate D2E/DX2                !
 ! D32   D(9,10,11,14)        -154.0188         estimate D2E/DX2                !
 ! D33   D(16,10,11,12)        153.9521         estimate D2E/DX2                !
 ! D34   D(16,10,11,14)         -0.2675         estimate D2E/DX2                !
 ! D35   D(9,10,16,15)         149.7387         estimate D2E/DX2                !
 ! D36   D(9,10,16,18)         -14.1468         estimate D2E/DX2                !
 ! D37   D(11,10,16,15)          1.1316         estimate D2E/DX2                !
 ! D38   D(11,10,16,18)       -162.754          estimate D2E/DX2                !
 ! D39   D(10,11,12,8)           1.2938         estimate D2E/DX2                !
 ! D40   D(10,11,12,13)       -169.6376         estimate D2E/DX2                !
 ! D41   D(14,11,12,8)         150.5851         estimate D2E/DX2                !
 ! D42   D(14,11,12,13)        -20.3463         estimate D2E/DX2                !
 ! D43   D(10,11,14,15)         -0.5126         estimate D2E/DX2                !
 ! D44   D(12,11,14,15)       -149.7831         estimate D2E/DX2                !
 ! D45   D(11,14,15,16)          1.1623         estimate D2E/DX2                !
 ! D46   D(11,14,15,17)        170.1707         estimate D2E/DX2                !
 ! D47   D(14,15,16,10)         -1.5126         estimate D2E/DX2                !
 ! D48   D(14,15,16,18)        162.6252         estimate D2E/DX2                !
 ! D49   D(17,15,16,10)       -170.266          estimate D2E/DX2                !
 ! D50   D(17,15,16,18)         -6.1283         estimate D2E/DX2                !
 --------------------------------------------------------------------------------
 Trust Radius=3.00D-01 FncErr=1.00D-07 GrdErr=1.00D-06 EigMax=2.50D+02 EigMin=1.00D-04
 Number of steps in this run=    116 maximum allowed number of steps=    120.
 GradGradGradGradGradGradGradGradGradGradGradGradGradGradGradGradGradGrad

                          Input orientation:                          
 ---------------------------------------------------------------------
 Center     Atomic      Atomic             Coordinates (Angstroms)
 Number     Number       Type             X           Y           Z
 ---------------------------------------------------------------------
      1          6           0       -4.250000   -1.360000   -0.210000
      2          6           0       -2.930000   -0.950000   -0.610000
      3          6           0       -1.970000   -2.050000   -0.620000
      4          6           0       -4.330000   -2.760000    0.100000
      5          1           0       -5.100000   -0.700000   -0.140000
      6         16           0       -2.800000   -3.560000   -0.110000
      7          1           0       -5.230000   -3.270000    0.410000
      8          6           0       -0.560000   -2.130000   -0.970000
      9         16           0        0.727000   -2.131000    0.274000
     10          6           0        1.985000   -2.249000   -0.907000
     11          6           0        1.471000   -2.319000   -2.252000
     12          6           0        0.040000   -2.270000   -2.298000
     13          1           0       -0.526000   -2.472000   -3.195000
     14         16           0        2.551000   -3.127000   -3.339000
     15          6           0        3.725000   -3.383000   -2.045000
     16          6           0        3.264000   -2.867000   -0.777000
     17          1           0        4.590000   -4.020000   -2.166000
     18          1           0        3.703000   -3.163000    0.172000
     19          8           0       -2.400000    0.490000   -0.720000
     20          1           0       -2.920000    1.520000   -0.760000
 ---------------------------------------------------------------------
                    Distance matrix (angstroms):
                    1          2          3          4          5
     1  C    0.000000
     2  C    1.438923   0.000000
     3  C    2.417147   1.460034   0.000000
     4  C    1.436141   2.395871   2.567509   0.000000
     5  H    1.078425   2.234346   3.442354   2.212261   0.000000
     6  S    2.636759   2.660639   1.796970   1.739253   3.670218
     7  H    2.234480   3.422397   3.630000   1.079907   2.631406
     8  C    3.845335   2.671872   1.454991   3.969219   4.831708
     9  S    5.059568   3.943332   2.842465   5.098938   6.014407
    10  C    6.336510   5.092429   3.970390   6.415169   7.292799
    11  C    6.149739   4.892763   3.817888   6.275188   7.089411
    12  C    4.857154   3.662328   2.627581   5.008733   5.791499
    13  H    4.900505   3.844207   2.982255   5.040871   5.778796
    14  S    7.691978   6.498318   5.384453   7.701271   8.640702
    15  C    8.429732   7.229643   6.020012   8.358958   9.418500
    16  C    7.684578   6.486017   5.299707   7.645222   8.663611
    17  H    9.436479   8.270214   7.021725   9.289174  10.441416
    18  H    8.163758   7.036020   5.835149   8.043425   9.146394
    19  O    2.665539   1.538376   2.578081   3.867790   3.007075
    20  H    3.219596   2.474571   3.696891   4.587603   3.172570
                    6          7          8          9         10
     6  S    0.000000
     7  H    2.501879   0.000000
     8  C    2.793224   5.001290   0.000000
     9  S    3.824817   6.066438   1.789946   0.000000
    10  C    5.024953   7.404941   2.548559   1.729523   0.000000
    11  C    4.936566   7.272829   2.409192   2.639992   1.441569
    12  C    3.810124   6.008840   1.463962   2.665797   2.391307
    13  H    3.983974   5.980004   2.251387   3.704086   3.404379
    14  S    6.264753   8.638253   4.035405   4.168064   2.646859
    15  C    6.808170   9.286109   4.592043   3.991650   2.368248
    16  C    6.139807   8.586001   3.899153   2.843003   1.426417
    17  H    7.684454  10.179915   5.614714   4.944157   3.392278
    18  H    6.521207   8.936811   4.532596   3.151508   2.225120
    19  O    4.115167   4.839773   3.211308   4.199501   5.173521
    20  H    5.122821   5.445099   4.351574   5.263038   6.187568
                   11         12         13         14         15
    11  C    0.000000
    12  C    1.432577   0.000000
    13  H    2.213745   1.079708   0.000000
    14  S    1.732291   2.850132   3.149236   0.000000
    15  C    2.501092   3.857720   4.497046   1.765856   0.000000
    16  C    2.385535   3.614419   4.512965   2.672043   1.444507
    17  H    3.553725   4.876723   5.443216   2.516128   1.081034
    18  H    3.401461   4.507318   5.449643   3.695338   2.227998
    19  O    5.022165   4.007653   4.290798   6.667402   7.366911
    20  H    6.020371   5.048876   5.253239   7.627430   8.357431
                   16         17         18         19         20
    16  C    0.000000
    17  H    2.239867   0.000000
    18  H    1.086710   2.643381   0.000000
    19  O    6.584345   8.443407   7.168450   0.000000
    20  H    7.582078   9.437613   8.164756   1.154513   0.000000
 Stoichiometry    C10H6OS3
 Framework group  C1[X(C10H6OS3)]
 Deg. of freedom    54
 Full point group                 C1      NOp   1
 Largest Abelian subgroup         C1      NOp   1
 Largest concise Abelian subgroup C1      NOp   1
                         Standard orientation:                         
 ---------------------------------------------------------------------
 Center     Atomic      Atomic             Coordinates (Angstroms)
 Number     Number       Type             X           Y           Z
 ---------------------------------------------------------------------
      1          6           0       -4.107515    0.341701   -0.315608
      2          6           0       -2.815560    0.965346   -0.204171
      3          6           0       -1.724805    0.001126   -0.093576
      4          6           0       -4.039893   -1.092508   -0.284447
      5          1           0       -5.038789    0.877484   -0.408700
      6         16           0       -2.403797   -1.662211   -0.130730
      7          1           0       -4.893249   -1.749514   -0.363988
      8          6           0       -0.281024    0.147689    0.011381
      9         16           0        0.572905    0.023951    1.579629
     10          6           0        2.119908    0.291381    0.854016
     11          6           0        2.035739    0.450051   -0.576319
     12          6           0        0.691779    0.354063   -1.062978
     13          1           0        0.451023    0.285023   -2.113234
     14         16           0        3.502421    0.008095   -1.385241
     15          6           0        4.277739   -0.386061    0.151564
     16          6           0        3.390842   -0.199535    1.276385
     17          1           0        5.234074   -0.887199    0.205583
     18          1           0        3.579592   -0.639010    2.252179
     19          8           0       -2.523392    2.444728    0.100242
     20          1           0       -3.173239    3.398508    0.070216
 ---------------------------------------------------------------------
 Rotational constants (GHZ):           1.1601418           0.2542682           0.2499192
 Standard basis: 6-311+G(d,p) (5D, 7F)
 There are   382 symmetry adapted cartesian basis functions of A   symmetry.
 There are   368 symmetry adapted basis functions of A   symmetry.
   368 basis functions,   594 primitive gaussians,   382 cartesian basis functions
    61 alpha electrons       61 beta electrons
       nuclear repulsion energy      1100.4109577905 Hartrees.
 NAtoms=   20 NActive=   20 NUniq=   20 SFac= 1.00D+00 NAtFMM=   60 NAOKFM=F Big=F
 Integral buffers will be    131072 words long.
 Raffenetti 2 integral format.
 Two-electron integral symmetry is turned on.
 One-electron integrals computed using PRISM.
 NBasis=   368 RedAO= T EigKep=  3.57D-06  NBF=   368
 NBsUse=   367 1.00D-06 EigRej=  5.38D-07 NBFU=   367
 ExpMin= 4.05D-02 ExpMax= 9.34D+04 ExpMxC= 3.17D+03 IAcc=3 IRadAn=         5 AccDes= 0.00D+00
 Harris functional with IExCor=  402 and IRadAn=       5 diagonalized for initial guess.
 HarFok:  IExCor=  402 AccDes= 0.00D+00 IRadAn=         5 IDoV= 1 UseB2=F ITyADJ=14
 ICtDFT=  3500011 ScaDFX=  1.000000  1.000000  1.000000  1.000000
 FoFCou: FMM=F IPFlag=           0 FMFlag=      100000 FMFlg1=           0
         NFxFlg=           0 DoJE=T BraDBF=F KetDBF=T FulRan=T
         wScrn=  0.000000 ICntrl=       500 IOpCl=  0 I1Cent=   200000004 NGrid=           0
         NMat0=    1 NMatS0=      1 NMatT0=    0 NMatD0=    1 NMtDS0=    0 NMtDT0=    0
 Petite list used in FoFCou.
 Requested convergence on RMS density matrix=1.00D-08 within 128 cycles.
 Requested convergence on MAX density matrix=1.00D-06.
 Requested convergence on             energy=1.00D-06.
 No special actions if energy rises.
 SCF Done:  E(RB3LYP) =  -1654.53002047     A.U. after   17 cycles
            NFock= 17  Conv=0.55D-08     -V/T= 2.0031

 **********************************************************************

            Population analysis using the SCF Density.

 **********************************************************************

 Orbital symmetries:
       Occupied  (A) (A) (A) (A) (A) (A) (A) (A) (A) (A) (A) (A)
                 (A) (A) (A) (A) (A) (A) (A) (A) (A) (A) (A) (A)
                 (A) (A) (A) (A) (A) (A) (A) (A) (A) (A) (A) (A)
                 (A) (A) (A) (A) (A) (A) (A) (A) (A) (A) (A) (A)
                 (A) (A) (A) (A) (A) (A) (A) (A) (A) (A) (A) (A)
                 (A)
       Virtual   (A) (A) (A) (A) (A) (A) (A) (A) (A) (A) (A) (A)
                 (A) (A) (A) (A) (A) (A) (A) (A) (A) (A) (A) (A)
                 (A) (A) (A) (A) (A) (A) (A) (A) (A) (A) (A) (A)
                 (A) (A) (A) (A) (A) (A) (A) (A) (A) (A) (A) (A)
                 (A) (A) (A) (A) (A) (A) (A) (A) (A) (A) (A) (A)
                 (A) (A) (A) (A) (A) (A) (A) (A) (A) (A) (A) (A)
                 (A) (A) (A) (A) (A) (A) (A) (A) (A) (A) (A) (A)
                 (A) (A) (A) (A) (A) (A) (A) (A) (A) (A) (A) (A)
                 (A) (A) (A) (A) (A) (A) (A) (A) (A) (A) (A) (A)
                 (A) (A) (A) (A) (A) (A) (A) (A) (A) (A) (A) (A)
                 (A) (A) (A) (A) (A) (A) (A) (A) (A) (A) (A) (A)
                 (A) (A) (A) (A) (A) (A) (A) (A) (A) (A) (A) (A)
                 (A) (A) (A) (A) (A) (A) (A) (A) (A) (A) (A) (A)
                 (A) (A) (A) (A) (A) (A) (A) (A) (A) (A) (A) (A)
                 (A) (A) (A) (A) (A) (A) (A) (A) (A) (A) (A) (A)
                 (A) (A) (A) (A) (A) (A) (A) (A) (A) (A) (A) (A)
                 (A) (A) (A) (A) (A) (A) (A) (A) (A) (A) (A) (A)
                 (A) (A) (A) (A) (A) (A) (A) (A) (A) (A) (A) (A)
                 (A) (A) (A) (A) (A) (A) (A) (A) (A) (A) (A) (A)
                 (A) (A) (A) (A) (A) (A) (A) (A) (A) (A) (A) (A)
                 (A) (A) (A) (A) (A) (A) (A) (A) (A) (A) (A) (A)
                 (A) (A) (A) (A) (A) (A) (A) (A) (A) (A) (A) (A)
                 (A) (A) (A) (A) (A) (A) (A) (A) (A) (A) (A) (A)
                 (A) (A) (A) (A) (A) (A) (A) (A) (A) (A) (A) (A)
                 (A) (A) (A) (A) (A) (A) (A) (A) (A) (A) (A) (A)
                 (A) (A) (A) (A) (A) (A)
 The electronic state is 1-A.
 Alpha  occ. eigenvalues --  -88.89621 -88.88873 -88.88330 -19.15794 -10.27434
 Alpha  occ. eigenvalues --  -10.23315 -10.23113 -10.22501 -10.21913 -10.21657
 Alpha  occ. eigenvalues --  -10.21612 -10.20414 -10.20299 -10.20091  -7.98063
 Alpha  occ. eigenvalues --   -7.97396  -7.96856  -5.94358  -5.93997  -5.93707
 Alpha  occ. eigenvalues --   -5.93670  -5.93351  -5.93171  -5.92951  -5.92805
 Alpha  occ. eigenvalues --   -5.92404  -0.97945  -0.90286  -0.87663  -0.83361
 Alpha  occ. eigenvalues --   -0.77161  -0.75181  -0.73876  -0.70755  -0.68602
 Alpha  occ. eigenvalues --   -0.61618  -0.57964  -0.57360  -0.53929  -0.53321
 Alpha  occ. eigenvalues --   -0.51300  -0.48837  -0.45787  -0.44622  -0.42794
 Alpha  occ. eigenvalues --   -0.42062  -0.40409  -0.39785  -0.39279  -0.38650
 Alpha  occ. eigenvalues --   -0.37057  -0.36479  -0.34372  -0.34115  -0.33229
 Alpha  occ. eigenvalues --   -0.32699  -0.28757  -0.25741  -0.23844  -0.23207
 Alpha  occ. eigenvalues --   -0.21315
 Alpha virt. eigenvalues --   -0.06294  -0.05080  -0.04799  -0.01647  -0.00682
 Alpha virt. eigenvalues --   -0.00032   0.00333   0.00957   0.01281   0.01900
 Alpha virt. eigenvalues --    0.02238   0.02964   0.03274   0.03936   0.04139
 Alpha virt. eigenvalues --    0.04370   0.04643   0.05936   0.06118   0.06824
 Alpha virt. eigenvalues --    0.07314   0.07549   0.07799   0.08463   0.09008
 Alpha virt. eigenvalues --    0.09233   0.10405   0.10709   0.10908   0.11306
 Alpha virt. eigenvalues --    0.11628   0.12012   0.12630   0.13119   0.13198
 Alpha virt. eigenvalues --    0.13385   0.14528   0.14717   0.15076   0.15200
 Alpha virt. eigenvalues --    0.15714   0.16340   0.16935   0.17360   0.17480
 Alpha virt. eigenvalues --    0.17693   0.18379   0.18686   0.18961   0.19632
 Alpha virt. eigenvalues --    0.19983   0.20337   0.20787   0.20911   0.21164
 Alpha virt. eigenvalues --    0.21353   0.21905   0.22041   0.22487   0.22932
 Alpha virt. eigenvalues --    0.23052   0.23730   0.23939   0.24298   0.25473
 Alpha virt. eigenvalues --    0.25850   0.26555   0.26905   0.27030   0.28130
 Alpha virt. eigenvalues --    0.28215   0.28881   0.29496   0.30978   0.31607
 Alpha virt. eigenvalues --    0.32439   0.33239   0.34129   0.34379   0.34958
 Alpha virt. eigenvalues --    0.36530   0.36770   0.37744   0.38181   0.39701
 Alpha virt. eigenvalues --    0.41391   0.42348   0.42712   0.43194   0.44956
 Alpha virt. eigenvalues --    0.45215   0.46399   0.47671   0.49849   0.52216
 Alpha virt. eigenvalues --    0.53482   0.55357   0.55447   0.56153   0.57044
 Alpha virt. eigenvalues --    0.57190   0.58250   0.58832   0.60230   0.60725
 Alpha virt. eigenvalues --    0.61531   0.62226   0.63087   0.64638   0.65192
 Alpha virt. eigenvalues --    0.65778   0.67454   0.67936   0.69048   0.69992
 Alpha virt. eigenvalues --    0.70584   0.71114   0.71439   0.72396   0.72920
 Alpha virt. eigenvalues --    0.73441   0.74367   0.74849   0.75418   0.76364
 Alpha virt. eigenvalues --    0.77695   0.79286   0.79709   0.80683   0.80933
 Alpha virt. eigenvalues --    0.81533   0.83104   0.83540   0.84869   0.85850
 Alpha virt. eigenvalues --    0.87175   0.87810   0.89071   0.90181   0.92230
 Alpha virt. eigenvalues --    0.92714   0.93754   0.94482   0.94992   0.97113
 Alpha virt. eigenvalues --    0.97715   0.98433   1.00181   1.00803   1.01284
 Alpha virt. eigenvalues --    1.02963   1.03328   1.04099   1.06611   1.07390
 Alpha virt. eigenvalues --    1.11085   1.12249   1.13856   1.16443   1.18262
 Alpha virt. eigenvalues --    1.21674   1.24962   1.26102   1.28042   1.30290
 Alpha virt. eigenvalues --    1.33364   1.35346   1.38076   1.38983   1.42132
 Alpha virt. eigenvalues --    1.45435   1.46374   1.48564   1.50286   1.52331
 Alpha virt. eigenvalues --    1.52788   1.53501   1.55123   1.57303   1.58295
 Alpha virt. eigenvalues --    1.60953   1.61915   1.63067   1.64839   1.66268
 Alpha virt. eigenvalues --    1.67236   1.68446   1.69851   1.70390   1.71496
 Alpha virt. eigenvalues --    1.72961   1.74869   1.76318   1.77567   1.78761
 Alpha virt. eigenvalues --    1.79749   1.81714   1.82203   1.84455   1.84765
 Alpha virt. eigenvalues --    1.87707   1.89214   1.90122   1.91195   1.91746
 Alpha virt. eigenvalues --    1.94302   1.96055   1.96664   1.98809   1.99532
 Alpha virt. eigenvalues --    2.01858   2.02285   2.03271   2.05371   2.06764
 Alpha virt. eigenvalues --    2.08868   2.09920   2.10756   2.11687   2.13451
 Alpha virt. eigenvalues --    2.14552   2.17422   2.24510   2.28786   2.33190
 Alpha virt. eigenvalues --    2.35149   2.36338   2.36856   2.45221   2.47632
 Alpha virt. eigenvalues --    2.49549   2.52542   2.55622   2.57971   2.65168
 Alpha virt. eigenvalues --    2.67646   2.68590   2.69632   2.71153   2.71821
 Alpha virt. eigenvalues --    2.74031   2.74870   2.76264   2.76797   2.79895
 Alpha virt. eigenvalues --    2.83355   2.86463   2.88671   2.90969   2.92981
 Alpha virt. eigenvalues --    2.94067   2.97956   2.98536   3.01234   3.02844
 Alpha virt. eigenvalues --    3.03733   3.05820   3.07954   3.13150   3.20397
 Alpha virt. eigenvalues --    3.23113   3.23505   3.26204   3.32716   3.36613
 Alpha virt. eigenvalues --    3.39630   3.46198   3.55275   3.63147   3.72387
 Alpha virt. eigenvalues --    3.90506   3.94403   4.01060   4.04599   4.12765
 Alpha virt. eigenvalues --    4.30271   4.41866   5.02490   5.20127   5.44404
 Alpha virt. eigenvalues --    7.93015   7.95110   7.97319  17.28634  17.28994
 Alpha virt. eigenvalues --   17.31462  17.42541  17.43681  17.46648  17.47472
 Alpha virt. eigenvalues --   17.49240  17.51540  23.44860  23.58687  23.71792
 Alpha virt. eigenvalues --   23.77042  23.79647  23.85236  23.86642  23.94139
 Alpha virt. eigenvalues --   23.95319  23.96229  49.86272 189.08986 189.11367
 Alpha virt. eigenvalues --  189.14003
          Condensed to atoms (all electrons):
               1          2          3          4          5          6
     1  C    6.974777  -1.621543   0.264955  -0.215903   0.422054   0.378022
     2  C   -1.621543  11.314517  -2.300702   1.041380  -0.068706  -1.252307
     3  C    0.264955  -2.300702   8.926839  -0.725471   0.016739  -0.007682
     4  C   -0.215903   1.041380  -0.725471   5.795990  -0.015750  -0.042804
     5  H    0.422054  -0.068706   0.016739  -0.015750   0.518007   0.003071
     6  S    0.378022  -1.252307  -0.007682  -0.042804   0.003071  16.777562
     7  H    0.021770  -0.046169   0.017508   0.368692  -0.004448  -0.005201
     8  C    0.018295  -0.675757   0.665814  -0.080738  -0.007193  -0.223570
     9  S   -0.107124   0.453038   0.343605   0.087970  -0.000318  -0.141801
    10  C    0.048534  -0.489120  -0.745836  -0.038605  -0.000193   0.292804
    11  C   -0.060841   0.652344   0.651939   0.067355   0.000149  -0.398453
    12  C    0.231176  -1.367142  -0.941942  -0.170823   0.000096   0.684038
    13  H    0.002812   0.007590   0.022232  -0.000019   0.000001  -0.004983
    14  S    0.004051  -0.002033  -0.015367   0.000213  -0.000007  -0.005707
    15  C    0.000408  -0.004899  -0.030364  -0.001073   0.000002   0.001089
    16  C    0.008670  -0.167630  -0.076885  -0.003897  -0.000022   0.077316
    17  H   -0.000001   0.000030   0.000224   0.000001  -0.000000  -0.000011
    18  H    0.000008   0.000138  -0.000065  -0.000013   0.000000  -0.000265
    19  O   -0.171135   0.541021  -0.192993   0.022743  -0.003346   0.017091
    20  H   -0.046921  -0.034149   0.056640  -0.000868   0.000191  -0.011376
               7          8          9         10         11         12
     1  C    0.021770   0.018295  -0.107124   0.048534  -0.060841   0.231176
     2  C   -0.046169  -0.675757   0.453038  -0.489120   0.652344  -1.367142
     3  C    0.017508   0.665814   0.343605  -0.745836   0.651939  -0.941942
     4  C    0.368692  -0.080738   0.087970  -0.038605   0.067355  -0.170823
     5  H   -0.004448  -0.007193  -0.000318  -0.000193   0.000149   0.000096
     6  S   -0.005201  -0.223570  -0.141801   0.292804  -0.398453   0.684038
     7  H    0.478334   0.000139  -0.000559   0.000149  -0.000135  -0.000133
     8  C    0.000139   8.532172   0.222203  -1.339122   1.374671  -2.401966
     9  S   -0.000559   0.222203  18.106132  -1.809971   2.606691  -3.219092
    10  C    0.000149  -1.339122  -1.809971  14.701140  -6.847749   3.644005
    11  C   -0.000135   1.374671   2.606691  -6.847749  17.636106  -7.631611
    12  C   -0.000133  -2.401966  -3.219092   3.644005  -7.631611  15.819096
    13  H   -0.000000   0.082631   0.012798  -0.053898   0.058869   0.217579
    14  S    0.000005  -0.218497   0.267635   0.301199  -0.731424  -0.008234
    15  C   -0.000002   0.065146   0.015443   0.564987  -0.340559  -0.267058
    16  C    0.000026  -0.338455  -0.529010  -2.601467  -1.133842   1.642127
    17  H    0.000000  -0.002208   0.001719  -0.000856   0.005405   0.006965
    18  H    0.000000   0.006594   0.020264   0.024554  -0.023146  -0.014009
    19  O   -0.000220  -0.074163  -0.019650   0.009386   0.014122   0.034908
    20  H   -0.000017   0.017879   0.007707  -0.002914   0.005377  -0.008896
              13         14         15         16         17         18
     1  C    0.002812   0.004051   0.000408   0.008670  -0.000001   0.000008
     2  C    0.007590  -0.002033  -0.004899  -0.167630   0.000030   0.000138
     3  C    0.022232  -0.015367  -0.030364  -0.076885   0.000224  -0.000065
     4  C   -0.000019   0.000213  -0.001073  -0.003897   0.000001  -0.000013
     5  H    0.000001  -0.000007   0.000002  -0.000022  -0.000000   0.000000
     6  S   -0.004983  -0.005707   0.001089   0.077316  -0.000011  -0.000265
     7  H   -0.000000   0.000005  -0.000002   0.000026   0.000000   0.000000
     8  C    0.082631  -0.218497   0.065146  -0.338455  -0.002208   0.006594
     9  S    0.012798   0.267635   0.015443  -0.529010   0.001719   0.020264
    10  C   -0.053898   0.301199   0.564987  -2.601467  -0.000856   0.024554
    11  C    0.058869  -0.731424  -0.340559  -1.133842   0.005405  -0.023146
    12  C    0.217579  -0.008234  -0.267058   1.642127   0.006965  -0.014009
    13  H    0.518473   0.009289   0.000451  -0.013291  -0.000003   0.000017
    14  S    0.009289  16.590777   0.298821  -0.344393  -0.019263   0.005658
    15  C    0.000451   0.298821   5.587333   0.021926   0.371200   0.012455
    16  C   -0.013291  -0.344393   0.021926   9.357841  -0.009253   0.315010
    17  H   -0.000003  -0.019263   0.371200  -0.009253   0.475299  -0.003597
    18  H    0.000017   0.005658   0.012455   0.315010  -0.003597   0.515107
    19  O   -0.000133  -0.000373   0.000216  -0.001263  -0.000000   0.000000
    20  H   -0.000003   0.000058   0.000001  -0.000064  -0.000000   0.000000
              19         20
     1  C   -0.171135  -0.046921
     2  C    0.541021  -0.034149
     3  C   -0.192993   0.056640
     4  C    0.022743  -0.000868
     5  H   -0.003346   0.000191
     6  S    0.017091  -0.011376
     7  H   -0.000220  -0.000017
     8  C   -0.074163   0.017879
     9  S   -0.019650   0.007707
    10  C    0.009386  -0.002914
    11  C    0.014122   0.005377
    12  C    0.034908  -0.008896
    13  H   -0.000133  -0.000003
    14  S   -0.000373   0.000058
    15  C    0.000216   0.000001
    16  C   -0.001263  -0.000064
    17  H   -0.000000  -0.000000
    18  H    0.000000   0.000000
    19  O    8.011663   0.201262
    20  H    0.201262   0.521453
 Mulliken charges:
               1
     1  C   -0.152065
     2  C    0.020098
     3  C    0.070815
     4  C   -0.088377
     5  H    0.139673
     6  S   -0.136830
     7  H    0.170262
     8  C    0.376125
     9  S   -0.317679
    10  C    0.342974
    11  C    0.094732
    12  C   -0.249086
    13  H    0.139589
    14  S   -0.132408
    15  C   -0.295521
    16  C   -0.203445
    17  H    0.174349
    18  H    0.141288
    19  O   -0.389134
    20  H    0.294641
 Sum of Mulliken charges =  -0.00000
 Mulliken charges with hydrogens summed into heavy atoms:
               1
     1  C   -0.012393
     2  C    0.020098
     3  C    0.070815
     4  C    0.081885
     6  S   -0.136830
     8  C    0.376125
     9  S   -0.317679
    10  C    0.342974
    11  C    0.094732
    12  C   -0.109497
    14  S   -0.132408
    15  C   -0.121173
    16  C   -0.062157
    19  O   -0.094493
 Electronic spatial extent (au):  <R**2>=           4403.4233
 Charge=             -0.0000 electrons
 Dipole moment (field-independent basis, Debye):
    X=             -1.9538    Y=             -0.5637    Z=             -0.4322  Tot=              2.0789
 Quadrupole moment (field-independent basis, Debye-Ang):
   XX=            -80.9148   YY=            -98.0714   ZZ=           -102.6508
   XY=             -8.9991   XZ=              3.3705   YZ=             -1.6131
 Traceless Quadrupole moment (field-independent basis, Debye-Ang):
   XX=             12.9642   YY=             -4.1924   ZZ=             -8.7718
   XY=             -8.9991   XZ=              3.3705   YZ=             -1.6131
 Octapole moment (field-independent basis, Debye-Ang**2):
  XXX=            -65.8041  YYY=             33.8639  ZZZ=              1.6164  XYY=            -49.1313
  XXY=             -3.3044  XXZ=              0.9603  XZZ=             13.8942  YZZ=             -1.2622
  YYZ=              0.0789  XYZ=             -3.8704
 Hexadecapole moment (field-independent basis, Debye-Ang**3):
 XXXX=          -4172.3348 YYYY=           -541.6620 ZZZZ=           -620.8784 XXXY=           -211.7956
 XXXZ=             48.9183 YYYX=           -141.4972 YYYZ=              6.4823 ZZZX=              0.5126
 ZZZY=             -9.8479 XXYY=           -762.5387 XXZZ=           -943.7595 YYZZ=           -237.4687
 XXYZ=             -9.3906 YYXZ=              1.0632 ZZXY=            -19.0314
 N-N= 1.100410957791D+03 E-N=-6.111251569342D+03  KE= 1.649474289596D+03
 Calling FoFJK, ICntrl=      2127 FMM=F ISym2X=0 I1Cent= 0 IOpClX= 0 NMat=1 NMatS=1 NMatT=0.
 ***** Axes restored to original set *****
 -------------------------------------------------------------------
 Center     Atomic                   Forces (Hartrees/Bohr)
 Number     Number              X              Y              Z
 -------------------------------------------------------------------
      1        6           0.015421316   -0.039371732    0.004304576
      2        6           0.027985701    0.020617408    0.013146149
      3        6          -0.036378569    0.030025279    0.000194626
      4        6           0.012112487    0.051222597   -0.015404758
      5        1          -0.000587558    0.001705721    0.000579686
      6       16          -0.006084341    0.024117907   -0.005054600
      7        1           0.002573466   -0.002913102    0.000038186
      8        6           0.032235946   -0.000813323   -0.052199905
      9       16          -0.011076399    0.010211572   -0.006688899
     10        6           0.000933248   -0.020189196   -0.028728330
     11        6          -0.020729706   -0.004084408    0.035751015
     12        6          -0.009537871    0.006182216    0.054375031
     13        1          -0.004826527    0.005225609    0.000761595
     14       16           0.017159148    0.002862587    0.008339130
     15        6          -0.024564975    0.018547267    0.050170516
     16        6           0.009407807   -0.024036489   -0.050022558
     17        1           0.001186352    0.004778226   -0.005425914
     18        1           0.004297443    0.006921653   -0.004286571
     19        8          -0.031047323    0.015026354   -0.003736918
     20        1           0.021520356   -0.106036146    0.003887944
 -------------------------------------------------------------------
 Cartesian Forces:  Max     0.106036146 RMS     0.025587818

 GradGradGradGradGradGradGradGradGradGradGradGradGradGradGradGradGradGrad
 Berny optimization.
 FormGI is forming the generalized inverse of G from B-inverse, IUseBI=4.
 Internal  Forces:  Max     0.104427773 RMS     0.019897751
 Search for a local minimum.
 Step number   1 out of a maximum of  116
 All quantities printed in internal units (Hartrees-Bohrs-Radians)
 Mixed Optimization -- RFO/linear search
 Second derivative matrix not updated -- first step.
 ITU=  0
     Eigenvalues ---    0.00230   0.00994   0.01061   0.01223   0.01273
     Eigenvalues ---    0.01299   0.01362   0.01424   0.01458   0.01496
     Eigenvalues ---    0.01500   0.01592   0.01593   0.01769   0.02198
     Eigenvalues ---    0.02652   0.15081   0.15687   0.15734   0.15997
     Eigenvalues ---    0.16000   0.16000   0.17982   0.22442   0.22526
     Eigenvalues ---    0.23319   0.23976   0.24118   0.24633   0.24977
     Eigenvalues ---    0.24995   0.26145   0.26575   0.28307   0.28334
     Eigenvalues ---    0.28663   0.30910   0.31320   0.31617   0.34829
     Eigenvalues ---    0.35196   0.35870   0.35872   0.36006   0.36030
     Eigenvalues ---    0.36185   0.36334   0.37598   0.38308   0.38435
     Eigenvalues ---    0.39456   0.39699   0.405801000.000001000.00000
     Eigenvalues --- 1000.000001000.000001000.000001000.000001000.00000
     Eigenvalues --- 1000.000001000.000001000.000001000.000001000.00000
     Eigenvalues --- 1000.000001000.000001000.000001000.000001000.00000
     Eigenvalues --- 1000.000001000.000001000.000001000.000001000.00000
     Eigenvalues --- 1000.000001000.000001000.000001000.000001000.00000
     Eigenvalues --- 1000.000001000.000001000.000001000.000001000.00000
     Eigenvalues --- 1000.000001000.000001000.000001000.000001000.00000
     Eigenvalues --- 1000.000001000.000001000.000001000.000001000.00000
     Eigenvalues --- 1000.000001000.000001000.000001000.000001000.00000
     Eigenvalues --- 1000.000001000.000001000.000001000.000001000.00000
     Eigenvalues --- 1000.00000
 RFO step:  Lambda=-1.07088441D-01 EMin= 2.30000000D-03
 Linear search not attempted -- first point.
 Maximum step size (   0.300) exceeded in Quadratic search.
    -- Step size scaled by   0.583
 Iteration  1 RMS(Cart)=  0.06564735 RMS(Int)=  0.00170571
 Iteration  2 RMS(Cart)=  0.00187535 RMS(Int)=  0.00013486
 Iteration  3 RMS(Cart)=  0.00001130 RMS(Int)=  0.00013462
 Iteration  4 RMS(Cart)=  0.00000000 RMS(Int)=  0.00013462
 Iteration  1 RMS(Cart)=  0.00000115 RMS(Int)=  0.00000046
 Iteration  2 RMS(Cart)=  0.00000063 RMS(Int)=  0.00000052
 Variable       Old X    -DE/DX   Delta X   Delta X   Delta X     New X
                                 (Linear)    (Quad)   (Total)
    R1        2.71917  -0.02235   0.00000  -0.02716  -0.02706   2.69211
    R2        2.71391  -0.05440   0.00000  -0.06284  -0.06282   2.65109
    R3        2.03793   0.00154   0.00000   0.00192   0.00192   2.03985
    R4        2.75906  -0.06506   0.00000  -0.08018  -0.08013   2.67894
    R5        2.90711  -0.08848   0.00000  -0.13102  -0.13102   2.77609
    R6        3.39578  -0.02148   0.00000  -0.03252  -0.03258   3.36320
    R7        2.74954  -0.00615   0.00000  -0.00742  -0.00742   2.74212
    R8        3.28671  -0.01318   0.00000  -0.01699  -0.01707   3.26964
    R9        2.04073  -0.00076   0.00000  -0.00095  -0.00095   2.03978
   R10        3.38251  -0.01051   0.00000  -0.01479  -0.01491   3.36760
   R11        2.76649  -0.06429   0.00000  -0.07975  -0.07982   2.68666
   R12        3.26832  -0.00110   0.00000  -0.00058  -0.00055   3.26777
   R13        2.72417  -0.03119   0.00000  -0.03732  -0.03708   2.68709
   R14        2.69554  -0.00193   0.00000  -0.00331  -0.00320   2.69234
   R15        2.70718  -0.01224   0.00000  -0.01519  -0.01512   2.69206
   R16        3.27356   0.00196   0.00000   0.00379   0.00377   3.27733
   R17        2.04035   0.00092   0.00000   0.00115   0.00115   2.04150
   R18        3.33698  -0.01243   0.00000  -0.01728  -0.01742   3.31956
   R19        2.72972  -0.05801   0.00000  -0.06867  -0.06871   2.66101
   R20        2.04286  -0.00126   0.00000  -0.00158  -0.00158   2.04128
   R21        2.05358  -0.00389   0.00000  -0.00494  -0.00494   2.04864
   R22        2.18171  -0.10443   0.00000  -0.15604  -0.15604   2.02568
    A1        1.97020  -0.00309   0.00000  -0.00847  -0.00834   1.96187
    A2        2.17330   0.00073   0.00000   0.00245   0.00238   2.17568
    A3        2.13967   0.00237   0.00000   0.00604   0.00597   2.14564
    A4        1.97187   0.01596   0.00000   0.02418   0.02431   1.99618
    A5        2.21760  -0.00446   0.00000  -0.00500  -0.00513   2.21247
    A6        2.06941  -0.01065   0.00000  -0.01532  -0.01548   2.05393
    A7        1.90440  -0.00636   0.00000  -0.01020  -0.01017   1.89422
    A8        2.31891  -0.00512   0.00000  -0.00847  -0.00848   2.31043
    A9        2.05972   0.01147   0.00000   0.01863   0.01861   2.07833
   A10        1.95339  -0.00168   0.00000  -0.00247  -0.00251   1.95088
   A11        2.17580   0.00473   0.00000   0.00972   0.00974   2.18554
   A12        2.15384  -0.00305   0.00000  -0.00727  -0.00725   2.14660
   A13        1.62490  -0.00483   0.00000  -0.00304  -0.00328   1.62161
   A14        2.12896  -0.00312   0.00000  -0.00472  -0.00473   2.12424
   A15        2.24036  -0.00378   0.00000  -0.00581  -0.00581   2.23455
   A16        1.91315   0.00698   0.00000   0.01086   0.01083   1.92399
   A17        1.61927  -0.00627   0.00000  -0.00769  -0.00762   1.61165
   A18        1.96175  -0.01104   0.00000  -0.01543  -0.01567   1.94608
   A19        2.23893   0.00906   0.00000   0.02182   0.02144   2.26038
   A20        1.96460   0.00580   0.00000   0.00937   0.00942   1.97402
   A21        1.96542   0.00780   0.00000   0.01184   0.01189   1.97731
   A22        1.96688  -0.01334   0.00000  -0.01907  -0.01922   1.94767
   A23        2.23772   0.00898   0.00000   0.02097   0.02060   2.25832
   A24        1.96442   0.00258   0.00000   0.00063   0.00076   1.96518
   A25        2.16116  -0.00569   0.00000  -0.00925  -0.00938   2.15178
   A26        2.14589   0.00369   0.00000   0.01128   0.01114   2.15704
   A27        1.59309   0.00046   0.00000   0.00239   0.00242   1.59551
   A28        1.95982   0.00164   0.00000   0.00152   0.00146   1.96128
   A29        2.13575  -0.00473   0.00000  -0.00817  -0.00832   2.12743
   A30        2.17015   0.00414   0.00000   0.01147   0.01135   2.18150
   A31        1.94005   0.00544   0.00000   0.00578   0.00590   1.94595
   A32        2.16497   0.00004   0.00000   0.00543   0.00513   2.17010
   A33        2.14165  -0.00362   0.00000  -0.00280  -0.00311   2.13854
   A34        2.32184  -0.06225   0.00000  -0.13588  -0.13588   2.18596
    D1        0.00683  -0.00053   0.00000  -0.00212  -0.00210   0.00473
    D2       -2.89394  -0.00359   0.00000  -0.01938  -0.01946  -2.91340
    D3       -3.13952   0.00038   0.00000   0.00246   0.00247  -3.13705
    D4        0.24290  -0.00268   0.00000  -0.01480  -0.01488   0.22801
    D5       -0.00671   0.00027   0.00000   0.00053   0.00048  -0.00624
    D6       -3.13020   0.00044   0.00000   0.00197   0.00196  -3.12824
    D7        3.13954  -0.00061   0.00000  -0.00394  -0.00400   3.13554
    D8        0.01605  -0.00045   0.00000  -0.00250  -0.00251   0.01354
    D9       -0.00388   0.00064   0.00000   0.00282   0.00280  -0.00108
   D10        3.11762   0.00034   0.00000   0.00039   0.00041   3.11803
   D11        2.91927   0.00395   0.00000   0.01944   0.01940   2.93867
   D12       -0.24242   0.00365   0.00000   0.01700   0.01701  -0.22541
   D13       -0.28016   0.00195   0.00000   0.00465   0.00454  -0.27562
   D14        3.11413  -0.00451   0.00000  -0.01829  -0.01818   3.09595
   D15        0.00006  -0.00043   0.00000  -0.00219  -0.00216  -0.00210
   D16       -3.12486  -0.00000   0.00000   0.00013   0.00017  -3.12469
   D17        1.74562  -0.00043   0.00000   0.00000  -0.00000   1.74562
   D18       -1.44088   0.00203   0.00000   0.01070   0.01070  -1.43018
   D19       -1.41747  -0.00093   0.00000  -0.00289  -0.00290  -1.42037
   D20        1.67921   0.00154   0.00000   0.00780   0.00781   1.68702
   D21        0.00376   0.00014   0.00000   0.00105   0.00105   0.00481
   D22        3.12751   0.00007   0.00000  -0.00017  -0.00019   3.12732
   D23        3.13778   0.00060   0.00000   0.00291   0.00291   3.14069
   D24        0.03356  -0.00125   0.00000  -0.00567  -0.00576   0.02781
   D25       -3.13869  -0.00156   0.00000  -0.00607  -0.00601   3.13849
   D26       -0.15698   0.00275   0.00000   0.01318   0.01314  -0.14385
   D27       -0.03753   0.00048   0.00000   0.00329   0.00341  -0.03412
   D28        2.94417   0.00479   0.00000   0.02253   0.02256   2.96673
   D29       -0.02170   0.00210   0.00000   0.00729   0.00721  -0.01449
   D30       -2.61611  -0.00679   0.00000  -0.02733  -0.02742  -2.64353
   D31        0.00350  -0.00178   0.00000  -0.00615  -0.00609  -0.00259
   D32       -2.68813  -0.01072   0.00000  -0.03746  -0.03697  -2.72510
   D33        2.68697   0.00775   0.00000   0.02844   0.02811   2.71508
   D34       -0.00467  -0.00119   0.00000  -0.00286  -0.00277  -0.00744
   D35        2.61343   0.00570   0.00000   0.03085   0.03123   2.64466
   D36       -0.24691  -0.00078   0.00000  -0.00022  -0.00004  -0.24695
   D37        0.01975   0.00104   0.00000   0.00243   0.00237   0.02212
   D38       -2.84059  -0.00543   0.00000  -0.02864  -0.02889  -2.86949
   D39        0.02258   0.00086   0.00000   0.00172   0.00166   0.02424
   D40       -2.96073  -0.00241   0.00000  -0.01516  -0.01538  -2.97611
   D41        2.62821   0.00434   0.00000   0.02568   0.02602   2.65423
   D42       -0.35511   0.00107   0.00000   0.00879   0.00898  -0.34613
   D43       -0.00895   0.00104   0.00000   0.00223   0.00218  -0.00676
   D44       -2.61421  -0.00768   0.00000  -0.02942  -0.02936  -2.64357
   D45        0.02029  -0.00034   0.00000  -0.00071  -0.00073   0.01956
   D46        2.97004   0.00592   0.00000   0.02690   0.02671   2.99675
   D47       -0.02640  -0.00024   0.00000  -0.00071  -0.00064  -0.02704
   D48        2.83834   0.00680   0.00000   0.03140   0.03149   2.86983
   D49       -2.97170  -0.00548   0.00000  -0.02639  -0.02649  -2.99820
   D50       -0.10696   0.00156   0.00000   0.00572   0.00563  -0.10133
         Item               Value     Threshold  Converged?
 Maximum Force            0.104428     0.000450     NO 
 RMS     Force            0.019992     0.000300     NO 
 Maximum Displacement     0.453351     0.001800     NO 
 RMS     Displacement     0.065750     0.001200     NO 
 Predicted change in Energy=-4.967554D-02
 GradGradGradGradGradGradGradGradGradGradGradGradGradGradGradGradGradGrad

                          Input orientation:                          
 ---------------------------------------------------------------------
 Center     Atomic      Atomic             Coordinates (Angstroms)
 Number     Number       Type             X           Y           Z
 ---------------------------------------------------------------------
      1          6           0       -4.211084   -1.329709   -0.219996
      2          6           0       -2.886775   -0.976566   -0.608576
      3          6           0       -1.970840   -2.058557   -0.615110
      4          6           0       -4.333041   -2.693513    0.085432
      5          1           0       -5.038499   -0.638932   -0.161648
      6         16           0       -2.833156   -3.532645   -0.114194
      7          1           0       -5.244819   -3.184000    0.390722
      8          6           0       -0.564761   -2.147615   -0.962394
      9         16           0        0.708961   -2.159299    0.283886
     10          6           0        1.964355   -2.278973   -0.899288
     11          6           0        1.434678   -2.329226   -2.217944
     12          6           0        0.011701   -2.273397   -2.255902
     13          1           0       -0.569605   -2.447003   -3.149784
     14         16           0        2.536010   -3.091715   -3.319502
     15          6           0        3.713368   -3.339080   -2.039499
     16          6           0        3.256731   -2.869160   -0.793089
     17          1           0        4.603062   -3.933050   -2.189423
     18          1           0        3.725790   -3.149741    0.143136
     19          8           0       -2.340162    0.381085   -0.735417
     20          1           0       -2.921914    1.280097   -0.784411
 ---------------------------------------------------------------------
                    Distance matrix (angstroms):
                    1          2          3          4          5
     1  C    0.000000
     2  C    1.424605   0.000000
     3  C    2.388729   1.417634   0.000000
     4  C    1.402897   2.349732   2.544390   0.000000
     5  H    1.079441   2.223433   3.410497   2.186326   0.000000
     6  S    2.600540   2.604003   1.779730   1.730217   3.638594
     7  H    2.209067   3.381085   3.605171   1.079407   2.612480
     8  C    3.809960   2.624556   1.451067   3.949161   4.788700
     9  S    5.014874   3.889045   2.828370   5.074107   5.961821
    10  C    6.284790   5.031326   3.951595   6.387387   7.230062
    11  C    6.071694   4.805696   3.773579   6.221321   6.999105
    12  C    4.781984   3.577236   2.582407   4.953295   5.706303
    13  H    4.805453   3.740215   2.922144   4.968988   5.671780
    14  S    7.631178   6.421026   5.356571   7.676979   8.565125
    15  C    8.375267   7.154782   5.998237   8.347262   9.349454
    16  C    7.646346   6.431068   5.293039   7.642467   8.612983
    17  H    9.399212   8.205945   7.014868   9.304050  10.388589
    18  H    8.150972   7.000984   5.849548   8.071941   9.121941
    19  O    2.587050   1.469044   2.470370   3.754799   2.941202
    20  H    2.965065   2.263775   3.475603   4.305517   2.924113
                    6          7          8          9         10
     6  S    0.000000
     7  H    2.488497   0.000000
     8  C    2.789868   4.980759   0.000000
     9  S    3.819835   6.042262   1.782055   0.000000
    10  C    5.020376   7.379390   2.533311   1.729230   0.000000
    11  C    4.907992   7.221597   2.367942   2.610497   1.421948
    12  C    3.777013   5.955235   1.421722   2.636231   2.377665
    13  H    3.939173   5.910667   2.207789   3.675268   3.393217
    14  S    6.268681   8.620649   4.007751   4.146314   2.616253
    15  C    6.826510   9.283272   4.569697   3.976992   2.341571
    16  C    6.163427   8.589348   3.892698   2.855680   1.424723
    17  H    7.730733  10.207791   5.603550   4.942416   3.370934
    18  H    6.575150   8.974091   4.542608   3.178371   2.224306
    19  O    3.993275   4.734454   3.098047   4.097521   5.062769
    20  H    4.859996   5.167687   4.163780   5.114094   6.046139
                   11         12         13         14         15
    11  C    0.000000
    12  C    1.424578   0.000000
    13  H    2.213447   1.080315   0.000000
    14  S    1.734287   2.858850   3.176366   0.000000
    15  C    2.498814   3.858089   4.513578   1.756636   0.000000
    16  C    2.375209   3.609013   4.513654   2.636615   1.408148
    17  H    3.551298   4.882567   5.466910   2.501525   1.080200
    18  H    3.390743   4.507529   5.457800   3.661804   2.190868
    19  O    4.877817   3.858680   4.118510   6.520345   7.223952
    20  H    5.836277   4.837221   5.001963   7.438304   8.181627
                   16         17         18         19         20
    16  C    0.000000
    17  H    2.212288   0.000000
    18  H    1.084094   2.612281   0.000000
    19  O    6.472452   8.302666   7.073497   0.000000
    20  H    7.442585   9.261546   8.042125   1.071941   0.000000
 Stoichiometry    C10H6OS3
 Framework group  C1[X(C10H6OS3)]
 Deg. of freedom    54
 Full point group                 C1      NOp   1
 Largest Abelian subgroup         C1      NOp   1
 Largest concise Abelian subgroup C1      NOp   1
                         Standard orientation:                         
 ---------------------------------------------------------------------
 Center     Atomic      Atomic             Coordinates (Angstroms)
 Number     Number       Type             X           Y           Z
 ---------------------------------------------------------------------
      1          6           0       -4.065008    0.430009   -0.251775
      2          6           0       -2.759828    0.974167   -0.078875
      3          6           0       -1.718902    0.011835   -0.087629
      4          6           0       -4.048305   -0.965892   -0.390705
      5          1           0       -4.974244    1.011321   -0.275435
      6         16           0       -2.439646   -1.598908   -0.318878
      7          1           0       -4.917929   -1.586731   -0.543776
      8          6           0       -0.277170    0.129492    0.027094
      9         16           0        0.569085   -0.186099    1.563314
     10          6           0        2.113742    0.153614    0.864125
     11          6           0        2.000765    0.482635   -0.514613
     12          6           0        0.659163    0.452699   -0.992764
     13          1           0        0.395210    0.528709   -2.037576
     14         16           0        3.480029    0.177451   -1.366899
     15          6           0        4.263565   -0.378425    0.103761
     16          6           0        3.398480   -0.352830    1.214552
     17          1           0        5.242334   -0.835251    0.091300
     18          1           0        3.617430   -0.879938    2.136222
     19          8           0       -2.425928    2.336715    0.357088
     20          1           0       -3.105901    3.165234    0.372939
 ---------------------------------------------------------------------
 Rotational constants (GHZ):           1.2113436           0.2571352           0.2541074
 Standard basis: 6-311+G(d,p) (5D, 7F)
 There are   382 symmetry adapted cartesian basis functions of A   symmetry.
 There are   368 symmetry adapted basis functions of A   symmetry.
   368 basis functions,   594 primitive gaussians,   382 cartesian basis functions
    61 alpha electrons       61 beta electrons
       nuclear repulsion energy      1112.3079433734 Hartrees.
 NAtoms=   20 NActive=   20 NUniq=   20 SFac= 1.00D+00 NAtFMM=   60 NAOKFM=F Big=F
 Integral buffers will be    131072 words long.
 Raffenetti 2 integral format.
 Two-electron integral symmetry is turned on.
 One-electron integrals computed using PRISM.
 NBasis=   368 RedAO= T EigKep=  3.06D-06  NBF=   368
 NBsUse=   367 1.00D-06 EigRej=  4.70D-07 NBFU=   367
 Initial guess from the checkpoint file:  "/tmp/pbs.4729018[275].pbs/Gau-3401672.chk"
 B after Tr=     0.000000    0.000000   -0.000000
         Rot=    0.998169   -0.060387   -0.001090    0.003163 Ang=  -6.93 deg.
 ExpMin= 4.05D-02 ExpMax= 9.34D+04 ExpMxC= 3.17D+03 IAcc=3 IRadAn=         5 AccDes= 0.00D+00
 Harris functional with IExCor=  402 and IRadAn=       5 diagonalized for initial guess.
 HarFok:  IExCor=  402 AccDes= 0.00D+00 IRadAn=         5 IDoV= 1 UseB2=F ITyADJ=14
 ICtDFT=  3500011 ScaDFX=  1.000000  1.000000  1.000000  1.000000
 FoFCou: FMM=F IPFlag=           0 FMFlag=      100000 FMFlg1=           0
         NFxFlg=           0 DoJE=T BraDBF=F KetDBF=T FulRan=T
         wScrn=  0.000000 ICntrl=       500 IOpCl=  0 I1Cent=   200000004 NGrid=           0
         NMat0=    1 NMatS0=      1 NMatT0=    0 NMatD0=    1 NMtDS0=    0 NMtDT0=    0
 Petite list used in FoFCou.
 Requested convergence on RMS density matrix=1.00D-08 within 128 cycles.
 Requested convergence on MAX density matrix=1.00D-06.
 Requested convergence on             energy=1.00D-06.
 No special actions if energy rises.
 SCF Done:  E(RB3LYP) =  -1654.58328673     A.U. after   14 cycles
            NFock= 14  Conv=0.61D-08     -V/T= 2.0027
 Calling FoFJK, ICntrl=      2127 FMM=F ISym2X=0 I1Cent= 0 IOpClX= 0 NMat=1 NMatS=1 NMatT=0.
 ***** Axes restored to original set *****
 -------------------------------------------------------------------
 Center     Atomic                   Forces (Hartrees/Bohr)
 Number     Number              X              Y              Z
 -------------------------------------------------------------------
      1        6           0.003886769   -0.024735557    0.003040945
      2        6           0.029363392    0.031910627    0.008784937
      3        6          -0.028269325    0.013990177    0.000461975
      4        6           0.006760106    0.030903713   -0.009820721
      5        1          -0.000186663    0.001773392    0.000560075
      6       16          -0.002588607    0.010647863   -0.002767738
      7        1           0.002104917   -0.003146683    0.000212186
      8        6           0.023126952    0.001014363   -0.033757608
      9       16          -0.008389799    0.009176750   -0.001008788
     10        6          -0.001433532   -0.015350510   -0.019041624
     11        6          -0.009687505   -0.006367267    0.024062845
     12        6          -0.008684297    0.003784306    0.033522455
     13        1          -0.003099577    0.004850932    0.000303354
     14       16           0.012652593    0.002818704    0.000867101
     15        6          -0.016074304    0.010080804    0.032793421
     16        6           0.006768831   -0.016268687   -0.030378463
     17        1           0.001145063    0.004056555   -0.004853148
     18        1           0.003580456    0.006688932   -0.001998911
     19        8          -0.034331418    0.012152198   -0.005070475
     20        1           0.023355949   -0.077980612    0.004088182
 -------------------------------------------------------------------
 Cartesian Forces:  Max     0.077980612 RMS     0.018329797

 GradGradGradGradGradGradGradGradGradGradGradGradGradGradGradGradGradGrad
 Berny optimization.
 Using GEDIIS/GDIIS optimizer.
 FormGI is forming the generalized inverse of G from B-inverse, IUseBI=4.
 Internal  Forces:  Max     0.078262822 RMS     0.013462882
 Search for a local minimum.
 Step number   2 out of a maximum of  116
 All quantities printed in internal units (Hartrees-Bohrs-Radians)
 Mixed Optimization -- RFO/linear search
 Update second derivatives using D2CorX and points    1    2
 DE= -5.33D-02 DEPred=-4.97D-02 R= 1.07D+00
 TightC=F SS=  1.41D+00  RLast= 3.19D-01 DXNew= 5.0454D-01 9.5631D-01
 Trust test= 1.07D+00 RLast= 3.19D-01 DXMaxT set to 5.05D-01
 ITU=  1  0
 Use linear search instead of GDIIS.
     Eigenvalues ---    0.00230   0.00996   0.01057   0.01220   0.01271
     Eigenvalues ---    0.01295   0.01344   0.01403   0.01460   0.01489
     Eigenvalues ---    0.01498   0.01589   0.01592   0.01736   0.02112
     Eigenvalues ---    0.02489   0.14374   0.15292   0.15763   0.15828
     Eigenvalues ---    0.15999   0.16027   0.18347   0.20973   0.22462
     Eigenvalues ---    0.22539   0.23392   0.24138   0.24334   0.24982
     Eigenvalues ---    0.25013   0.25649   0.26264   0.26623   0.28379
     Eigenvalues ---    0.28542   0.30897   0.31304   0.31585   0.34868
     Eigenvalues ---    0.35199   0.35870   0.36005   0.36029   0.36082
     Eigenvalues ---    0.36183   0.36404   0.37582   0.38172   0.39300
     Eigenvalues ---    0.39563   0.40509   0.424611000.000001000.00000
     Eigenvalues --- 1000.000001000.000001000.000001000.000001000.00000
     Eigenvalues --- 1000.000001000.000001000.000001000.000001000.00000
     Eigenvalues --- 1000.000001000.000001000.000001000.000001000.00000
     Eigenvalues --- 1000.000001000.000001000.000001000.000001000.00000
     Eigenvalues --- 1000.000001000.000001000.000001000.000001000.00000
     Eigenvalues --- 1000.000001000.000001000.000001000.000001000.00000
     Eigenvalues --- 1000.000001000.000001000.000001000.000001000.00000
     Eigenvalues --- 1000.000001000.000001000.000001000.000001000.00000
     Eigenvalues --- 1000.000001000.000001000.000001000.000001000.00000
     Eigenvalues --- 1000.000001000.000001000.000001000.000001000.00000
     Eigenvalues --- 1000.00000
 RFO step:  Lambda=-8.25313800D-03 EMin= 2.30085634D-03
 Quartic linear search produced a step of  1.40367.
 Iteration  1 RMS(Cart)=  0.09898673 RMS(Int)=  0.01525566
 Iteration  2 RMS(Cart)=  0.01814680 RMS(Int)=  0.00091512
 Iteration  3 RMS(Cart)=  0.00026648 RMS(Int)=  0.00088527
 Iteration  4 RMS(Cart)=  0.00000028 RMS(Int)=  0.00088527
 Iteration  1 RMS(Cart)=  0.00002422 RMS(Int)=  0.00001006
 Iteration  2 RMS(Cart)=  0.00001321 RMS(Int)=  0.00001123
 Iteration  3 RMS(Cart)=  0.00000720 RMS(Int)=  0.00001269
 Iteration  4 RMS(Cart)=  0.00000393 RMS(Int)=  0.00001365
 Iteration  5 RMS(Cart)=  0.00000214 RMS(Int)=  0.00001421
 Iteration  6 RMS(Cart)=  0.00000117 RMS(Int)=  0.00001453
 Iteration  7 RMS(Cart)=  0.00000064 RMS(Int)=  0.00001470
 Variable       Old X    -DE/DX   Delta X   Delta X   Delta X     New X
                                 (Linear)    (Quad)   (Total)
    R1        2.69211  -0.00789  -0.03798   0.03647  -0.00116   2.69095
    R2        2.65109  -0.03000  -0.08818   0.02373  -0.06453   2.58656
    R3        2.03985   0.00131   0.00270   0.00215   0.00485   2.04470
    R4        2.67894  -0.03685  -0.11247   0.02607  -0.08603   2.59291
    R5        2.77609  -0.06484  -0.18391  -0.06105  -0.24495   2.53114
    R6        3.36320  -0.01122  -0.04573   0.02369  -0.02213   3.34107
    R7        2.74212  -0.00049  -0.01041   0.02099   0.01058   2.75270
    R8        3.26964  -0.00676  -0.02397   0.01201  -0.01237   3.25727
    R9        2.03978  -0.00029  -0.00133   0.00124  -0.00009   2.03969
   R10        3.36760  -0.00607  -0.02093   0.00809  -0.01367   3.35392
   R11        2.68666  -0.03959  -0.11204   0.00748  -0.10507   2.58159
   R12        3.26777   0.00219  -0.00078   0.01951   0.01893   3.28670
   R13        2.68709  -0.01854  -0.05204   0.00278  -0.04766   2.63943
   R14        2.69234   0.00042  -0.00449   0.00895   0.00495   2.69728
   R15        2.69206  -0.00433  -0.02122   0.01896  -0.00181   2.69025
   R16        3.27733   0.00359   0.00529   0.01546   0.02082   3.29815
   R17        2.04150   0.00064   0.00161   0.00037   0.00198   2.04348
   R18        3.31956  -0.00705  -0.02446   0.00958  -0.01565   3.30391
   R19        2.66101  -0.03465  -0.09644   0.01167  -0.08515   2.57586
   R20        2.04128  -0.00061  -0.00221   0.00118  -0.00103   2.04025
   R21        2.04864  -0.00191  -0.00694   0.00369  -0.00325   2.04539
   R22        2.02568  -0.07826  -0.21903  -0.08644  -0.30547   1.72021
    A1        1.96187  -0.00123  -0.01170   0.01016  -0.00100   1.96087
    A2        2.17568  -0.00045   0.00334  -0.01207  -0.00902   2.16666
    A3        2.14564   0.00168   0.00838   0.00191   0.01000   2.15564
    A4        1.99618   0.00591   0.03413  -0.03811  -0.00479   1.99140
    A5        2.21247  -0.00390  -0.00720  -0.00515  -0.01480   2.19767
    A6        2.05393  -0.00123  -0.02173   0.05888   0.03504   2.08897
    A7        1.89422  -0.00034  -0.01428   0.03328   0.01958   1.91380
    A8        2.31043  -0.00674  -0.01191  -0.02989  -0.04213   2.26830
    A9        2.07833   0.00708   0.02613  -0.00307   0.02273   2.10106
   A10        1.95088   0.00003  -0.00353   0.01120   0.00752   1.95840
   A11        2.18554   0.00384   0.01367   0.01073   0.02447   2.21001
   A12        2.14660  -0.00388  -0.01017  -0.02190  -0.03199   2.11461
   A13        1.62161  -0.00438  -0.00461  -0.01655  -0.02165   1.59996
   A14        2.12424  -0.00287  -0.00664  -0.00780  -0.01446   2.10977
   A15        2.23455  -0.00215  -0.00816   0.00287  -0.00532   2.22923
   A16        1.92399   0.00507   0.01521   0.00497   0.02008   1.94407
   A17        1.61165  -0.00437  -0.01070  -0.00699  -0.01706   1.59459
   A18        1.94608  -0.00634  -0.02200   0.00981  -0.01320   1.93287
   A19        2.26038   0.00650   0.03010   0.01227   0.03950   2.29987
   A20        1.97402   0.00299   0.01322  -0.00699   0.00597   1.97999
   A21        1.97731   0.00377   0.01668  -0.00947   0.00685   1.98416
   A22        1.94767  -0.00723  -0.02697   0.01622  -0.01178   1.93588
   A23        2.25832   0.00633   0.02892   0.01253   0.03838   2.29670
   A24        1.96518   0.00189   0.00106   0.00181   0.00363   1.96881
   A25        2.15178  -0.00365  -0.01317   0.00477  -0.00935   2.14243
   A26        2.15704   0.00223   0.01564  -0.00405   0.01065   2.16768
   A27        1.59551  -0.00098   0.00339  -0.01644  -0.01235   1.58315
   A28        1.96128   0.00224   0.00205   0.01457   0.01606   1.97735
   A29        2.12743  -0.00475  -0.01168  -0.01863  -0.03139   2.09604
   A30        2.18150   0.00334   0.01593   0.00843   0.02350   2.20500
   A31        1.94595   0.00298   0.00829  -0.00665   0.00240   1.94835
   A32        2.17010  -0.00022   0.00721  -0.00611  -0.00036   2.16974
   A33        2.13854  -0.00132  -0.00436   0.01518   0.00945   2.14799
   A34        2.18596  -0.04605  -0.19073  -0.03844  -0.22917   1.95679
    D1        0.00473  -0.00015  -0.00295   0.02299   0.01993   0.02466
    D2       -2.91340  -0.00436  -0.02732  -0.06757  -0.09358  -3.00697
    D3       -3.13705   0.00073   0.00347   0.02398   0.02707  -3.10997
    D4        0.22801  -0.00349  -0.02089  -0.06658  -0.08644   0.14157
    D5       -0.00624   0.00001   0.00067  -0.00496  -0.00396  -0.01020
    D6       -3.12824   0.00032   0.00275  -0.00646  -0.00370  -3.13193
    D7        3.13554  -0.00085  -0.00561  -0.00592  -0.01105   3.12449
    D8        0.01354  -0.00054  -0.00353  -0.00743  -0.01078   0.00275
    D9       -0.00108   0.00025   0.00393  -0.02949  -0.02581  -0.02689
   D10        3.11803   0.00025   0.00057  -0.01138  -0.01135   3.10668
   D11        2.93867   0.00358   0.02724   0.04494   0.07355   3.01222
   D12       -0.22541   0.00358   0.02388   0.06305   0.08802  -0.13739
   D13       -0.27562   0.00160   0.00638   0.08816   0.09478  -0.18083
   D14        3.09595  -0.00352  -0.02552   0.00614  -0.01963   3.07632
   D15       -0.00210  -0.00019  -0.00303   0.02235   0.01976   0.01765
   D16       -3.12469  -0.00000   0.00023   0.00753   0.00788  -3.11681
   D17        1.74562  -0.00052  -0.00000   0.00000   0.00000   1.74562
   D18       -1.43018   0.00173   0.01503   0.00153   0.01666  -1.41352
   D19       -1.42037  -0.00061  -0.00406   0.01996   0.01564  -1.40473
   D20        1.68702   0.00164   0.01096   0.02150   0.03230   1.71932
   D21        0.00481   0.00012   0.00147  -0.01030  -0.00895  -0.00414
   D22        3.12732  -0.00008  -0.00027  -0.00841  -0.00849   3.11883
   D23        3.14069   0.00062   0.00409   0.00147   0.00550  -3.13700
   D24        0.02781  -0.00117  -0.00808   0.00017  -0.00831   0.01950
   D25        3.13849  -0.00123  -0.00844   0.00371  -0.00461   3.13388
   D26       -0.14385   0.00260   0.01844   0.02257   0.04077  -0.10308
   D27       -0.03412   0.00070   0.00479   0.00489   0.01023  -0.02389
   D28        2.96673   0.00453   0.03167   0.02375   0.05561   3.02234
   D29       -0.01449   0.00154   0.01013  -0.00531   0.00468  -0.00981
   D30       -2.64353  -0.00592  -0.03849  -0.03824  -0.07750  -2.72103
   D31       -0.00259  -0.00120  -0.00855   0.00930   0.00088  -0.00171
   D32       -2.72510  -0.00853  -0.05189  -0.03177  -0.08094  -2.80604
   D33        2.71508   0.00663   0.03946   0.04163   0.07880   2.79388
   D34       -0.00744  -0.00070  -0.00389   0.00056  -0.00302  -0.01046
   D35        2.64466   0.00586   0.04383   0.01891   0.06432   2.70898
   D36       -0.24695  -0.00017  -0.00006   0.00626   0.00731  -0.23964
   D37        0.02212   0.00044   0.00333  -0.01844  -0.01548   0.00664
   D38       -2.86949  -0.00559  -0.04056  -0.03109  -0.07249  -2.94198
   D39        0.02424   0.00036   0.00233  -0.00929  -0.00732   0.01692
   D40       -2.97611  -0.00293  -0.02159  -0.02905  -0.05158  -3.02770
   D41        2.65423   0.00507   0.03652   0.04031   0.07824   2.73246
   D42       -0.34613   0.00178   0.01260   0.02055   0.03397  -0.31216
   D43       -0.00676   0.00077   0.00306   0.01293   0.01556   0.00879
   D44       -2.64357  -0.00634  -0.04121  -0.03008  -0.07206  -2.71562
   D45        0.01956  -0.00046  -0.00102  -0.02353  -0.02480  -0.00524
   D46        2.99675   0.00517   0.03750   0.00503   0.04094   3.03769
   D47       -0.02704   0.00016  -0.00090   0.02774   0.02731   0.00027
   D48        2.86983   0.00623   0.04420   0.03666   0.08187   2.95170
   D49       -2.99820  -0.00477  -0.03719   0.00112  -0.03713  -3.03532
   D50       -0.10133   0.00130   0.00791   0.01004   0.01744  -0.08389
         Item               Value     Threshold  Converged?
 Maximum Force            0.078263     0.000450     NO 
 RMS     Force            0.013527     0.000300     NO 
 Maximum Displacement     0.751919     0.001800     NO 
 RMS     Displacement     0.107864     0.001200     NO 
 Predicted change in Energy=-4.977715D-02
 GradGradGradGradGradGradGradGradGradGradGradGradGradGradGradGradGradGrad

                          Input orientation:                          
 ---------------------------------------------------------------------
 Center     Atomic      Atomic             Coordinates (Angstroms)
 Number     Number       Type             X           Y           Z
 ---------------------------------------------------------------------
      1          6           0       -4.156486   -1.265392   -0.231735
      2          6           0       -2.808861   -0.980420   -0.592909
      3          6           0       -1.985447   -2.077990   -0.595416
      4          6           0       -4.345829   -2.586671    0.071314
      5          1           0       -4.947014   -0.527101   -0.204676
      6         16           0       -2.897433   -3.506671   -0.092380
      7          1           0       -5.273792   -3.053475    0.364561
      8          6           0       -0.575390   -2.189004   -0.943680
      9         16           0        0.672933   -2.240688    0.316876
     10          6           0        1.932361   -2.358049   -0.876879
     11          6           0        1.393342   -2.368258   -2.165366
     12          6           0       -0.027553   -2.284196   -2.191516
     13          1           0       -0.625693   -2.379825   -3.087299
     14         16           0        2.536991   -3.015155   -3.314142
     15          6           0        3.705682   -3.271273   -2.039266
     16          6           0        3.258300   -2.882408   -0.811815
     17          1           0        4.633201   -3.782212   -2.249760
     18          1           0        3.775193   -3.122183    0.108437
     19          8           0       -2.291173    0.237772   -0.797986
     20          1           0       -2.933332    0.882198   -0.829362
 ---------------------------------------------------------------------
                    Distance matrix (angstroms):
                    1          2          3          4          5
     1  C    0.000000
     2  C    1.423991   0.000000
     3  C    2.346485   1.372106   0.000000
     4  C    1.368747   2.320238   2.504933   0.000000
     5  H    1.082007   2.219892   3.365830   2.163197   0.000000
     6  S    2.574484   2.576882   1.768019   1.723673   3.618181
     7  H    2.191160   3.360088   3.561788   1.079358   2.610245
     8  C    3.766189   2.563612   1.456666   3.924865   4.734886
     9  S    4.957365   3.812988   2.815268   5.036664   5.898492
    10  C    6.219660   4.945470   3.937877   6.353503   7.150526
    11  C    5.979619   4.696512   3.737006   6.163484   6.887255
    12  C    4.682605   3.462809   2.534444   4.884608   5.588918
    13  H    4.675758   3.598130   2.854736   4.884571   5.515063
    14  S    7.574004   6.334302   5.359309   7.682325   8.477589
    15  C    8.312907   7.055439   5.991459   8.351650   9.260958
    16  C    7.611195   6.362068   5.309501   7.660950   8.558227
    17  H    9.362981   8.122775   7.031908   9.350919  10.322724
    18  H    8.153216   6.959080   5.896671   8.138744   9.105459
    19  O    2.461612   1.339421   2.344623   3.599274   2.826754
    20  H    2.542716   1.881688   3.117039   3.852196   2.535995
                    6          7          8          9         10
     6  S    0.000000
     7  H    2.461963   0.000000
     8  C    2.802293   4.953160   0.000000
     9  S    3.810212   6.002203   1.774819   0.000000
    10  C    5.026100   7.345299   2.514329   1.739248   0.000000
    11  C    4.899389   7.163849   2.323909   2.587815   1.396726
    12  C    3.759924   5.886284   1.366119   2.604728   2.361141
    13  H    3.924299   5.828719   2.152683   3.646121   3.380838
    14  S    6.336742   8.633808   3.998565   4.154371   2.595691
    15  C    6.888171   9.298213   4.549636   3.976314   2.308634
    16  C    6.228992   8.614506   3.898124   2.893072   1.427340
    17  H    7.838409  10.272012   5.601211   4.964638   3.347772
    18  H    6.686710   9.052870   4.572236   3.231794   2.225035
    19  O    3.858275   4.591278   2.975631   4.021394   4.958099
    20  H    4.450462   4.732095   3.873661   4.906265   5.846061
                   11         12         13         14         15
    11  C    0.000000
    12  C    1.423620   0.000000
    13  H    2.219594   1.081361   0.000000
    14  S    1.745306   2.893350   3.233832   0.000000
    15  C    2.485609   3.864524   4.544652   1.748354   0.000000
    16  C    2.361042   3.613622   4.529439   2.607594   1.363086
    17  H    3.535968   4.895924   5.506734   2.472930   1.079656
    18  H    3.378135   4.522487   5.489227   3.641242   2.153993
    19  O    4.715588   3.664181   3.855722   6.342218   7.058076
    20  H    5.574091   4.508333   4.589584   7.161559   7.924122
                   16         17         18         19         20
    16  C    0.000000
[...]
 Stoichiometry    C10H6OS3
 Framework group  C1[X(C10H6OS3)]
 Deg. of freedom    54
 Full point group                 C1      NOp   1
 Largest Abelian subgroup         C1      NOp   1
 Largest concise Abelian subgroup C1      NOp   1
                         Standard orientation:                         
 ---------------------------------------------------------------------
 Center     Atomic      Atomic             Coordinates (Angstroms)
 Number     Number       Type             X           Y           Z
 ---------------------------------------------------------------------
      1          6           0       -3.952835    0.705443    0.298331
      2          6           0       -2.560859    0.930241    0.524496
      3          6           0       -1.740534    0.030637   -0.114589
      4          6           0       -4.180228   -0.373928   -0.505390
      5          1           0       -4.739693    1.320401    0.718251
      6         16           0       -2.712071   -1.128516   -1.007826
      7          1           0       -5.130427   -0.764521   -0.835779
      8          6           0       -0.283997   -0.043909   -0.074584
      9         16           0        0.520310   -1.220775    0.980043
     10          6           0        2.086317   -0.636039    0.496677
     11          6           0        1.961351    0.409259   -0.410076
     12          6           0        0.619948    0.744822   -0.736166
     13          1           0        0.319103    1.526337   -1.419888
     14         16           0        3.530852    0.995966   -0.894134
     15          6           0        4.313719   -0.181039    0.135270
     16          6           0        3.433774   -0.977558    0.809215
     17          1           0        5.391992   -0.206792    0.175982
     18          1           0        3.736017   -1.760394    1.490847
     19          8           0       -2.051463    1.934242    1.295922
     20          1           0       -2.770661    2.416658    1.714789
 ---------------------------------------------------------------------
 Rotational constants (GHZ):           1.3017654           0.2601666           0.2491798

 **********************************************************************

            Population analysis using the SCF Density.

 **********************************************************************

 Orbital symmetries:
       Occupied  (A) (A) (A) (A) (A) (A) (A) (A) (A) (A) (A) (A)
                 (A) (A) (A) (A) (A) (A) (A) (A) (A) (A) (A) (A)
                 (A) (A) (A) (A) (A) (A) (A) (A) (A) (A) (A) (A)
                 (A) (A) (A) (A) (A) (A) (A) (A) (A) (A) (A) (A)
                 (A) (A) (A) (A) (A) (A) (A) (A) (A) (A) (A) (A)
                 (A)
       Virtual   (A) (A) (A) (A) (A) (A) (A) (A) (A) (A) (A) (A)
                 (A) (A) (A) (A) (A) (A) (A) (A) (A) (A) (A) (A)
                 (A) (A) (A) (A) (A) (A) (A) (A) (A) (A) (A) (A)
                 (A) (A) (A) (A) (A) (A) (A) (A) (A) (A) (A) (A)
                 (A) (A) (A) (A) (A) (A) (A) (A) (A) (A) (A) (A)
                 (A) (A) (A) (A) (A) (A) (A) (A) (A) (A) (A) (A)
                 (A) (A) (A) (A) (A) (A) (A) (A) (A) (A) (A) (A)
                 (A) (A) (A) (A) (A) (A) (A) (A) (A) (A) (A) (A)
                 (A) (A) (A) (A) (A) (A) (A) (A) (A) (A) (A) (A)
                 (A) (A) (A) (A) (A) (A) (A) (A) (A) (A) (A) (A)
                 (A) (A) (A) (A) (A) (A) (A) (A) (A) (A) (A) (A)
                 (A) (A) (A) (A) (A) (A) (A) (A) (A) (A) (A) (A)
                 (A) (A) (A) (A) (A) (A) (A) (A) (A) (A) (A) (A)
                 (A) (A) (A) (A) (A) (A) (A) (A) (A) (A) (A) (A)
                 (A) (A) (A) (A) (A) (A) (A) (A) (A) (A) (A) (A)
                 (A) (A) (A) (A) (A) (A) (A) (A) (A) (A) (A) (A)
                 (A) (A) (A) (A) (A) (A) (A) (A) (A) (A) (A) (A)
                 (A) (A) (A) (A) (A) (A) (A) (A) (A) (A) (A) (A)
                 (A) (A) (A) (A) (A) (A) (A) (A) (A) (A) (A) (A)
                 (A) (A) (A) (A) (A) (A) (A) (A) (A) (A) (A) (A)
                 (A) (A) (A) (A) (A) (A) (A) (A) (A) (A) (A) (A)
                 (A) (A) (A) (A) (A) (A) (A) (A) (A) (A) (A) (A)
                 (A) (A) (A) (A) (A) (A) (A) (A) (A) (A) (A) (A)
                 (A) (A) (A) (A) (A) (A) (A) (A) (A) (A) (A) (A)
                 (A) (A) (A) (A) (A) (A) (A) (A) (A) (A) (A) (A)
                 (A) (A) (A) (A) (A) (A)
 The electronic state is 1-A.
 Alpha  occ. eigenvalues --  -88.88412 -88.88085 -88.87768 -19.16718 -10.24865
 Alpha  occ. eigenvalues --  -10.21793 -10.21379 -10.20957 -10.20755 -10.20733
 Alpha  occ. eigenvalues --  -10.20672 -10.19153 -10.19004 -10.18923  -7.97004
 Alpha  occ. eigenvalues --   -7.96659  -7.96338  -5.93302  -5.92971  -5.92929
 Alpha  occ. eigenvalues --   -5.92654  -5.92607  -5.92586  -5.92291  -5.92209
 Alpha  occ. eigenvalues --   -5.91875  -1.07808  -0.91215  -0.89175  -0.84617
 Alpha  occ. eigenvalues --   -0.76948  -0.76023  -0.74128  -0.71000  -0.70132
 Alpha  occ. eigenvalues --   -0.61708  -0.60795  -0.57132  -0.55782  -0.53867
 Alpha  occ. eigenvalues --   -0.51854  -0.49340  -0.48367  -0.45280  -0.43621
 Alpha  occ. eigenvalues --   -0.43274  -0.41350  -0.40918  -0.39492  -0.39019
 Alpha  occ. eigenvalues --   -0.37758  -0.36823  -0.36027  -0.35670  -0.33885
 Alpha  occ. eigenvalues --   -0.33403  -0.28640  -0.25827  -0.23738  -0.23107
 Alpha  occ. eigenvalues --   -0.21939
 Alpha virt. eigenvalues --   -0.04406  -0.03350  -0.01636  -0.00145   0.00163
 Alpha virt. eigenvalues --    0.00344   0.00757   0.01673   0.02061   0.02810
 Alpha virt. eigenvalues --    0.03011   0.03643   0.03855   0.04331   0.04726
 Alpha virt. eigenvalues --    0.04922   0.05246   0.06025   0.06303   0.06740
 Alpha virt. eigenvalues --    0.07581   0.08091   0.08478   0.09256   0.09454
 Alpha virt. eigenvalues --    0.09706   0.10374   0.10586   0.11849   0.12163
 Alpha virt. eigenvalues --    0.12316   0.12504   0.13286   0.13357   0.13764
 Alpha virt. eigenvalues --    0.13892   0.14523   0.14973   0.15142   0.15699
 Alpha virt. eigenvalues --    0.16204   0.16710   0.17058   0.17188   0.17606
 Alpha virt. eigenvalues --    0.18356   0.18516   0.19093   0.19176   0.19815
 Alpha virt. eigenvalues --    0.19933   0.20782   0.20846   0.21250   0.21549
 Alpha virt. eigenvalues --    0.21848   0.22326   0.22581   0.23081   0.24098
 Alpha virt. eigenvalues --    0.24285   0.24854   0.25517   0.25532   0.26290
 Alpha virt. eigenvalues --    0.26622   0.27696   0.28014   0.28172   0.29296
 Alpha virt. eigenvalues --    0.30326   0.31428   0.32003   0.32784   0.33250
 Alpha virt. eigenvalues --    0.34263   0.34574   0.35161   0.35601   0.36598
 Alpha virt. eigenvalues --    0.37110   0.38947   0.39484   0.40915   0.41391
 Alpha virt. eigenvalues --    0.42786   0.44122   0.45282   0.46133   0.46460
 Alpha virt. eigenvalues --    0.47625   0.49608   0.50094   0.52701   0.53081
 Alpha virt. eigenvalues --    0.54935   0.55608   0.55927   0.56495   0.57055
 Alpha virt. eigenvalues --    0.58676   0.59448   0.59512   0.60179   0.61728
 Alpha virt. eigenvalues --    0.62811   0.63333   0.63947   0.64940   0.66017
 Alpha virt. eigenvalues --    0.66350   0.69191   0.70293   0.70823   0.71221
 Alpha virt. eigenvalues --    0.72397   0.73192   0.73634   0.73690   0.75283
 Alpha virt. eigenvalues --    0.76772   0.77547   0.78506   0.79122   0.79732
 Alpha virt. eigenvalues --    0.80678   0.81335   0.82398   0.82901   0.83304
 Alpha virt. eigenvalues --    0.83888   0.85237   0.85770   0.86449   0.86777
 Alpha virt. eigenvalues --    0.87769   0.89347   0.90574   0.91200   0.94043
 Alpha virt. eigenvalues --    0.94114   0.95683   0.96483   0.96847   0.98612
 Alpha virt. eigenvalues --    1.00547   1.02453   1.03094   1.03706   1.03920
 Alpha virt. eigenvalues --    1.05038   1.06615   1.07185   1.08001   1.08764
 Alpha virt. eigenvalues --    1.11154   1.12800   1.14442   1.15894   1.17546
 Alpha virt. eigenvalues --    1.19264   1.21347   1.25154   1.29627   1.31419
 Alpha virt. eigenvalues --    1.34495   1.34971   1.35745   1.38221   1.40707
 Alpha virt. eigenvalues --    1.43113   1.48825   1.49546   1.50823   1.53787
 Alpha virt. eigenvalues --    1.56139   1.57117   1.59184   1.59507   1.60256
 Alpha virt. eigenvalues --    1.62089   1.63032   1.64905   1.67687   1.68914
 Alpha virt. eigenvalues --    1.70537   1.72423   1.73043   1.73380   1.74718
 Alpha virt. eigenvalues --    1.76979   1.77479   1.78753   1.78960   1.81537
 Alpha virt. eigenvalues --    1.83570   1.85385   1.87224   1.88908   1.89299
 Alpha virt. eigenvalues --    1.91435   1.91964   1.94094   1.96711   1.97162
 Alpha virt. eigenvalues --    1.99109   1.99996   2.02361   2.03955   2.05393
 Alpha virt. eigenvalues --    2.07078   2.07663   2.09248   2.09812   2.10472
 Alpha virt. eigenvalues --    2.12048   2.13707   2.14544   2.16698   2.18555
 Alpha virt. eigenvalues --    2.19071   2.19549   2.28446   2.33577   2.37379
 Alpha virt. eigenvalues --    2.41123   2.41611   2.44413   2.49717   2.53126
 Alpha virt. eigenvalues --    2.56175   2.58693   2.62778   2.63587   2.69224
 Alpha virt. eigenvalues --    2.70281   2.70586   2.71188   2.72985   2.73408
 Alpha virt. eigenvalues --    2.74168   2.77940   2.78480   2.83067   2.87673
 Alpha virt. eigenvalues --    2.89806   2.92646   2.94586   2.96328   2.97649
 Alpha virt. eigenvalues --    3.01771   3.05615   3.08290   3.11035   3.11731
 Alpha virt. eigenvalues --    3.16451   3.17095   3.20374   3.28806   3.29663
 Alpha virt. eigenvalues --    3.29776   3.32387   3.36633   3.44085   3.46903
 Alpha virt. eigenvalues --    3.47611   3.52312   3.57749   3.69841   3.87850
 Alpha virt. eigenvalues --    3.94088   3.98087   4.05723   4.10920   4.19667
 Alpha virt. eigenvalues --    4.35429   4.49728   5.00974   5.45690   5.73733
 Alpha virt. eigenvalues --    7.97216   7.99005   8.00254  17.28608  17.30235
 Alpha virt. eigenvalues --   17.31261  17.45829  17.46515  17.49991  17.51692
 Alpha virt. eigenvalues --   17.54087  17.56928  23.47152  23.62884  23.77465
 Alpha virt. eigenvalues --   23.80727  23.86384  24.02193  24.05892  24.13634
 Alpha virt. eigenvalues --   24.14205  24.15529  49.93767 189.13546 189.15884
 Alpha virt. eigenvalues --  189.17442
          Condensed to atoms (all electrons):
               1          2          3          4          5          6
     1  C    7.953788  -2.657557   0.769781  -0.748075   0.373022   0.442703
     2  C   -2.657557  13.009725  -2.877527   1.749707  -0.026545  -1.646999
     3  C    0.769781  -2.877527  10.136338  -1.224123  -0.030343   0.108203
     4  C   -0.748075   1.749707  -1.224123   6.331956   0.040618  -0.019366
     5  H    0.373022  -0.026545  -0.030343   0.040618   0.537878   0.003841
     6  S    0.442703  -1.646999   0.108203  -0.019366   0.003841  16.938465
     7  H    0.026855  -0.035472   0.025750   0.358131  -0.005298  -0.014654
     8  C    0.219821  -0.926227   1.104432  -0.220054  -0.010133  -0.043443
     9  S   -0.065852   0.319451   0.623930   0.077224  -0.000222  -0.067704
    10  C   -0.002749  -0.153919  -1.242535  -0.006680  -0.000272   0.121961
    11  C   -0.112288  -0.494858   1.707397   0.000965   0.000203  -0.065823
    12  C    0.058770  -0.113568  -3.103640  -0.155488  -0.000064   0.368490
    13  H    0.001011   0.017247   0.037757   0.002433   0.000000  -0.010336
    14  S   -0.008808  -0.021559   0.009119   0.002344  -0.000002   0.002656
    15  C   -0.000081  -0.019788   0.024475  -0.000783   0.000000  -0.000754
    16  C   -0.021024  -0.024829  -0.285290   0.007470  -0.000023   0.004497
    17  H   -0.000000  -0.000004  -0.000058  -0.000000   0.000000   0.000008
    18  H   -0.000005  -0.000177  -0.000430  -0.000002   0.000000   0.000026
    19  O    0.084892   0.024423  -0.052780  -0.025738  -0.007579   0.042208
    20  H   -0.195743   0.205790  -0.007322   0.006342   0.004623  -0.023311
               7          8          9         10         11         12
     1  C    0.026855   0.219821  -0.065852  -0.002749  -0.112288   0.058770
     2  C   -0.035472  -0.926227   0.319451  -0.153919  -0.494858  -0.113568
     3  C    0.025750   1.104432   0.623930  -1.242535   1.707397  -3.103640
     4  C    0.358131  -0.220054   0.077224  -0.006680   0.000965  -0.155488
     5  H   -0.005298  -0.010133  -0.000222  -0.000272   0.000203  -0.000064
     6  S   -0.014654  -0.043443  -0.067704   0.121961  -0.065823   0.368490
     7  H    0.484046  -0.001400  -0.000441  -0.000111  -0.000308  -0.000511
     8  C   -0.001400  11.246993   1.497056  -0.917114   3.923930  -6.927019
     9  S   -0.000441   1.497056  18.503271  -0.037726   3.063579  -5.337236
    10  C   -0.000111  -0.917114  -0.037726  19.442000  -4.352341   0.279720
    11  C   -0.000308   3.923930   3.063579  -4.352341  21.718479 -15.704587
    12  C   -0.000511  -6.927019  -5.337236   0.279720 -15.704587  30.650401
    13  H   -0.000001   0.052341   0.023121  -0.083231   0.111696   0.186926
    14  S   -0.000003  -0.671029   0.245638   0.329064  -0.577746  -0.475217
    15  C   -0.000001   0.215462   0.417966   1.790900   0.051069  -1.440518
    16  C   -0.000007  -2.649690  -2.757597  -9.361059  -2.831360   7.095647
    17  H    0.000000   0.003694  -0.002169  -0.001326   0.022722   0.009436
    18  H    0.000000  -0.007421   0.023231   0.031162  -0.064671  -0.010250
    19  O   -0.000361  -0.048062  -0.031766   0.023011   0.018977  -0.005519
    20  H   -0.000064   0.009677   0.005522   0.003241   0.004073   0.005313
              13         14         15         16         17         18
     1  C    0.001011  -0.008808  -0.000081  -0.021024  -0.000000  -0.000005
     2  C    0.017247  -0.021559  -0.019788  -0.024829  -0.000004  -0.000177
     3  C    0.037757   0.009119   0.024475  -0.285290  -0.000058  -0.000430
     4  C    0.002433   0.002344  -0.000783   0.007470  -0.000000  -0.000002
     5  H    0.000000  -0.000002   0.000000  -0.000023   0.000000   0.000000
     6  S   -0.010336   0.002656  -0.000754   0.004497   0.000008   0.000026
     7  H   -0.000001  -0.000003  -0.000001  -0.000007   0.000000   0.000000
     8  C    0.052341  -0.671029   0.215462  -2.649690   0.003694  -0.007421
     9  S    0.023121   0.245638   0.417966  -2.757597  -0.002169   0.023231
    10  C   -0.083231   0.329064   1.790900  -9.361059  -0.001326   0.031162
    11  C    0.111696  -0.577746   0.051069  -2.831360   0.022722  -0.064671
    12  C    0.186926  -0.475217  -1.440518   7.095647   0.009436  -0.010250
    13  H    0.525071   0.011049   0.001898  -0.008117  -0.000007   0.000008
    14  S    0.011049  17.268299   0.457463  -0.156118  -0.042617   0.013696
    15  C    0.001898   0.457463   6.009987  -1.693620   0.371386   0.034441
    16  C   -0.008117  -0.156118  -1.693620  17.991032  -0.001820   0.329550
    17  H   -0.000007  -0.042617   0.371386  -0.001820   0.479423  -0.005005
    18  H    0.000008   0.013696   0.034441   0.329550  -0.005005   0.521340
    19  O    0.000368  -0.001018   0.000373   0.003436  -0.000000   0.000000
    20  H    0.000121   0.000071   0.000033   0.000772  -0.000000  -0.000000
              19         20
     1  C    0.084892  -0.195743
     2  C    0.024423   0.205790
     3  C   -0.052780  -0.007322
     4  C   -0.025738   0.006342
     5  H   -0.007579   0.004623
     6  S    0.042208  -0.023311
     7  H   -0.000361  -0.000064
     8  C   -0.048062   0.009677
     9  S   -0.031766   0.005522
    10  C    0.023011   0.003241
    11  C    0.018977   0.004073
    12  C   -0.005519   0.005313
    13  H    0.000368   0.000121
    14  S   -0.001018   0.000071
    15  C    0.000373   0.000033
    16  C    0.003436   0.000772
    17  H   -0.000000  -0.000000
    18  H    0.000000  -0.000000
    19  O    8.028063   0.172802
    20  H    0.172802   0.551197
 Mulliken charges:
               1
     1  C   -0.118463
     2  C   -0.327312
     3  C    0.276868
     4  C   -0.176880
     5  H    0.120294
     6  S   -0.140666
     7  H    0.163851
     8  C    0.148184
     9  S   -0.499275
    10  C    0.138004
    11  C   -0.419106
    12  C    0.618915
    13  H    0.130645
    14  S   -0.385282
    15  C   -0.219904
    16  C    0.358152
    17  H    0.166337
    18  H    0.134506
    19  O   -0.225730
    20  H    0.256863
 Sum of Mulliken charges =  -0.00000
 Mulliken charges with hydrogens summed into heavy atoms:
               1
     1  C    0.001832
     2  C   -0.327312
     3  C    0.276868
     4  C   -0.013028
     6  S   -0.140666
     8  C    0.148184
     9  S   -0.499275
    10  C    0.138004
    11  C   -0.419106
    12  C    0.749560
    14  S   -0.385282
    15  C   -0.053567
    16  C    0.492657
    19  O    0.031133
 Electronic spatial extent (au):  <R**2>=           4318.1296
 Charge=             -0.0000 electrons
 Dipole moment (field-independent basis, Debye):
    X=             -1.9174    Y=              0.8263    Z=              0.6244  Tot=              2.1792
 Quadrupole moment (field-independent basis, Debye-Ang):
   XX=            -79.3945   YY=            -99.7697   ZZ=           -102.6850
   XY=             -7.5257   XZ=             -1.0478   YZ=              0.2951
 Traceless Quadrupole moment (field-independent basis, Debye-Ang):
   XX=             14.5552   YY=             -5.8200   ZZ=             -8.7353
   XY=             -7.5257   XZ=             -1.0478   YZ=              0.2951
 Octapole moment (field-independent basis, Debye-Ang**2):
  XXX=            -38.7011  YYY=             17.2832  ZZZ=              9.5468  XYY=            -18.5960
  XXY=              9.7766  XXZ=             21.7282  XZZ=            -10.2529  YZZ=              7.2905
  YYZ=             10.2494  XYZ=            -26.9829
 Hexadecapole moment (field-independent basis, Debye-Ang**3):
 XXXX=          -4084.7874 YYYY=           -688.2494 ZZZZ=           -508.9288 XXXY=            -95.5509
 XXXZ=              5.9650 YYYX=            -62.9900 YYYZ=             26.4821 ZZZX=            -26.1454
 ZZZY=             16.7738 XXYY=           -865.2863 XXZZ=           -885.7267 YYZZ=           -172.0701
 XXYZ=             51.2588 YYXZ=            -25.6011 ZZXY=            -32.1866
 N-N= 1.122369882053D+03 E-N=-6.156504801365D+03  KE= 1.651062957846D+03
 Unable to Open any file for archive entry.
 1\1\GINC-CX3-4-4\FOpt\RB3LYP\6-311+G(d,p)\C10H6O1S3\NS5018\17-Oct-2021
 \0\\# opt=modredundant b3lyp/6-311+g(d,p)\\pBTTT_100.pdb\\0,1\C,-4.111
 5814682,-1.1606998006,-0.2035168587\C,-2.7527856039,-1.0325291586,-0.6
 23669334\C,-2.0522253525,-2.2156255715,-0.6113520221\C,-4.4308358599,-
 2.443427258,0.1361942371\H,-4.809843932,-0.3336712778,-0.1576300823\S,
 -3.0936247086,-3.5167748667,-0.0564726591\H,-5.3809822321,-2.819058452
 6,0.4836429358\C,-0.6501814822,-2.4339469465,-0.9508603872\S,0.5652502
 688,-2.583750504,0.3314977207\C,1.8372468298,-2.745104681,-0.844906568
 4\C,1.3254177792,-2.6699412274,-2.1344212656\C,-0.0831401255,-2.495553
 5978,-2.1964815142\H,-0.6641930883,-2.415559324,-3.1046264146\S,2.6002
 831524,-2.8309228336,-3.3136891834\C,3.7880124955,-2.9960963678,-2.040
 9309657\C,3.2483033977,-2.9341225598,-0.7888051903\H,4.8255999478,-3.1
 296978041,-2.3065552039\H,3.8302303647,-3.0167083923,0.1185783696\O,-2
 .1663649536,0.1376215387,-1.0102676655\H,-2.784585429,0.8645690855,-0.
 8887279482\\Version=ES64L-G16RevC.01\State=1-A\HF=-1654.629395\RMSD=6.
 594e-09\RMSF=2.676e-04\Dipole=-0.6830965,0.4998847,0.1363739\Quadrupol
 e=9.9568811,-3.7825855,-6.1742956,-6.5741416,-1.3524098,0.3613127\PG=C
 01 [X(C10H6O1S3)]\\@
 The archive entry for this job was punched.


 FROM THE ASHES OF OUR DESPAIR GROW THE FLOWERS OF TOMORROW.
 Job cpu time:       0 days  2 hours 12 minutes 39.5 seconds.
 Elapsed time:       0 days  0 hours 16 minutes 43.4 seconds.
 File lengths (MBytes):  RWF=     86 Int=      0 D2E=      0 Chk=     11 Scr=      1
 Normal termination of Gaussian 16 at Sun Oct 17 02:22:19 2021.
