 Entering Gaussian System, Link 0=g16
 Input=pBTTT_135.gjf
 Output=pBTTT_135.log
 Initial command:
 /apps/gaussian/g16-c01-avx/g16/l1.exe "/tmp/pbs.4729018[310].pbs/Gau-1109383.inp" -scrdir="/tmp/pbs.4729018[310].pbs/"
 Entering Link 1 = /apps/gaussian/g16-c01-avx/g16/l1.exe PID=   1109384.
  
 Copyright (c) 1988-2019, Gaussian, Inc.  All Rights Reserved.
  
 This is part of the Gaussian(R) 16 program.  It is based on
 the Gaussian(R) 09 system (copyright 2009, Gaussian, Inc.),
 the Gaussian(R) 03 system (copyright 2003, Gaussian, Inc.),
 the Gaussian(R) 98 system (copyright 1998, Gaussian, Inc.),
 the Gaussian(R) 94 system (copyright 1995, Gaussian, Inc.),
 the Gaussian 92(TM) system (copyright 1992, Gaussian, Inc.),
 the Gaussian 90(TM) system (copyright 1990, Gaussian, Inc.),
 the Gaussian 88(TM) system (copyright 1988, Gaussian, Inc.),
 the Gaussian 86(TM) system (copyright 1986, Carnegie Mellon
 University), and the Gaussian 82(TM) system (copyright 1983,
 Carnegie Mellon University). Gaussian is a federally registered
 trademark of Gaussian, Inc.
  
 This software contains proprietary and confidential information,
 including trade secrets, belonging to Gaussian, Inc.
  
 This software is provided under written license and may be
 used, copied, transmitted, or stored only in accord with that
 written license.
  
 The following legend is applicable only to US Government
 contracts under FAR:
  
                    RESTRICTED RIGHTS LEGEND
  
 Use, reproduction and disclosure by the US Government is
 subject to restrictions as set forth in subparagraphs (a)
 and (c) of the Commercial Computer Software - Restricted
 Rights clause in FAR 52.227-19.
  
 Gaussian, Inc.
 340 Quinnipiac St., Bldg. 40, Wallingford CT 06492
  
  
 ---------------------------------------------------------------
 Warning -- This program may not be used in any manner that
 competes with the business of Gaussian, Inc. or will provide
 assistance to any competitor of Gaussian, Inc.  The licensee
 of this program is prohibited from giving any competitor of
 Gaussian, Inc. access to this program.  By using this program,
 the user acknowledges that Gaussian, Inc. is engaged in the
 business of creating and licensing software in the field of
 computational chemistry and represents and warrants to the
 licensee that it is not a competitor of Gaussian, Inc. and that
 it will not use this program in any manner prohibited above.
 ---------------------------------------------------------------
  

 Cite this work as:
 Gaussian 16, Revision C.01,
 M. J. Frisch, G. W. Trucks, H. B. Schlegel, G. E. Scuseria, 
 M. A. Robb, J. R. Cheeseman, G. Scalmani, V. Barone, 
 G. A. Petersson, H. Nakatsuji, X. Li, M. Caricato, A. V. Marenich, 
 J. Bloino, B. G. Janesko, R. Gomperts, B. Mennucci, H. P. Hratchian, 
 J. V. Ortiz, A. F. Izmaylov, J. L. Sonnenberg, D. Williams-Young, 
 F. Ding, F. Lipparini, F. Egidi, J. Goings, B. Peng, A. Petrone, 
 T. Henderson, D. Ranasinghe, V. G. Zakrzewski, J. Gao, N. Rega, 
 G. Zheng, W. Liang, M. Hada, M. Ehara, K. Toyota, R. Fukuda, 
 J. Hasegawa, M. Ishida, T. Nakajima, Y. Honda, O. Kitao, H. Nakai, 
 T. Vreven, K. Throssell, J. A. Montgomery, Jr., J. E. Peralta, 
 F. Ogliaro, M. J. Bearpark, J. J. Heyd, E. N. Brothers, K. N. Kudin, 
 V. N. Staroverov, T. A. Keith, R. Kobayashi, J. Normand, 
 K. Raghavachari, A. P. Rendell, J. C. Burant, S. S. Iyengar, 
 J. Tomasi, M. Cossi, J. M. Millam, M. Klene, C. Adamo, R. Cammi, 
 J. W. Ochterski, R. L. Martin, K. Morokuma, O. Farkas, 
 J. B. Foresman, and D. J. Fox, Gaussian, Inc., Wallingford CT, 2019.
 
 ******************************************
 Gaussian 16:  ES64L-G16RevC.01  3-Jul-2019
                17-Oct-2021 
 ******************************************
 %mem=10GB
 %nprocshared=8
 Will use up to    8 processors via shared memory.
 -------------------------------------
 # opt=modredundant b3lyp/6-311+g(d,p)
 -------------------------------------
 1/18=120,19=15,26=3,38=1/1,3;
 2/9=110,12=2,17=6,18=5,40=1/2;
 3/5=4,6=6,7=111,11=2,25=1,30=1,71=1,74=-5/1,2,3;
 4//1;
 5/5=2,38=5/2;
 6/7=2,8=2,9=2,10=2,28=1/1;
 7//1,2,3,16;
 1/18=20,19=15,26=3/3(2);
 2/9=110/2;
 99//99;
 2/9=110/2;
 3/5=4,6=6,7=111,11=2,25=1,30=1,71=1,74=-5/1,2,3;
 4/5=5,16=3,69=1/1;
 5/5=2,38=5/2;
 7//1,2,3,16;
 1/18=20,19=15,26=3/3(-5);
 2/9=110/2;
 6/7=2,8=2,9=2,10=2,19=2,28=1/1;
 99/9=1/99;
 -------------
 pBTTT_135.pdb
 -------------
 Symbolic Z-matrix:
 Charge =  0 Multiplicity = 1
 C                    -4.25     -1.36     -0.21 
 C                    -2.93     -0.95     -0.61 
 C                    -1.97     -2.05     -0.62 
 C                    -4.33     -2.76      0.1 
 H                    -5.1      -0.7      -0.14 
 S                    -2.8      -3.56     -0.11 
 H                    -5.23     -3.27      0.41 
 C                    -0.56     -2.13     -0.97 
 S                     0.621    -3.009     0.048 
 C                     1.938    -2.638    -1.012 
 C                     1.519    -1.875    -2.16 
 C                     0.114    -1.598    -2.156 
 H                    -0.406    -1.184    -3.007 
 S                     2.564    -2.095    -3.525 
 C                     3.596    -3.195    -2.607 
 C                     3.113    -3.406    -1.262 
 H                     4.379    -3.777    -3.072 
 H                     3.439    -4.238    -0.644 
 O                    -2.4       0.49     -0.72 
 H                    -2.92      1.52     -0.76 
 
 Add virtual bond connecting atoms H20        and O19        Dist= 2.18D+00.
 The following ModRedundant input section has been read:
 D       2       3       8       9 F                                           
 

 GradGradGradGradGradGradGradGradGradGradGradGradGradGradGradGradGradGrad
 Berny optimization.
 Initialization pass.
                           ----------------------------
                           !    Initial Parameters    !
                           ! (Angstroms and Degrees)  !
 --------------------------                            --------------------------
 ! Name  Definition              Value          Derivative Info.                !
 --------------------------------------------------------------------------------
 ! R1    R(1,2)                  1.4389         estimate D2E/DX2                !
 ! R2    R(1,4)                  1.4361         estimate D2E/DX2                !
 ! R3    R(1,5)                  1.0784         estimate D2E/DX2                !
 ! R4    R(2,3)                  1.46           estimate D2E/DX2                !
 ! R5    R(2,19)                 1.5384         estimate D2E/DX2                !
 ! R6    R(3,6)                  1.797          estimate D2E/DX2                !
 ! R7    R(3,8)                  1.455          estimate D2E/DX2                !
 ! R8    R(4,6)                  1.7393         estimate D2E/DX2                !
 ! R9    R(4,7)                  1.0799         estimate D2E/DX2                !
 ! R10   R(8,9)                  1.7899         estimate D2E/DX2                !
 ! R11   R(8,12)                 1.4642         estimate D2E/DX2                !
 ! R12   R(9,10)                 1.7308         estimate D2E/DX2                !
 ! R13   R(10,11)                1.4407         estimate D2E/DX2                !
 ! R14   R(10,16)                1.4258         estimate D2E/DX2                !
 ! R15   R(11,12)                1.4321         estimate D2E/DX2                !
 ! R16   R(11,14)                1.7331         estimate D2E/DX2                !
 ! R17   R(12,13)                1.0798         estimate D2E/DX2                !
 ! R18   R(14,15)                1.7657         estimate D2E/DX2                !
 ! R19   R(15,16)                1.4446         estimate D2E/DX2                !
 ! R20   R(15,17)                1.0808         estimate D2E/DX2                !
 ! R21   R(16,18)                1.0865         estimate D2E/DX2                !
 ! R22   R(19,20)                1.1545         estimate D2E/DX2                !
 ! A1    A(2,1,4)              112.8843         estimate D2E/DX2                !
 ! A2    A(2,1,5)              124.5209         estimate D2E/DX2                !
 ! A3    A(4,1,5)              122.5942         estimate D2E/DX2                !
 ! A4    A(1,2,3)              112.9799         estimate D2E/DX2                !
 ! A5    A(1,2,19)             127.059          estimate D2E/DX2                !
 ! A6    A(3,2,19)             118.5686         estimate D2E/DX2                !
 ! A7    A(2,3,6)              109.1138         estimate D2E/DX2                !
 ! A8    A(2,3,8)              132.8639         estimate D2E/DX2                !
 ! A9    A(6,3,8)              118.0132         estimate D2E/DX2                !
 ! A10   A(1,4,6)              111.9209         estimate D2E/DX2                !
 ! A11   A(1,4,7)              124.6643         estimate D2E/DX2                !
 ! A12   A(6,4,7)              123.4062         estimate D2E/DX2                !
 ! A13   A(3,6,4)               93.0997         estimate D2E/DX2                !
 ! A14   A(3,8,9)              121.9785         estimate D2E/DX2                !
 ! A15   A(3,8,12)             128.3857         estimate D2E/DX2                !
 ! A16   A(9,8,12)             109.5963         estimate D2E/DX2                !
 ! A17   A(8,9,10)              92.7787         estimate D2E/DX2                !
 ! A18   A(9,10,11)            112.3476         estimate D2E/DX2                !
 ! A19   A(9,10,16)            128.242          estimate D2E/DX2                !
 ! A20   A(11,10,16)           112.6573         estimate D2E/DX2                !
 ! A21   A(10,11,12)           112.6779         estimate D2E/DX2                !
 ! A22   A(10,11,14)           112.6438         estimate D2E/DX2                !
 ! A23   A(12,11,14)           128.1942         estimate D2E/DX2                !
 ! A24   A(8,12,11)            112.5572         estimate D2E/DX2                !
 ! A25   A(8,12,13)            123.7788         estimate D2E/DX2                !
 ! A26   A(11,12,13)           122.9855         estimate D2E/DX2                !
 ! A27   A(11,14,15)            91.2615         estimate D2E/DX2                !
 ! A28   A(14,15,16)           112.3113         estimate D2E/DX2                !
 ! A29   A(14,15,17)           122.3595         estimate D2E/DX2                !
 ! A30   A(16,15,17)           124.3447         estimate D2E/DX2                !
 ! A31   A(10,16,15)           111.107          estimate D2E/DX2                !
 ! A32   A(10,16,18)           124.0569         estimate D2E/DX2                !
 ! A33   A(15,16,18)           122.7605         estimate D2E/DX2                !
 ! A34   A(2,19,20)            133.0318         estimate D2E/DX2                !
 ! D1    D(4,1,2,3)              0.3915         estimate D2E/DX2                !
 ! D2    D(4,1,2,19)          -165.8104         estimate D2E/DX2                !
 ! D3    D(5,1,2,3)           -179.8811         estimate D2E/DX2                !
 ! D4    D(5,1,2,19)            13.9169         estimate D2E/DX2                !
 ! D5    D(2,1,4,6)             -0.3845         estimate D2E/DX2                !
 ! D6    D(2,1,4,7)           -179.3471         estimate D2E/DX2                !
 ! D7    D(5,1,4,6)            179.8822         estimate D2E/DX2                !
 ! D8    D(5,1,4,7)              0.9196         estimate D2E/DX2                !
 ! D9    D(1,2,3,6)             -0.2224         estimate D2E/DX2                !
 ! D10   D(1,2,3,8)            178.6265         estimate D2E/DX2                !
 ! D11   D(19,2,3,6)           167.2616         estimate D2E/DX2                !
 ! D12   D(19,2,3,8)           -13.8895         estimate D2E/DX2                !
 ! D13   D(1,2,19,20)          -16.0519         estimate D2E/DX2                !
 ! D14   D(3,2,19,20)          178.4264         estimate D2E/DX2                !
 ! D15   D(2,3,6,4)              0.0033         estimate D2E/DX2                !
 ! D16   D(8,3,6,4)           -179.041          estimate D2E/DX2                !
 ! D17   D(2,3,8,9)            135.0043         Frozen                          !
 ! D18   D(2,3,8,12)           -47.5296         estimate D2E/DX2                !
 ! D19   D(6,3,8,9)            -46.2277         estimate D2E/DX2                !
 ! D20   D(6,3,8,12)           131.2383         estimate D2E/DX2                !
 ! D21   D(1,4,6,3)              0.2153         estimate D2E/DX2                !
 ! D22   D(7,4,6,3)            179.1932         estimate D2E/DX2                !
 ! D23   D(3,8,9,10)           179.7705         estimate D2E/DX2                !
 ! D24   D(12,8,9,10)            1.8787         estimate D2E/DX2                !
 ! D25   D(3,8,12,11)         -179.8399         estimate D2E/DX2                !
 ! D26   D(3,8,12,13)           -9.0496         estimate D2E/DX2                !
 ! D27   D(9,8,12,11)           -2.1213         estimate D2E/DX2                !
 ! D28   D(9,8,12,13)          168.6689         estimate D2E/DX2                !
 ! D29   D(8,9,10,11)           -1.1951         estimate D2E/DX2                !
 ! D30   D(8,9,10,16)         -149.8771         estimate D2E/DX2                !
 ! D31   D(9,10,11,12)           0.1604         estimate D2E/DX2                !
 ! D32   D(9,10,11,14)        -154.0531         estimate D2E/DX2                !
 ! D33   D(16,10,11,12)        153.9044         estimate D2E/DX2                !
 ! D34   D(16,10,11,14)         -0.3091         estimate D2E/DX2                !
 ! D35   D(9,10,16,15)         149.763          estimate D2E/DX2                !
 ! D36   D(9,10,16,18)         -14.1936         estimate D2E/DX2                !
 ! D37   D(11,10,16,15)          1.1591         estimate D2E/DX2                !
 ! D38   D(11,10,16,18)       -162.7974         estimate D2E/DX2                !
 ! D39   D(10,11,12,8)           1.2999         estimate D2E/DX2                !
 ! D40   D(10,11,12,13)       -169.5747         estimate D2E/DX2                !
 ! D41   D(14,11,12,8)         150.5796         estimate D2E/DX2                !
 ! D42   D(14,11,12,13)        -20.295          estimate D2E/DX2                !
 ! D43   D(10,11,14,15)         -0.4795         estimate D2E/DX2                !
 ! D44   D(12,11,14,15)       -149.7676         estimate D2E/DX2                !
 ! D45   D(11,14,15,16)          1.1451         estimate D2E/DX2                !
 ! D46   D(11,14,15,17)        170.2436         estimate D2E/DX2                !
 ! D47   D(14,15,16,10)         -1.515          estimate D2E/DX2                !
 ! D48   D(14,15,16,18)        162.6855         estimate D2E/DX2                !
 ! D49   D(17,15,16,10)       -170.3588         estimate D2E/DX2                !
 ! D50   D(17,15,16,18)         -6.1583         estimate D2E/DX2                !
 --------------------------------------------------------------------------------
 Trust Radius=3.00D-01 FncErr=1.00D-07 GrdErr=1.00D-06 EigMax=2.50D+02 EigMin=1.00D-04
 Number of steps in this run=    116 maximum allowed number of steps=    120.
 GradGradGradGradGradGradGradGradGradGradGradGradGradGradGradGradGradGrad

                          Input orientation:                          
 ---------------------------------------------------------------------
 Center     Atomic      Atomic             Coordinates (Angstroms)
 Number     Number       Type             X           Y           Z
 ---------------------------------------------------------------------
      1          6           0       -4.250000   -1.360000   -0.210000
      2          6           0       -2.930000   -0.950000   -0.610000
      3          6           0       -1.970000   -2.050000   -0.620000
      4          6           0       -4.330000   -2.760000    0.100000
      5          1           0       -5.100000   -0.700000   -0.140000
      6         16           0       -2.800000   -3.560000   -0.110000
      7          1           0       -5.230000   -3.270000    0.410000
      8          6           0       -0.560000   -2.130000   -0.970000
      9         16           0        0.621000   -3.009000    0.048000
     10          6           0        1.938000   -2.638000   -1.012000
     11          6           0        1.519000   -1.875000   -2.160000
     12          6           0        0.114000   -1.598000   -2.156000
     13          1           0       -0.406000   -1.184000   -3.007000
     14         16           0        2.564000   -2.095000   -3.525000
     15          6           0        3.596000   -3.195000   -2.607000
     16          6           0        3.113000   -3.406000   -1.262000
     17          1           0        4.379000   -3.777000   -3.072000
     18          1           0        3.439000   -4.238000   -0.644000
     19          8           0       -2.400000    0.490000   -0.720000
     20          1           0       -2.920000    1.520000   -0.760000
 ---------------------------------------------------------------------
                    Distance matrix (angstroms):
                    1          2          3          4          5
     1  C    0.000000
     2  C    1.438923   0.000000
     3  C    2.417147   1.460034   0.000000
     4  C    1.436141   2.395871   2.567509   0.000000
     5  H    1.078425   2.234346   3.442354   2.212261   0.000000
     6  S    2.636759   2.660639   1.796970   1.739253   3.670218
     7  H    2.234480   3.422397   3.630000   1.079907   2.631406
     8  C    3.845335   2.671872   1.454991   3.969219   4.831708
     9  S    5.149020   4.157168   2.842391   4.957530   6.172250
    10  C    6.369288   5.168014   3.971382   6.367044   7.351848
    11  C    6.111390   4.801221   3.817767   6.332584   7.019415
    12  C    4.784146   3.475048   2.628052   5.117511   5.661842
    13  H    4.757155   3.488688   2.982251   5.247380   5.521556
    14  S    7.613150   6.323945   5.384998   7.817294   8.493594
    15  C    8.406697   7.184477   6.019929   8.386808   9.377181
    16  C    7.714051   6.555524   5.299791   7.594117   8.719787
    17  H    9.407049   8.214308   7.021726   9.324299  10.388262
    18  H    8.221433   7.167724   5.834827   7.943260   9.256672
    19  O    2.665539   1.538376   2.578081   3.867790   3.007075
    20  H    3.219596   2.474571   3.696891   4.587603   3.172570
                    6          7          8          9         10
     6  S    0.000000
     7  H    2.501879   0.000000
     8  C    2.793224   5.001290   0.000000
     9  S    3.468689   5.867995   1.789896   0.000000
    10  C    4.910431   7.334966   2.549477   1.730818   0.000000
    11  C    5.069072   7.355265   2.409018   2.639626   1.440706
    12  C    4.065336   6.159405   1.464205   2.665631   2.391090
    13  H    4.446259   6.268833   2.251222   3.703833   3.404185
    14  S    6.525408   8.809727   4.035917   4.168570   2.646109
    15  C    6.875831   9.327711   4.591985   3.991772   2.367116
    16  C    6.026142   8.509978   3.899278   2.843198   1.425815
    17  H    7.769078  10.232998   5.614689   4.944369   3.391077
    18  H    6.298409   8.786325   4.532322   3.151258   2.224506
    19  O    4.115167   4.839773   3.211308   4.686071   5.356108
    20  H    5.122821   5.445099   4.351574   5.805462   6.399424
                   11         12         13         14         15
    11  C    0.000000
    12  C    1.432051   0.000000
    13  H    2.213711   1.079813   0.000000
    14  S    1.733104   2.850205   3.149467   0.000000
    15  C    2.501227   3.857218   4.496679   1.765715   0.000000
    16  C    2.385624   3.614153   4.512834   2.672319   1.444588
    17  H    3.553723   4.876200   5.442802   2.515663   1.080758
    18  H    3.401239   4.506814   5.449285   3.695705   2.228423
    19  O    4.798477   3.569599   3.465354   6.260315   7.286426
    20  H    5.761141   4.569015   4.322132   7.126549   8.252326
                   16         17         18         19         20
    16  C    0.000000
    17  H    2.239754   0.000000
    18  H    1.086473   2.644108   0.000000
    19  O    6.772426   8.348295   7.513566   0.000000
    20  H    7.804779   9.310153   8.579330   1.154513   0.000000
 Stoichiometry    C10H6OS3
 Framework group  C1[X(C10H6OS3)]
 Deg. of freedom    54
 Full point group                 C1      NOp   1
 Largest Abelian subgroup         C1      NOp   1
 Largest concise Abelian subgroup C1      NOp   1
                         Standard orientation:                         
 ---------------------------------------------------------------------
 Center     Atomic      Atomic             Coordinates (Angstroms)
 Number     Number       Type             X           Y           Z
 ---------------------------------------------------------------------
      1          6           0       -4.072488    0.632633   -0.145510
      2          6           0       -2.749097    1.078813    0.200988
      3          6           0       -1.725932    0.063816   -0.032711
      4          6           0       -4.096185   -0.716683   -0.636716
      5          1           0       -4.964135    1.231537   -0.049178
      6         16           0       -2.506029   -1.419903   -0.680111
      7          1           0       -4.985453   -1.237059   -0.960156
      8          6           0       -0.280804    0.057910    0.136308
      9         16           0        0.578290   -1.312274    0.903303
     10          6           0        2.125454   -0.561543    0.707303
     11          6           0        2.035509    0.712956    0.041573
     12          6           0        0.689687    1.063945   -0.299511
     13          1           0        0.444056    1.896369   -0.941954
     14         16           0        3.496692    1.136763   -0.788477
     15          6           0        4.274686   -0.358952   -0.263776
     16          6           0        3.393592   -1.187588    0.526078
     17          1           0        5.228035   -0.683527   -0.655970
     18          1           0        3.582714   -2.242262    0.705854
     19          8           0       -2.376429    2.322822    1.025705
     20          1           0       -2.963571    3.267163    1.336164
 ---------------------------------------------------------------------
 Rotational constants (GHZ):           1.1590678           0.2679005           0.2379324
 Standard basis: 6-311+G(d,p) (5D, 7F)
 There are   382 symmetry adapted cartesian basis functions of A   symmetry.
 There are   368 symmetry adapted basis functions of A   symmetry.
   368 basis functions,   594 primitive gaussians,   382 cartesian basis functions
    61 alpha electrons       61 beta electrons
       nuclear repulsion energy      1102.1711159077 Hartrees.
 NAtoms=   20 NActive=   20 NUniq=   20 SFac= 1.00D+00 NAtFMM=   60 NAOKFM=F Big=F
 Integral buffers will be    131072 words long.
 Raffenetti 2 integral format.
 Two-electron integral symmetry is turned on.
 One-electron integrals computed using PRISM.
 NBasis=   368 RedAO= T EigKep=  2.99D-06  NBF=   368
 NBsUse=   367 1.00D-06 EigRej=  5.33D-07 NBFU=   367
 ExpMin= 4.05D-02 ExpMax= 9.34D+04 ExpMxC= 3.17D+03 IAcc=3 IRadAn=         5 AccDes= 0.00D+00
 Harris functional with IExCor=  402 and IRadAn=       5 diagonalized for initial guess.
 HarFok:  IExCor=  402 AccDes= 0.00D+00 IRadAn=         5 IDoV= 1 UseB2=F ITyADJ=14
 ICtDFT=  3500011 ScaDFX=  1.000000  1.000000  1.000000  1.000000
 FoFCou: FMM=F IPFlag=           0 FMFlag=      100000 FMFlg1=           0
         NFxFlg=           0 DoJE=T BraDBF=F KetDBF=T FulRan=T
         wScrn=  0.000000 ICntrl=       500 IOpCl=  0 I1Cent=   200000004 NGrid=           0
         NMat0=    1 NMatS0=      1 NMatT0=    0 NMatD0=    1 NMtDS0=    0 NMtDT0=    0
 Petite list used in FoFCou.
 Requested convergence on RMS density matrix=1.00D-08 within 128 cycles.
 Requested convergence on MAX density matrix=1.00D-06.
 Requested convergence on             energy=1.00D-06.
 No special actions if energy rises.
 SCF Done:  E(RB3LYP) =  -1654.53300848     A.U. after   17 cycles
            NFock= 17  Conv=0.36D-08     -V/T= 2.0031

 **********************************************************************

            Population analysis using the SCF Density.

 **********************************************************************

 Orbital symmetries:
       Occupied  (A) (A) (A) (A) (A) (A) (A) (A) (A) (A) (A) (A)
                 (A) (A) (A) (A) (A) (A) (A) (A) (A) (A) (A) (A)
                 (A) (A) (A) (A) (A) (A) (A) (A) (A) (A) (A) (A)
                 (A) (A) (A) (A) (A) (A) (A) (A) (A) (A) (A) (A)
                 (A) (A) (A) (A) (A) (A) (A) (A) (A) (A) (A) (A)
                 (A)
       Virtual   (A) (A) (A) (A) (A) (A) (A) (A) (A) (A) (A) (A)
                 (A) (A) (A) (A) (A) (A) (A) (A) (A) (A) (A) (A)
                 (A) (A) (A) (A) (A) (A) (A) (A) (A) (A) (A) (A)
                 (A) (A) (A) (A) (A) (A) (A) (A) (A) (A) (A) (A)
                 (A) (A) (A) (A) (A) (A) (A) (A) (A) (A) (A) (A)
                 (A) (A) (A) (A) (A) (A) (A) (A) (A) (A) (A) (A)
                 (A) (A) (A) (A) (A) (A) (A) (A) (A) (A) (A) (A)
                 (A) (A) (A) (A) (A) (A) (A) (A) (A) (A) (A) (A)
                 (A) (A) (A) (A) (A) (A) (A) (A) (A) (A) (A) (A)
                 (A) (A) (A) (A) (A) (A) (A) (A) (A) (A) (A) (A)
                 (A) (A) (A) (A) (A) (A) (A) (A) (A) (A) (A) (A)
                 (A) (A) (A) (A) (A) (A) (A) (A) (A) (A) (A) (A)
                 (A) (A) (A) (A) (A) (A) (A) (A) (A) (A) (A) (A)
                 (A) (A) (A) (A) (A) (A) (A) (A) (A) (A) (A) (A)
                 (A) (A) (A) (A) (A) (A) (A) (A) (A) (A) (A) (A)
                 (A) (A) (A) (A) (A) (A) (A) (A) (A) (A) (A) (A)
                 (A) (A) (A) (A) (A) (A) (A) (A) (A) (A) (A) (A)
                 (A) (A) (A) (A) (A) (A) (A) (A) (A) (A) (A) (A)
                 (A) (A) (A) (A) (A) (A) (A) (A) (A) (A) (A) (A)
                 (A) (A) (A) (A) (A) (A) (A) (A) (A) (A) (A) (A)
                 (A) (A) (A) (A) (A) (A) (A) (A) (A) (A) (A) (A)
                 (A) (A) (A) (A) (A) (A) (A) (A) (A) (A) (A) (A)
                 (A) (A) (A) (A) (A) (A) (A) (A) (A) (A) (A) (A)
                 (A) (A) (A) (A) (A) (A) (A) (A) (A) (A) (A) (A)
                 (A) (A) (A) (A) (A) (A) (A) (A) (A) (A) (A) (A)
                 (A) (A) (A) (A) (A) (A)
 The electronic state is 1-A.
 Alpha  occ. eigenvalues --  -88.89678 -88.88858 -88.88478 -19.15864 -10.27424
 Alpha  occ. eigenvalues --  -10.23689 -10.23384 -10.22527 -10.21846 -10.21692
 Alpha  occ. eigenvalues --  -10.21610 -10.20529 -10.20146 -10.20082  -7.98136
 Alpha  occ. eigenvalues --   -7.97380  -7.97015  -5.94435  -5.94074  -5.93729
 Alpha  occ. eigenvalues --   -5.93691  -5.93339  -5.93335  -5.92972  -5.92933
 Alpha  occ. eigenvalues --   -5.92548  -0.98039  -0.90349  -0.87807  -0.83445
 Alpha  occ. eigenvalues --   -0.77166  -0.75332  -0.73959  -0.70815  -0.68629
 Alpha  occ. eigenvalues --   -0.61678  -0.58156  -0.57373  -0.54013  -0.53314
 Alpha  occ. eigenvalues --   -0.51322  -0.48810  -0.45850  -0.44704  -0.43128
 Alpha  occ. eigenvalues --   -0.41625  -0.40361  -0.39899  -0.39264  -0.38764
 Alpha  occ. eigenvalues --   -0.37246  -0.36390  -0.34489  -0.34186  -0.33337
 Alpha  occ. eigenvalues --   -0.33031  -0.28963  -0.26031  -0.24888  -0.23306
 Alpha  occ. eigenvalues --   -0.20197
 Alpha virt. eigenvalues --   -0.07203  -0.05113  -0.03779  -0.01365  -0.00423
 Alpha virt. eigenvalues --   -0.00317   0.00431   0.00910   0.01337   0.02064
 Alpha virt. eigenvalues --    0.02444   0.03169   0.03300   0.03984   0.04105
 Alpha virt. eigenvalues --    0.04500   0.04944   0.05724   0.06217   0.06748
 Alpha virt. eigenvalues --    0.06857   0.07439   0.07565   0.08677   0.08929
 Alpha virt. eigenvalues --    0.09324   0.10383   0.10565   0.11058   0.11568
 Alpha virt. eigenvalues --    0.11779   0.12023   0.12274   0.12879   0.13563
 Alpha virt. eigenvalues --    0.13623   0.14052   0.14552   0.14863   0.15624
 Alpha virt. eigenvalues --    0.15875   0.16544   0.17001   0.17407   0.17655
 Alpha virt. eigenvalues --    0.17826   0.18523   0.18984   0.19039   0.19712
 Alpha virt. eigenvalues --    0.20227   0.20234   0.20615   0.20636   0.21213
 Alpha virt. eigenvalues --    0.21375   0.21728   0.22007   0.22617   0.22903
 Alpha virt. eigenvalues --    0.23354   0.23615   0.24152   0.24677   0.24977
 Alpha virt. eigenvalues --    0.25689   0.26727   0.26968   0.27392   0.28105
 Alpha virt. eigenvalues --    0.28723   0.29492   0.30006   0.31041   0.31807
 Alpha virt. eigenvalues --    0.32363   0.32979   0.33812   0.34866   0.35385
 Alpha virt. eigenvalues --    0.35868   0.36644   0.37268   0.38243   0.39132
 Alpha virt. eigenvalues --    0.40910   0.41823   0.42040   0.42628   0.43913
 Alpha virt. eigenvalues --    0.44529   0.46460   0.47348   0.49575   0.51582
 Alpha virt. eigenvalues --    0.54064   0.54814   0.55419   0.56068   0.56295
 Alpha virt. eigenvalues --    0.56661   0.57800   0.59802   0.59958   0.61495
 Alpha virt. eigenvalues --    0.61834   0.62844   0.63168   0.63795   0.64230
 Alpha virt. eigenvalues --    0.66363   0.67370   0.68403   0.69551   0.70105
 Alpha virt. eigenvalues --    0.70555   0.70715   0.72168   0.72776   0.73206
 Alpha virt. eigenvalues --    0.74164   0.74743   0.75260   0.76068   0.76618
 Alpha virt. eigenvalues --    0.77339   0.77839   0.80180   0.80345   0.80950
 Alpha virt. eigenvalues --    0.81839   0.82906   0.83384   0.85128   0.86182
 Alpha virt. eigenvalues --    0.87117   0.88595   0.88947   0.90947   0.92086
 Alpha virt. eigenvalues --    0.92347   0.92746   0.93470   0.94668   0.95866
 Alpha virt. eigenvalues --    0.97108   0.98188   0.99338   1.00128   1.01141
 Alpha virt. eigenvalues --    1.02154   1.03474   1.04636   1.07131   1.08667
 Alpha virt. eigenvalues --    1.10886   1.11968   1.13301   1.16743   1.18310
 Alpha virt. eigenvalues --    1.21677   1.24578   1.26184   1.28686   1.30804
 Alpha virt. eigenvalues --    1.33135   1.35379   1.38371   1.38968   1.40610
 Alpha virt. eigenvalues --    1.43645   1.46890   1.49477   1.51100   1.51776
 Alpha virt. eigenvalues --    1.52963   1.53422   1.54658   1.55263   1.58364
 Alpha virt. eigenvalues --    1.61529   1.62146   1.63313   1.64788   1.65271
 Alpha virt. eigenvalues --    1.66837   1.68695   1.69443   1.70140   1.71014
 Alpha virt. eigenvalues --    1.72667   1.75409   1.76276   1.77559   1.78546
 Alpha virt. eigenvalues --    1.79424   1.81103   1.81545   1.83410   1.85051
 Alpha virt. eigenvalues --    1.87203   1.89357   1.89961   1.90587   1.92032
 Alpha virt. eigenvalues --    1.94655   1.95280   1.96046   1.98775   2.00663
 Alpha virt. eigenvalues --    2.02057   2.02979   2.03627   2.04107   2.06804
 Alpha virt. eigenvalues --    2.08610   2.10145   2.10900   2.12733   2.14507
 Alpha virt. eigenvalues --    2.15602   2.19433   2.22231   2.27913   2.30983
 Alpha virt. eigenvalues --    2.35878   2.36346   2.38949   2.46160   2.46969
 Alpha virt. eigenvalues --    2.51544   2.52848   2.55998   2.58572   2.65151
 Alpha virt. eigenvalues --    2.67265   2.68533   2.69929   2.71144   2.71622
 Alpha virt. eigenvalues --    2.73702   2.74431   2.75518   2.77119   2.80075
 Alpha virt. eigenvalues --    2.80885   2.84932   2.88403   2.91894   2.93185
 Alpha virt. eigenvalues --    2.93888   2.97786   2.98777   3.01641   3.02265
 Alpha virt. eigenvalues --    3.04333   3.05814   3.08639   3.13126   3.19752
 Alpha virt. eigenvalues --    3.20447   3.25085   3.26471   3.33184   3.36731
 Alpha virt. eigenvalues --    3.39699   3.46497   3.54561   3.62712   3.72177
 Alpha virt. eigenvalues --    3.88926   3.93824   4.01071   4.04873   4.12402
 Alpha virt. eigenvalues --    4.30295   4.45911   5.02296   5.19477   5.44401
 Alpha virt. eigenvalues --    7.93964   7.94874   7.98737  17.28051  17.28957
 Alpha virt. eigenvalues --   17.30917  17.42087  17.43617  17.46988  17.47263
 Alpha virt. eigenvalues --   17.50174  17.52397  23.44201  23.58869  23.70910
 Alpha virt. eigenvalues --   23.76820  23.79446  23.84928  23.86870  23.94397
 Alpha virt. eigenvalues --   23.95341  23.96353  49.86221 189.10565 189.10886
 Alpha virt. eigenvalues --  189.15666
          Condensed to atoms (all electrons):
               1          2          3          4          5          6
     1  C    8.229837  -3.024107   0.764763  -0.616114   0.431915   0.645151
     2  C   -3.024107  13.804184  -3.988828   1.743170  -0.097588  -1.963081
     3  C    0.764763  -3.988828  10.747017  -1.090310   0.042536   0.148864
     4  C   -0.616114   1.743170  -1.090310   5.982253  -0.028067  -0.257362
     5  H    0.431915  -0.097588   0.042536  -0.028067   0.517688   0.005900
     6  S    0.645151  -1.963081   0.148864  -0.257362   0.005900  17.301830
     7  H    0.031321  -0.049243   0.027745   0.368773  -0.004438  -0.017074
     8  C   -0.018161  -1.113601   0.247867  -0.106741  -0.003964   0.219861
     9  S   -0.144945   0.500605   0.620201   0.090820  -0.000297  -0.217013
    10  C    0.030428  -0.390320  -0.484482  -0.021122  -0.000009   0.178806
    11  C   -0.065522   0.510631   0.621129   0.047562  -0.000408  -0.331431
    12  C    0.182795  -0.571570  -1.424594  -0.097736   0.000338   0.577317
    13  H    0.003576   0.020943   0.003525   0.000499  -0.000003  -0.006630
    14  S    0.003717   0.016115  -0.028890   0.000963  -0.000010  -0.005629
    15  C    0.000677  -0.023705  -0.017455  -0.000950   0.000001   0.004356
    16  C    0.015472  -0.055751  -0.144218  -0.009004  -0.000011   0.061556
    17  H   -0.000001   0.000056   0.000284   0.000000  -0.000000  -0.000048
    18  H   -0.000000  -0.000009  -0.000237  -0.000004  -0.000000  -0.000017
    19  O   -0.181458   0.572858  -0.234479   0.026859  -0.002587   0.018268
    20  H   -0.084097  -0.000645   0.048993  -0.001415   0.000097  -0.008622
               7          8          9         10         11         12
     1  C    0.031321  -0.018161  -0.144945   0.030428  -0.065522   0.182795
     2  C   -0.049243  -1.113601   0.500605  -0.390320   0.510631  -0.571570
     3  C    0.027745   0.247867   0.620201  -0.484482   0.621129  -1.424594
     4  C    0.368773  -0.106741   0.090820  -0.021122   0.047562  -0.097736
     5  H   -0.004438  -0.003964  -0.000297  -0.000009  -0.000408   0.000338
     6  S   -0.017074   0.219861  -0.217013   0.178806  -0.331431   0.577317
     7  H    0.475521  -0.002217  -0.000822   0.000047   0.000023   0.000304
     8  C   -0.002217  12.357498   0.158725  -0.830525   1.065674  -5.236339
     9  S   -0.000822   0.158725  18.327921  -1.555334   2.328308  -3.493624
    10  C    0.000047  -0.830525  -1.555334  14.310126  -6.879532   2.970349
    11  C    0.000023   1.065674   2.328308  -6.879532  17.558348  -7.311353
    12  C    0.000304  -5.236339  -3.493624   2.970349  -7.311353  18.411813
    13  H    0.000000   0.105135   0.016039  -0.051403   0.064708   0.191451
    14  S   -0.000001  -0.637565   0.191289   0.378635  -0.934361   0.457128
    15  C   -0.000000   0.368560  -0.042282   0.710430  -0.428267  -0.392772
    16  C    0.000019  -0.830987  -0.391977  -2.444482  -0.572989   1.806206
    17  H    0.000000  -0.004742   0.002859  -0.006720   0.004961   0.007133
    18  H    0.000000   0.006244   0.019289   0.022735  -0.027481  -0.009656
    19  O   -0.000125  -0.038147  -0.034168   0.011280  -0.042060   0.061955
    20  H   -0.000012   0.029356   0.002780  -0.000160   0.005068  -0.003401
              13         14         15         16         17         18
     1  C    0.003576   0.003717   0.000677   0.015472  -0.000001  -0.000000
     2  C    0.020943   0.016115  -0.023705  -0.055751   0.000056  -0.000009
     3  C    0.003525  -0.028890  -0.017455  -0.144218   0.000284  -0.000237
     4  C    0.000499   0.000963  -0.000950  -0.009004   0.000000  -0.000004
     5  H   -0.000003  -0.000010   0.000001  -0.000011  -0.000000  -0.000000
     6  S   -0.006630  -0.005629   0.004356   0.061556  -0.000048  -0.000017
     7  H    0.000000  -0.000001  -0.000000   0.000019   0.000000   0.000000
     8  C    0.105135  -0.637565   0.368560  -0.830987  -0.004742   0.006244
     9  S    0.016039   0.191289  -0.042282  -0.391977   0.002859   0.019289
    10  C   -0.051403   0.378635   0.710430  -2.444482  -0.006720   0.022735
    11  C    0.064708  -0.934361  -0.428267  -0.572989   0.004961  -0.027481
    12  C    0.191451   0.457128  -0.392772   1.806206   0.007133  -0.009656
    13  H    0.517755   0.009856   0.001793  -0.016041  -0.000001   0.000016
    14  S    0.009856  16.654700   0.215818  -0.190089  -0.019940   0.003863
    15  C    0.001793   0.215818   5.740818  -0.212006   0.368916   0.008457
    16  C   -0.016041  -0.190089  -0.212006   8.761179   0.001747   0.324046
    17  H   -0.000001  -0.019940   0.368916   0.001747   0.475065  -0.003653
    18  H    0.000016   0.003863   0.008457   0.324046  -0.003653   0.516083
    19  O   -0.000827  -0.000729  -0.000143   0.001804  -0.000000  -0.000001
    20  H   -0.000035   0.000061   0.000010  -0.000110  -0.000000  -0.000000
              19         20
     1  C   -0.181458  -0.084097
     2  C    0.572858  -0.000645
     3  C   -0.234479   0.048993
     4  C    0.026859  -0.001415
     5  H   -0.002587   0.000097
     6  S    0.018268  -0.008622
     7  H   -0.000125  -0.000012
     8  C   -0.038147   0.029356
     9  S   -0.034168   0.002780
    10  C    0.011280  -0.000160
    11  C   -0.042060   0.005068
    12  C    0.061955  -0.003401
    13  H   -0.000827  -0.000035
    14  S   -0.000729   0.000061
    15  C   -0.000143   0.000010
    16  C    0.001804  -0.000110
    17  H   -0.000000  -0.000000
    18  H   -0.000001  -0.000000
    19  O    8.025680   0.207596
    20  H    0.207596   0.510880
 Mulliken charges:
               1
     1  C   -0.205248
     2  C    0.109888
     3  C    0.140571
     4  C   -0.032073
     5  H    0.138907
     6  S   -0.355001
     7  H    0.170179
     8  C    0.264067
     9  S   -0.378373
    10  C    0.051253
    11  C    0.386992
    12  C   -0.125741
    13  H    0.139643
    14  S   -0.114931
    15  C   -0.302258
    16  C   -0.104362
    17  H    0.174084
    18  H    0.140324
    19  O   -0.391577
    20  H    0.293656
 Sum of Mulliken charges =  -0.00000
 Mulliken charges with hydrogens summed into heavy atoms:
               1
     1  C   -0.066341
     2  C    0.109888
     3  C    0.140571
     4  C    0.138106
     6  S   -0.355001
     8  C    0.264067
     9  S   -0.378373
    10  C    0.051253
    11  C    0.386992
    12  C    0.013902
    14  S   -0.114931
    15  C   -0.128173
    16  C    0.035962
    19  O   -0.097921
 Electronic spatial extent (au):  <R**2>=           4404.0234
 Charge=             -0.0000 electrons
 Dipole moment (field-independent basis, Debye):
    X=             -1.9574    Y=              0.3192    Z=             -1.0902  Tot=              2.2632
 Quadrupole moment (field-independent basis, Debye-Ang):
   XX=            -81.6949   YY=            -92.9634   ZZ=           -107.2776
   XY=             -9.2821   XZ=             -2.6496   YZ=              1.1280
 Traceless Quadrupole moment (field-independent basis, Debye-Ang):
   XX=             12.2838   YY=              1.0152   ZZ=            -13.2990
   XY=             -9.2821   XZ=             -2.6496   YZ=              1.1280
 Octapole moment (field-independent basis, Debye-Ang**2):
  XXX=            -62.7414  YYY=             32.4633  ZZZ=              1.3427  XYY=            -30.8045
  XXY=              2.2680  XXZ=            -18.0098  XZZ=             -3.7501  YZZ=              6.1064
  YYZ=             10.9318  XYZ=            -20.5954
 Hexadecapole moment (field-independent basis, Debye-Ang**3):
 XXXX=          -4198.4597 YYYY=           -815.6425 ZZZZ=           -395.5218 XXXY=           -165.5837
 XXXZ=            -81.7917 YYYX=           -146.6177 YYYZ=             56.2614 ZZZX=            -29.6096
 ZZZY=             14.9067 XXYY=           -814.7953 XXZZ=           -898.7425 YYZZ=           -201.7172
 XXYZ=             66.0468 YYXZ=            -40.1321 ZZXY=            -11.8684
 N-N= 1.102171115908D+03 E-N=-6.114694639454D+03  KE= 1.649476901202D+03
 Calling FoFJK, ICntrl=      2127 FMM=F ISym2X=0 I1Cent= 0 IOpClX= 0 NMat=1 NMatS=1 NMatT=0.
 ***** Axes restored to original set *****
 -------------------------------------------------------------------
 Center     Atomic                   Forces (Hartrees/Bohr)
 Number     Number              X              Y              Z
 -------------------------------------------------------------------
      1        6           0.016378007   -0.039640878    0.003522779
      2        6           0.026091107    0.021916847    0.011079810
      3        6          -0.027926411    0.027822515    0.001597917
      4        6           0.011247907    0.052275581   -0.014683856
      5        1          -0.000516764    0.001730053    0.000577817
      6       16          -0.006077352    0.022393006   -0.005679723
      7        1           0.002990764   -0.002966379    0.000451457
      8        6           0.027601833    0.024186357   -0.045515966
      9       16          -0.009381101    0.013280311    0.001408941
     10        6           0.001564261   -0.000837961   -0.035115787
     11        6          -0.024499542   -0.019860992    0.027387428
     12        6          -0.012235145   -0.021302091    0.046935132
     13        1          -0.003944705    0.004082932    0.003837392
     14       16           0.016287349   -0.004405287    0.008655313
     15        6          -0.025100060   -0.009046682    0.052138459
     16        6           0.008984480    0.006494690   -0.055148018
     17        1           0.002329335    0.006676667   -0.001909447
     18        1           0.005507099    0.007251535    0.000274297
     19        8          -0.030828681    0.016068483   -0.004106771
     20        1           0.021527621   -0.106118708    0.004292826
 -------------------------------------------------------------------
 Cartesian Forces:  Max     0.106118708 RMS     0.025145571

 GradGradGradGradGradGradGradGradGradGradGradGradGradGradGradGradGradGrad
 Berny optimization.
 FormGI is forming the generalized inverse of G from B-inverse, IUseBI=4.
 Internal  Forces:  Max     0.104518842 RMS     0.019786515
 Search for a local minimum.
 Step number   1 out of a maximum of  116
 All quantities printed in internal units (Hartrees-Bohrs-Radians)
 Mixed Optimization -- RFO/linear search
 Second derivative matrix not updated -- first step.
 ITU=  0
     Eigenvalues ---    0.00230   0.00994   0.01059   0.01222   0.01273
     Eigenvalues ---    0.01298   0.01362   0.01422   0.01458   0.01498
     Eigenvalues ---    0.01500   0.01592   0.01598   0.01771   0.02201
     Eigenvalues ---    0.02654   0.15087   0.15686   0.15737   0.15997
     Eigenvalues ---    0.16000   0.16000   0.17987   0.22442   0.22526
     Eigenvalues ---    0.23318   0.23979   0.24118   0.24633   0.24978
     Eigenvalues ---    0.24995   0.26145   0.26579   0.28307   0.28345
     Eigenvalues ---    0.28663   0.30910   0.31251   0.31506   0.34834
     Eigenvalues ---    0.35223   0.35872   0.35903   0.36006   0.36017
     Eigenvalues ---    0.36185   0.36348   0.37598   0.38325   0.38435
     Eigenvalues ---    0.39456   0.39769   0.406611000.000001000.00000
     Eigenvalues --- 1000.000001000.000001000.000001000.000001000.00000
     Eigenvalues --- 1000.000001000.000001000.000001000.000001000.00000
     Eigenvalues --- 1000.000001000.000001000.000001000.000001000.00000
     Eigenvalues --- 1000.000001000.000001000.000001000.000001000.00000
     Eigenvalues --- 1000.000001000.000001000.000001000.000001000.00000
     Eigenvalues --- 1000.000001000.000001000.000001000.000001000.00000
     Eigenvalues --- 1000.000001000.000001000.000001000.000001000.00000
     Eigenvalues --- 1000.000001000.000001000.000001000.000001000.00000
     Eigenvalues --- 1000.000001000.000001000.000001000.000001000.00000
     Eigenvalues --- 1000.000001000.000001000.000001000.000001000.00000
     Eigenvalues --- 1000.00000
 RFO step:  Lambda=-1.06305595D-01 EMin= 2.30000000D-03
 Linear search not attempted -- first point.
 Maximum step size (   0.300) exceeded in Quadratic search.
    -- Step size scaled by   0.584
 Iteration  1 RMS(Cart)=  0.06771669 RMS(Int)=  0.00172981
 Iteration  2 RMS(Cart)=  0.00187931 RMS(Int)=  0.00013514
 Iteration  3 RMS(Cart)=  0.00001151 RMS(Int)=  0.00013487
 Iteration  4 RMS(Cart)=  0.00000000 RMS(Int)=  0.00013487
 Iteration  1 RMS(Cart)=  0.00000028 RMS(Int)=  0.00000011
 Variable       Old X    -DE/DX   Delta X   Delta X   Delta X     New X
                                 (Linear)    (Quad)   (Total)
    R1        2.71917  -0.02328   0.00000  -0.02836  -0.02826   2.69091
    R2        2.71391  -0.05423   0.00000  -0.06293  -0.06291   2.65100
    R3        2.03793   0.00150   0.00000   0.00188   0.00188   2.03980
    R4        2.75906  -0.06318   0.00000  -0.07815  -0.07809   2.68098
    R5        2.90711  -0.08751   0.00000  -0.13012  -0.13012   2.77699
    R6        3.39578  -0.02072   0.00000  -0.03139  -0.03145   3.36433
    R7        2.74954  -0.01356   0.00000  -0.01642  -0.01642   2.73311
    R8        3.28671  -0.01222   0.00000  -0.01576  -0.01584   3.27087
    R9        2.04073  -0.00096   0.00000  -0.00121  -0.00121   2.03952
   R10        3.38241  -0.01008   0.00000  -0.01415  -0.01426   3.36815
   R11        2.76695  -0.06296   0.00000  -0.07845  -0.07851   2.68843
   R12        3.27077  -0.00032   0.00000   0.00046   0.00049   3.27126
   R13        2.72254  -0.03046   0.00000  -0.03657  -0.03633   2.68621
   R14        2.69440  -0.00212   0.00000  -0.00355  -0.00343   2.69097
   R15        2.70618  -0.01295   0.00000  -0.01604  -0.01598   2.69021
   R16        3.27509   0.00156   0.00000   0.00326   0.00324   3.27834
   R17        2.04055   0.00044   0.00000   0.00055   0.00055   2.04110
   R18        3.33672  -0.01216   0.00000  -0.01694  -0.01709   3.31963
   R19        2.72988  -0.05772   0.00000  -0.06859  -0.06862   2.66125
   R20        2.04234  -0.00109   0.00000  -0.00136  -0.00136   2.04097
   R21        2.05314  -0.00374   0.00000  -0.00477  -0.00477   2.04837
   R22        2.18171  -0.10452   0.00000  -0.15683  -0.15683   2.02489
    A1        1.97020  -0.00258   0.00000  -0.00770  -0.00758   1.96262
    A2        2.17330   0.00041   0.00000   0.00192   0.00186   2.17516
    A3        2.13967   0.00218   0.00000   0.00579   0.00573   2.14540
    A4        1.97187   0.01525   0.00000   0.02305   0.02318   1.99505
    A5        2.21760  -0.00446   0.00000  -0.00516  -0.00528   2.21232
    A6        2.06941  -0.01004   0.00000  -0.01445  -0.01458   2.05483
    A7        1.90440  -0.00581   0.00000  -0.00923  -0.00921   1.89519
    A8        2.31891  -0.00721   0.00000  -0.01199  -0.01200   2.30691
    A9        2.05972   0.01301   0.00000   0.02117   0.02115   2.08087
   A10        1.95339  -0.00121   0.00000  -0.00176  -0.00180   1.95158
   A11        2.17580   0.00478   0.00000   0.01002   0.01004   2.18584
   A12        2.15384  -0.00357   0.00000  -0.00830  -0.00828   2.14557
   A13        1.62490  -0.00565   0.00000  -0.00437  -0.00461   1.62029
   A14        2.12893  -0.00256   0.00000  -0.00383  -0.00385   2.12508
   A15        2.24075  -0.00498   0.00000  -0.00780  -0.00782   2.23294
   A16        1.91282   0.00762   0.00000   0.01207   0.01204   1.92485
   A17        1.61929  -0.00691   0.00000  -0.00874  -0.00866   1.61063
   A18        1.96084  -0.01079   0.00000  -0.01511  -0.01537   1.94547
   A19        2.23825   0.00891   0.00000   0.02177   0.02140   2.25965
   A20        1.96624   0.00566   0.00000   0.00915   0.00920   1.97544
   A21        1.96660   0.00817   0.00000   0.01255   0.01258   1.97918
   A22        1.96600  -0.01336   0.00000  -0.01914  -0.01928   1.94672
   A23        2.23741   0.00862   0.00000   0.02043   0.02006   2.25747
   A24        1.96449   0.00197   0.00000  -0.00047  -0.00035   1.96415
   A25        2.16035  -0.00537   0.00000  -0.00876  -0.00889   2.15146
   A26        2.14650   0.00395   0.00000   0.01178   0.01165   2.15815
   A27        1.59281   0.00065   0.00000   0.00268   0.00270   1.59552
   A28        1.96020   0.00139   0.00000   0.00110   0.00103   1.96123
   A29        2.13558  -0.00462   0.00000  -0.00803  -0.00819   2.12739
   A30        2.17023   0.00426   0.00000   0.01174   0.01162   2.18185
   A31        1.93918   0.00566   0.00000   0.00619   0.00631   1.94549
   A32        2.16520  -0.00001   0.00000   0.00545   0.00514   2.17034
   A33        2.14257  -0.00375   0.00000  -0.00299  -0.00332   2.13926
   A34        2.32184  -0.06238   0.00000  -0.13685  -0.13685   2.18499
    D1        0.00683  -0.00057   0.00000  -0.00203  -0.00201   0.00482
    D2       -2.89394  -0.00324   0.00000  -0.01740  -0.01745  -2.91139
    D3       -3.13952   0.00004   0.00000   0.00092   0.00093  -3.13859
    D4        0.24290  -0.00264   0.00000  -0.01444  -0.01451   0.22839
    D5       -0.00671  -0.00029   0.00000  -0.00207  -0.00213  -0.00884
    D6       -3.13020   0.00014   0.00000   0.00039   0.00038  -3.12982
    D7        3.13954  -0.00088   0.00000  -0.00495  -0.00500   3.13453
    D8        0.01605  -0.00045   0.00000  -0.00249  -0.00249   0.01356
    D9       -0.00388   0.00123   0.00000   0.00515   0.00514   0.00126
   D10        3.11762   0.00050   0.00000   0.00219   0.00223   3.11985
   D11        2.91927   0.00411   0.00000   0.01992   0.01990   2.93917
   D12       -0.24242   0.00338   0.00000   0.01696   0.01699  -0.22543
   D13       -0.28016   0.00199   0.00000   0.00519   0.00509  -0.27506
   D14        3.11413  -0.00391   0.00000  -0.01552  -0.01542   3.09871
   D15        0.00006  -0.00120   0.00000  -0.00541  -0.00537  -0.00531
   D16       -3.12486  -0.00036   0.00000  -0.00258  -0.00251  -3.12737
   D17        2.35627   0.00039   0.00000   0.00000   0.00000   2.35627
   D18       -0.82955   0.00320   0.00000   0.01430   0.01430  -0.81525
   D19       -0.80683  -0.00059   0.00000  -0.00348  -0.00348  -0.81031
   D20        2.29054   0.00222   0.00000   0.01082   0.01082   2.30136
   D21        0.00376   0.00090   0.00000   0.00441   0.00442   0.00818
   D22        3.12751   0.00058   0.00000   0.00220   0.00220   3.12971
   D23        3.13759   0.00054   0.00000   0.00370   0.00372   3.14131
   D24        0.03279  -0.00155   0.00000  -0.00781  -0.00791   0.02488
   D25       -3.13880  -0.00166   0.00000  -0.00753  -0.00747   3.13692
   D26       -0.15795   0.00247   0.00000   0.01087   0.01083  -0.14712
   D27       -0.03702   0.00070   0.00000   0.00508   0.00523  -0.03180
   D28        2.94383   0.00483   0.00000   0.02347   0.02352   2.96735
   D29       -0.02086   0.00241   0.00000   0.00927   0.00916  -0.01169
   D30       -2.61585  -0.00636   0.00000  -0.02538  -0.02550  -2.64135
   D31        0.00280  -0.00203   0.00000  -0.00744  -0.00738  -0.00458
   D32       -2.68873  -0.01083   0.00000  -0.03876  -0.03827  -2.72700
   D33        2.68614   0.00738   0.00000   0.02723   0.02690   2.71303
   D34       -0.00540  -0.00142   0.00000  -0.00409  -0.00399  -0.00939
   D35        2.61386   0.00592   0.00000   0.03223   0.03261   2.64647
   D36       -0.24773  -0.00070   0.00000   0.00017   0.00034  -0.24739
   D37        0.02023   0.00128   0.00000   0.00360   0.00356   0.02379
   D38       -2.84135  -0.00535   0.00000  -0.02847  -0.02872  -2.87007
   D39        0.02269   0.00087   0.00000   0.00134   0.00128   0.02396
   D40       -2.95964  -0.00223   0.00000  -0.01471  -0.01491  -2.97455
   D41        2.62811   0.00435   0.00000   0.02557   0.02590   2.65401
   D42       -0.35422   0.00125   0.00000   0.00952   0.00971  -0.34450
   D43       -0.00837   0.00118   0.00000   0.00295   0.00290  -0.00546
   D44       -2.61394  -0.00764   0.00000  -0.02913  -0.02904  -2.64298
   D45        0.01999  -0.00035   0.00000  -0.00078  -0.00080   0.01919
   D46        2.97131   0.00589   0.00000   0.02698   0.02679   2.99810
   D47       -0.02644  -0.00036   0.00000  -0.00132  -0.00125  -0.02769
   D48        2.83940   0.00684   0.00000   0.03182   0.03191   2.87131
   D49       -2.97332  -0.00559   0.00000  -0.02715  -0.02726  -3.00058
   D50       -0.10748   0.00160   0.00000   0.00599   0.00589  -0.10159
         Item               Value     Threshold  Converged?
 Maximum Force            0.104519     0.000450     NO 
 RMS     Force            0.019880     0.000300     NO 
 Maximum Displacement     0.452783     0.001800     NO 
 RMS     Displacement     0.067821     0.001200     NO 
 Predicted change in Energy=-4.938221D-02
 GradGradGradGradGradGradGradGradGradGradGradGradGradGradGradGradGradGrad

                          Input orientation:                          
 ---------------------------------------------------------------------
 Center     Atomic      Atomic             Coordinates (Angstroms)
 Number     Number       Type             X           Y           Z
 ---------------------------------------------------------------------
      1          6           0       -4.205407   -1.325251   -0.215201
      2          6           0       -2.883545   -0.975635   -0.612861
      3          6           0       -1.969816   -2.060889   -0.620902
      4          6           0       -4.328603   -2.687624    0.095834
      5          1           0       -5.030700   -0.632314   -0.152969
      6         16           0       -2.832807   -3.533043   -0.113380
      7          1           0       -5.239064   -3.174895    0.409606
      8          6           0       -0.570120   -2.149240   -0.974223
      9         16           0        0.599177   -3.033894    0.039134
     10          6           0        1.910611   -2.661354   -1.027627
     11          6           0        1.473329   -1.893908   -2.141368
     12          6           0        0.076734   -1.618456   -2.124789
     13          1           0       -0.456999   -1.181111   -2.955744
     14         16           0        2.543794   -2.069073   -3.495260
     15          6           0        3.584224   -3.155270   -2.587745
     16          6           0        3.103703   -3.394598   -1.285802
     17          1           0        4.398928   -3.688313   -3.055294
     18          1           0        3.464419   -4.211724   -0.671689
     19          8           0       -2.334962    0.381194   -0.745390
     20          1           0       -2.915897    1.280398   -0.791331
 ---------------------------------------------------------------------
                    Distance matrix (angstroms):
                    1          2          3          4          5
     1  C    0.000000
     2  C    1.423967   0.000000
     3  C    2.388226   1.418712   0.000000
     4  C    1.402848   2.349755   2.543695   0.000000
     5  H    1.079418   2.222531   3.410103   2.186125   0.000000
     6  S    2.601681   2.606222   1.780328   1.730870   3.639578
     7  H    2.209075   3.380924   3.604294   1.079270   2.612398
     8  C    3.803995   2.619135   1.446302   3.944753   4.782499
     9  S    5.105701   4.097668   2.825263   4.940257   6.123725
    10  C    6.312755   5.098785   3.947619   6.339609   7.284492
    11  C    6.023415   4.707644   3.767618   6.268770   6.917206
    12  C    4.697789   3.385616   2.577943   5.047899   5.562952
    13  H    4.645634   3.379268   2.917895   5.154710   5.392167
    14  S    7.540806   6.241782   5.351137   7.778715   8.402865
    15  C    8.346034   7.105140   5.992788   8.368580   9.301095
    16  C    7.671471   6.492409   5.287860   7.592622   8.664989
    17  H    9.364014   8.146074   7.009684   9.332780  10.328625
    18  H    8.207700   7.125474   5.844619   7.977667   9.233000
    19  O    2.586816   1.469521   2.472367   3.754985   2.940266
    20  H    2.963809   2.263312   3.476825   4.304417   2.922048
                    6          7          8          9         10
     6  S    0.000000
     7  H    2.488344   0.000000
     8  C    2.788496   4.976543   0.000000
     9  S    3.471444   5.851683   1.782348   0.000000
    10  C    4.908737   7.310760   2.533602   1.731076   0.000000
    11  C    5.034114   7.294149   2.367088   2.611187   1.421480
    12  C    4.022043   6.091253   1.422657   2.637987   2.377920
    13  H    4.388061   6.178098   2.208279   3.676630   3.393277
    14  S    6.518293   8.777453   4.007308   4.147813   2.615517
    15  C    6.887923   9.318525   4.568822   3.978157   2.340706
    16  C    6.052758   8.516128   3.891655   2.856258   1.423998
    17  H    7.808774  10.254756   5.602771   4.943870   3.370133
    18  H    6.358252   8.831468   4.541241   3.178390   2.223659
    19  O    3.996065   4.734299   3.093562   4.570282   5.230835
    20  H    4.861659   5.166138   4.159150   5.626592   6.236057
                   11         12         13         14         15
    11  C    0.000000
    12  C    1.423597   0.000000
    13  H    2.213020   1.080105   0.000000
    14  S    1.734820   2.857907   3.175580   0.000000
    15  C    2.499233   3.857281   4.512672   1.756674   0.000000
    16  C    2.375328   3.608479   4.512962   2.636706   1.408274
    17  H    3.551658   4.881753   5.465894   2.501406   1.080036
    18  H    3.390673   4.506988   5.457017   3.662110   2.191283
    19  O    4.650583   3.423101   3.294421   6.112925   7.137059
    20  H    5.582483   4.374620   4.097546   6.952582   8.071792
                   16         17         18         19         20
    16  C    0.000000
    17  H    2.212459   0.000000
    18  H    1.083948   2.613204   0.000000
    19  O    6.642870   8.200110   7.398185   0.000000
    20  H    7.637779   9.127993   8.419390   1.071524   0.000000
 Stoichiometry    C10H6OS3
 Framework group  C1[X(C10H6OS3)]
 Deg. of freedom    54
 Full point group                 C1      NOp   1
 Largest Abelian subgroup         C1      NOp   1
 Largest concise Abelian subgroup C1      NOp   1
                         Standard orientation:                         
 ---------------------------------------------------------------------
 Center     Atomic      Atomic             Coordinates (Angstroms)
 Number     Number       Type             X           Y           Z
 ---------------------------------------------------------------------
      1          6           0       -4.024116    0.675015   -0.091558
      2          6           0       -2.691065    1.059284    0.229369
      3          6           0       -1.716925    0.061190   -0.030637
      4          6           0       -4.097768   -0.630679   -0.599219
      5          1           0       -4.891628    1.304378    0.036769
      6         16           0       -2.537089   -1.373163   -0.693608
      7          1           0       -5.002898   -1.125004   -0.917349
      8          6           0       -0.278963    0.044185    0.123525
      9         16           0        0.569801   -1.342096    0.854680
     10          6           0        2.115345   -0.587067    0.660132
     11          6           0        1.997880    0.685979    0.038714
     12          6           0        0.655847    1.037532   -0.280635
     13          1           0        0.388551    1.891641   -0.885349
     14         16           0        3.473089    1.149330   -0.747839
     15          6           0        4.258418   -0.340530   -0.248363
     16          6           0        3.397169   -1.181386    0.482696
     17          1           0        5.234995   -0.621237   -0.614395
     18          1           0        3.616106   -2.227913    0.660999
     19          8           0       -2.278693    2.228146    1.018801
     20          1           0       -2.903325    3.066672    1.253049
 ---------------------------------------------------------------------
 Rotational constants (GHZ):           1.2104175           0.2720027           0.2416802
 Standard basis: 6-311+G(d,p) (5D, 7F)
 There are   382 symmetry adapted cartesian basis functions of A   symmetry.
 There are   368 symmetry adapted basis functions of A   symmetry.
   368 basis functions,   594 primitive gaussians,   382 cartesian basis functions
    61 alpha electrons       61 beta electrons
       nuclear repulsion energy      1114.3373908994 Hartrees.
 NAtoms=   20 NActive=   20 NUniq=   20 SFac= 1.00D+00 NAtFMM=   60 NAOKFM=F Big=F
 Integral buffers will be    131072 words long.
 Raffenetti 2 integral format.
 Two-electron integral symmetry is turned on.
 One-electron integrals computed using PRISM.
 NBasis=   368 RedAO= T EigKep=  2.55D-06  NBF=   368
 NBsUse=   367 1.00D-06 EigRej=  4.66D-07 NBFU=   367
 Initial guess from the checkpoint file:  "/tmp/pbs.4729018[310].pbs/Gau-1109384.chk"
 B after Tr=    -0.000000    0.000000    0.000000
         Rot=    0.999924   -0.011969   -0.001586    0.002321 Ang=  -1.41 deg.
 ExpMin= 4.05D-02 ExpMax= 9.34D+04 ExpMxC= 3.17D+03 IAcc=3 IRadAn=         5 AccDes= 0.00D+00
 Harris functional with IExCor=  402 and IRadAn=       5 diagonalized for initial guess.
 HarFok:  IExCor=  402 AccDes= 0.00D+00 IRadAn=         5 IDoV= 1 UseB2=F ITyADJ=14
 ICtDFT=  3500011 ScaDFX=  1.000000  1.000000  1.000000  1.000000
 FoFCou: FMM=F IPFlag=           0 FMFlag=      100000 FMFlg1=           0
         NFxFlg=           0 DoJE=T BraDBF=F KetDBF=T FulRan=T
         wScrn=  0.000000 ICntrl=       500 IOpCl=  0 I1Cent=   200000004 NGrid=           0
         NMat0=    1 NMatS0=      1 NMatT0=    0 NMatD0=    1 NMtDS0=    0 NMtDT0=    0
 Petite list used in FoFCou.
 Requested convergence on RMS density matrix=1.00D-08 within 128 cycles.
 Requested convergence on MAX density matrix=1.00D-06.
 Requested convergence on             energy=1.00D-06.
 No special actions if energy rises.
 SCF Done:  E(RB3LYP) =  -1654.58593320     A.U. after   14 cycles
            NFock= 14  Conv=0.91D-08     -V/T= 2.0027
 Calling FoFJK, ICntrl=      2127 FMM=F ISym2X=0 I1Cent= 0 IOpClX= 0 NMat=1 NMatS=1 NMatT=0.
 ***** Axes restored to original set *****
 -------------------------------------------------------------------
 Center     Atomic                   Forces (Hartrees/Bohr)
 Number     Number              X              Y              Z
 -------------------------------------------------------------------
      1        6           0.004400539   -0.024881470    0.002614493
      2        6           0.027885646    0.032410973    0.006848675
      3        6          -0.022922612    0.012274046    0.002266206
      4        6           0.006140208    0.031401954   -0.009445528
      5        1          -0.000173536    0.001776303    0.000598124
      6       16          -0.002793109    0.010110672   -0.003279805
      7        1           0.002329287   -0.003199953    0.000525432
      8        6           0.020473707    0.016667709   -0.029597495
      9       16          -0.006939527    0.009163671    0.004844544
     10        6          -0.001257150   -0.001840533   -0.024201705
     11        6          -0.012624268   -0.016951358    0.016398155
     12        6          -0.009950495   -0.012539357    0.029046708
     13        1          -0.002284927    0.003850409    0.003054144
     14       16           0.012520531    0.000259096    0.002358693
     15        6          -0.016501397   -0.007649946    0.032933883
     16        6           0.006081101    0.002338898   -0.034481634
     17        1           0.002078735    0.005813414   -0.001796292
     18        1           0.004581996    0.005946431    0.002021770
     19        8          -0.034262376    0.012918213   -0.005149712
     20        1           0.023217645   -0.077869172    0.004441345
 -------------------------------------------------------------------
 Cartesian Forces:  Max     0.077869172 RMS     0.018036904

 GradGradGradGradGradGradGradGradGradGradGradGradGradGradGradGradGradGrad
 Berny optimization.
 Using GEDIIS/GDIIS optimizer.
 FormGI is forming the generalized inverse of G from B-inverse, IUseBI=4.
 Internal  Forces:  Max     0.078124416 RMS     0.013342616
 Search for a local minimum.
 Step number   2 out of a maximum of  116
 All quantities printed in internal units (Hartrees-Bohrs-Radians)
 Mixed Optimization -- RFO/linear search
 Update second derivatives using D2CorX and points    1    2
 DE= -5.29D-02 DEPred=-4.94D-02 R= 1.07D+00
 TightC=F SS=  1.41D+00  RLast= 3.19D-01 DXNew= 5.0454D-01 9.5753D-01
 Trust test= 1.07D+00 RLast= 3.19D-01 DXMaxT set to 5.05D-01
 ITU=  1  0
 Use linear search instead of GDIIS.
     Eigenvalues ---    0.00230   0.00996   0.01054   0.01219   0.01270
     Eigenvalues ---    0.01295   0.01346   0.01402   0.01460   0.01492
     Eigenvalues ---    0.01498   0.01592   0.01594   0.01738   0.02115
     Eigenvalues ---    0.02492   0.14354   0.15302   0.15759   0.15831
     Eigenvalues ---    0.15999   0.16024   0.18359   0.21030   0.22459
     Eigenvalues ---    0.22539   0.23402   0.24134   0.24345   0.24979
     Eigenvalues ---    0.25029   0.25529   0.26233   0.26625   0.28391
     Eigenvalues ---    0.28541   0.30893   0.31237   0.31477   0.34877
     Eigenvalues ---    0.35226   0.35903   0.36005   0.36017   0.36101
     Eigenvalues ---    0.36184   0.36417   0.37607   0.38184   0.39304
     Eigenvalues ---    0.39628   0.40588   0.426271000.000001000.00000
     Eigenvalues --- 1000.000001000.000001000.000001000.000001000.00000
     Eigenvalues --- 1000.000001000.000001000.000001000.000001000.00000
     Eigenvalues --- 1000.000001000.000001000.000001000.000001000.00000
     Eigenvalues --- 1000.000001000.000001000.000001000.000001000.00000
     Eigenvalues --- 1000.000001000.000001000.000001000.000001000.00000
     Eigenvalues --- 1000.000001000.000001000.000001000.000001000.00000
     Eigenvalues --- 1000.000001000.000001000.000001000.000001000.00000
     Eigenvalues --- 1000.000001000.000001000.000001000.000001000.00000
     Eigenvalues --- 1000.000001000.000001000.000001000.000001000.00000
     Eigenvalues --- 1000.000001000.000001000.000001000.000001000.00000
     Eigenvalues --- 1000.00000
 RFO step:  Lambda=-8.26419985D-03 EMin= 2.30067808D-03
 Quartic linear search produced a step of  1.39886.
 Iteration  1 RMS(Cart)=  0.09742729 RMS(Int)=  0.01541869
 Iteration  2 RMS(Cart)=  0.01820765 RMS(Int)=  0.00093598
 Iteration  3 RMS(Cart)=  0.00030330 RMS(Int)=  0.00089978
 Iteration  4 RMS(Cart)=  0.00000036 RMS(Int)=  0.00089978
 Iteration  1 RMS(Cart)=  0.00002769 RMS(Int)=  0.00001126
 Iteration  2 RMS(Cart)=  0.00001509 RMS(Int)=  0.00001258
 Iteration  3 RMS(Cart)=  0.00000823 RMS(Int)=  0.00001421
 Iteration  4 RMS(Cart)=  0.00000448 RMS(Int)=  0.00001528
 Iteration  5 RMS(Cart)=  0.00000244 RMS(Int)=  0.00001591
 Iteration  6 RMS(Cart)=  0.00000133 RMS(Int)=  0.00001626
 Iteration  7 RMS(Cart)=  0.00000073 RMS(Int)=  0.00001646
 Variable       Old X    -DE/DX   Delta X   Delta X   Delta X     New X
                                 (Linear)    (Quad)   (Total)
    R1        2.69091  -0.00829  -0.03954   0.03721  -0.00197   2.68893
    R2        2.65100  -0.03000  -0.08801   0.02236  -0.06570   2.58530
    R3        2.03980   0.00131   0.00262   0.00233   0.00496   2.04476
    R4        2.68098  -0.03513  -0.10923   0.02857  -0.08032   2.60066
    R5        2.77699  -0.06403  -0.18201  -0.06126  -0.24328   2.53371
    R6        3.36433  -0.01088  -0.04399   0.02173  -0.02239   3.34195
    R7        2.73311  -0.00415  -0.02297   0.02697   0.00399   2.73711
    R8        3.27087  -0.00628  -0.02216   0.01075  -0.01181   3.25906
    R9        2.03952  -0.00037  -0.00169   0.00154  -0.00014   2.03938
   R10        3.36815  -0.00571  -0.01995   0.00853  -0.01227   3.35588
   R11        2.68843  -0.03843  -0.10983   0.00865  -0.10168   2.58675
   R12        3.27126   0.00251   0.00068   0.01834   0.01921   3.29047
   R13        2.68621  -0.01814  -0.05082   0.00196  -0.04725   2.63895
   R14        2.69097   0.00031  -0.00480   0.00895   0.00466   2.69562
   R15        2.69021  -0.00467  -0.02235   0.01930  -0.00259   2.68761
   R16        3.27834   0.00334   0.00454   0.01558   0.02018   3.29851
   R17        2.04110   0.00034   0.00077   0.00040   0.00117   2.04227
   R18        3.31963  -0.00684  -0.02390   0.00969  -0.01499   3.30464
   R19        2.66125  -0.03443  -0.09600   0.01113  -0.08524   2.57601
   R20        2.04097  -0.00052  -0.00191   0.00104  -0.00087   2.04011
   R21        2.04837  -0.00181  -0.00667   0.00364  -0.00304   2.04533
   R22        2.02489  -0.07812  -0.21938  -0.08679  -0.30616   1.71872
    A1        1.96262  -0.00087  -0.01060   0.01042   0.00035   1.96297
    A2        2.17516  -0.00062   0.00260  -0.01150  -0.00921   2.16595
    A3        2.14540   0.00149   0.00802   0.00110   0.00882   2.15423
    A4        1.99505   0.00565   0.03243  -0.03542  -0.00378   1.99127
    A5        2.21232  -0.00426  -0.00738  -0.00859  -0.01837   2.19396
    A6        2.05483  -0.00067  -0.02040   0.06005   0.03765   2.09248
    A7        1.89519  -0.00051  -0.01288   0.02833   0.01595   1.91114
    A8        2.30691  -0.00753  -0.01679  -0.02469  -0.04175   2.26516
    A9        2.08087   0.00803   0.02959  -0.00335   0.02596   2.10683
   A10        1.95158   0.00012  -0.00252   0.00873   0.00604   1.95763
   A11        2.18584   0.00397   0.01405   0.01185   0.02597   2.21181
   A12        2.14557  -0.00409  -0.01158  -0.02041  -0.03191   2.11365
   A13        1.62029  -0.00439  -0.00644  -0.01186  -0.01888   1.60141
   A14        2.12508  -0.00248  -0.00539  -0.00763  -0.01306   2.11202
   A15        2.23294  -0.00258  -0.01093   0.00609  -0.00488   2.22806
   A16        1.92485   0.00511   0.01684   0.00146   0.01819   1.94304
   A17        1.61063  -0.00446  -0.01212  -0.00428  -0.01577   1.59486
   A18        1.94547  -0.00628  -0.02150   0.00837  -0.01414   1.93133
   A19        2.25965   0.00644   0.02994   0.01292   0.03998   2.29962
   A20        1.97544   0.00295   0.01287  -0.00642   0.00622   1.98166
   A21        1.97918   0.00402   0.01760  -0.00919   0.00806   1.98724
   A22        1.94672  -0.00727  -0.02697   0.01561  -0.01241   1.93432
   A23        2.25747   0.00610   0.02806   0.01307   0.03800   2.29547
   A24        1.96415   0.00165  -0.00049   0.00359   0.00386   1.96801
   A25        2.15146  -0.00345  -0.01243   0.00492  -0.00850   2.14296
   A26        2.15815   0.00225   0.01630  -0.00552   0.00980   2.16795
   A27        1.59552  -0.00083   0.00378  -0.01605  -0.01157   1.58395
   A28        1.96123   0.00203   0.00144   0.01414   0.01504   1.97627
   A29        2.12739  -0.00465  -0.01145  -0.01847  -0.03102   2.09637
   A30        2.18185   0.00344   0.01626   0.00877   0.02413   2.20598
   A31        1.94549   0.00311   0.00883  -0.00658   0.00300   1.94849
   A32        2.17034  -0.00024   0.00719  -0.00575  -0.00010   2.17024
   A33        2.13926  -0.00142  -0.00464   0.01500   0.00891   2.14817
   A34        2.18499  -0.04610  -0.19143  -0.04059  -0.23203   1.95297
    D1        0.00482  -0.00023  -0.00282   0.01864   0.01572   0.02054
    D2       -2.91139  -0.00410  -0.02442  -0.07356  -0.09646  -3.00785
    D3       -3.13859   0.00044   0.00130   0.02585   0.02670  -3.11189
    D4        0.22839  -0.00343  -0.02030  -0.06635  -0.08549   0.14290
    D5       -0.00884  -0.00037  -0.00298   0.00819   0.00556  -0.00328
    D6       -3.12982   0.00011   0.00053  -0.00066  -0.00019  -3.13001
    D7        3.13453  -0.00102  -0.00700   0.00113  -0.00530   3.12923
    D8        0.01356  -0.00054  -0.00349  -0.00771  -0.01106   0.00250
    D9        0.00126   0.00073   0.00720  -0.03556  -0.02864  -0.02737
   D10        3.11985   0.00038   0.00312  -0.01956  -0.01700   3.10285
   D11        2.93917   0.00363   0.02784   0.03966   0.06906   3.00822
   D12       -0.22543   0.00328   0.02376   0.05566   0.08070  -0.14474
   D13       -0.27506   0.00173   0.00713   0.10163   0.10897  -0.16609
   D14        3.09871  -0.00295  -0.02157   0.01780  -0.00399   3.09472
   D15       -0.00531  -0.00076  -0.00751   0.03372   0.02665   0.02134
   D16       -3.12737  -0.00025  -0.00351   0.02053   0.01727  -3.11009
   D17        2.35627   0.00011   0.00000   0.00000   0.00000   2.35627
   D18       -0.81525   0.00264   0.02001  -0.00380   0.01630  -0.79894
   D19       -0.81031  -0.00038  -0.00487   0.01767   0.01252  -0.79778
   D20        2.30136   0.00215   0.01514   0.01386   0.02883   2.33019
   D21        0.00818   0.00067   0.00618  -0.02453  -0.01849  -0.01031
   D22        3.12971   0.00031   0.00307  -0.01549  -0.01234   3.11737
   D23        3.14131   0.00062   0.00521   0.00281   0.00801  -3.13386
   D24        0.02488  -0.00141  -0.01107   0.00590  -0.00557   0.01930
   D25        3.13692  -0.00134  -0.01044   0.00250  -0.00782   3.12910
   D26       -0.14712   0.00233   0.01515   0.02438   0.03933  -0.10779
   D27       -0.03180   0.00086   0.00731  -0.00109   0.00677  -0.02503
   D28        2.96735   0.00454   0.03290   0.02079   0.05392   3.02127
   D29       -0.01169   0.00178   0.01282  -0.00933   0.00335  -0.00834
   D30       -2.64135  -0.00558  -0.03567  -0.04177  -0.07821  -2.71956
   D31       -0.00458  -0.00142  -0.01032   0.01060   0.00043  -0.00415
   D32       -2.72700  -0.00864  -0.05353  -0.03108  -0.08185  -2.80885
   D33        2.71303   0.00632   0.03762   0.04270   0.07805   2.79109
   D34       -0.00939  -0.00090  -0.00558   0.00102  -0.00423  -0.01362
   D35        2.64647   0.00600   0.04562   0.01800   0.06523   2.71170
   D36       -0.24739  -0.00014   0.00047   0.00423   0.00581  -0.24157
   D37        0.02379   0.00065   0.00498  -0.01843  -0.01380   0.00999
   D38       -2.87007  -0.00548  -0.04017  -0.03219  -0.07322  -2.94329
   D39        0.02396   0.00039   0.00179  -0.00610  -0.00469   0.01928
   D40       -2.97455  -0.00276  -0.02086  -0.02908  -0.05088  -3.02542
   D41        2.65401   0.00507   0.03623   0.04386   0.08151   2.73552
   D42       -0.34450   0.00192   0.01359   0.02088   0.03532  -0.30918
   D43       -0.00546   0.00089   0.00406   0.01231   0.01594   0.01048
   D44       -2.64298  -0.00625  -0.04062  -0.03119  -0.07251  -2.71549
   D45        0.01919  -0.00047  -0.00112  -0.02288  -0.02423  -0.00505
   D46        2.99810   0.00513   0.03747   0.00644   0.04230   3.04040
   D47       -0.02769   0.00005  -0.00175   0.02725   0.02597  -0.00172
   D48        2.87131   0.00624   0.04464   0.03738   0.08304   2.95434
   D49       -3.00058  -0.00485  -0.03814  -0.00017  -0.03938  -3.03997
   D50       -0.10159   0.00133   0.00824   0.00995   0.01768  -0.08391
         Item               Value     Threshold  Converged?
 Maximum Force            0.078124     0.000450     NO 
 RMS     Force            0.013406     0.000300     NO 
 Maximum Displacement     0.739290     0.001800     NO 
 RMS     Displacement     0.106265     0.001200     NO 
 Predicted change in Energy=-4.904480D-02
 GradGradGradGradGradGradGradGradGradGradGradGradGradGradGradGradGradGrad

                          Input orientation:                          
 ---------------------------------------------------------------------
 Center     Atomic      Atomic             Coordinates (Angstroms)
 Number     Number       Type             X           Y           Z
 ---------------------------------------------------------------------
      1          6           0       -4.146916   -1.253871   -0.213968
      2          6           0       -2.805878   -0.972986   -0.597931
      3          6           0       -1.981977   -2.075266   -0.608527
      4          6           0       -4.337256   -2.573224    0.093803
      5          1           0       -4.934902   -0.513285   -0.176228
      6         16           0       -2.891969   -3.497534   -0.082603
      7          1           0       -5.261715   -3.037277    0.401514
      8          6           0       -0.586884   -2.186078   -0.981819
      9         16           0        0.557843   -3.103660    0.018830
     10          6           0        1.869335   -2.728927   -1.063523
     11          6           0        1.419373   -1.949797   -2.131526
     12          6           0        0.027993   -1.658854   -2.085318
     13          1           0       -0.514917   -1.159254   -2.875010
     14         16           0        2.544117   -2.015334   -3.464725
     15          6           0        3.581414   -3.099394   -2.566437
     16          6           0        3.106035   -3.390946   -1.322556
     17          1           0        4.447688   -3.536441   -3.039773
     18          1           0        3.524836   -4.168949   -0.697433
     19          8           0       -2.292659    0.246895   -0.812866
     20          1           0       -2.936560    0.889182   -0.820905
 ---------------------------------------------------------------------
                    Distance matrix (angstroms):
                    1          2          3          4          5
     1  C    0.000000
     2  C    1.422923   0.000000
     3  C    2.348900   1.376207   0.000000
     4  C    1.368080   2.320425   2.507702   0.000000
     5  H    1.082041   2.218536   3.368447   2.161815   0.000000
     6  S    2.574135   2.578045   1.768482   1.724622   3.617746
     7  H    2.191377   3.360257   3.564034   1.079193   2.609814
     8  C    3.759313   2.557908   1.448416   3.920731   4.727840
     9  S    5.060699   4.029241   2.811024   4.924325   6.076046
    10  C    6.252425   5.015747   3.932797   6.315490   7.210686
    11  C    5.928315   4.599871   3.728867   6.203187   6.801732
    12  C    4.593020   3.273158   2.528693   4.963873   5.439419
    13  H    4.503500   3.235473   2.851015   5.042165   5.218905
    14  S    7.477779   6.158526   5.352287   7.767088   8.306990
    15  C    8.286565   7.013852   5.986114   8.370129   9.215677
    16  C    7.642079   6.428245   5.303651   7.620848   8.616941
    17  H    9.330730   8.071438   7.027558   9.376690  10.265104
    18  H    8.221144   7.092392   5.892063   8.061320   9.230531
    19  O    2.459522   1.340784   2.351747   3.599374   2.822167
    20  H    2.534958   1.880018   3.121584   3.845373   2.525053
                    6          7          8          9         10
     6  S    0.000000
     7  H    2.462094   0.000000
     8  C    2.800343   4.948959   0.000000
     9  S    3.473705   5.832505   1.775854   0.000000
    10  C    4.921684   7.286514   2.516818   1.741242   0.000000
    11  C    5.018092   7.227437   2.324376   2.587985   1.396475
    12  C    3.989710   6.005448   1.368849   2.606846   2.362131
    13  H    4.349191   6.065861   2.154928   3.647717   3.380831
    14  S    6.571659   8.770587   3.999643   4.155105   2.594286
    15  C    6.944972   9.328104   4.551908   3.978141   2.308075
    16  C    6.125757   8.550833   3.899419   2.893983   1.426463
    17  H    7.913086  10.313299   5.604067   4.967217   3.347469
    18  H    6.481065   8.927030   4.573718   3.232789   2.224493
    19  O    3.861762   4.590839   2.976167   4.476975   5.122552
    20  H    4.448635   4.724166   3.873512   5.372038   6.020482
                   11         12         13         14         15
    11  C    0.000000
    12  C    1.422224   0.000000
    13  H    2.217928   1.080724   0.000000
    14  S    1.745498   2.891491   3.230840   0.000000
    15  C    2.486995   3.864380   4.543048   1.748741   0.000000
    16  C    2.361392   3.613349   4.527898   2.607096   1.363168
    17  H    3.537378   4.895918   5.505053   2.473446   1.079578
    18  H    3.378496   4.522689   5.488143   3.641122   2.154141
    19  O    4.510377   3.261356   3.064321   5.961916   6.984082
    20  H    5.362059   4.108504   3.778861   6.742686   7.838342
                   16         17         18         19         20
    16  C    0.000000
    17  H    2.184041   0.000000
    18  H    1.082340   2.595819   0.000000
[...]
 Stoichiometry    C10H6OS3
 Framework group  C1[X(C10H6OS3)]
 Deg. of freedom    54
 Full point group                 C1      NOp   1
 Largest Abelian subgroup         C1      NOp   1
 Largest concise Abelian subgroup C1      NOp   1
                         Standard orientation:                         
 ---------------------------------------------------------------------
 Center     Atomic      Atomic             Coordinates (Angstroms)
 Number     Number       Type             X           Y           Z
 ---------------------------------------------------------------------
      1          6           0       -3.925594    0.840417    0.214110
      2          6           0       -2.526313    1.101692    0.297777
      3          6           0       -1.735748    0.043321   -0.095793
      4          6           0       -4.194695   -0.420092   -0.234418
      5          1           0       -4.689720    1.560640    0.480582
      6         16           0       -2.752008   -1.302630   -0.585401
      7          1           0       -5.158824   -0.878366   -0.390593
      8          6           0       -0.289007   -0.045835   -0.083295
      9         16           0        0.515067   -1.503956    0.529925
     10          6           0        2.082235   -0.789327    0.270393
     11          6           0        1.955520    0.502122   -0.225157
     12          6           0        0.616567    0.926900   -0.429015
     13          1           0        0.317788    1.892386   -0.810393
     14         16           0        3.525362    1.218352   -0.479298
     15          6           0        4.309171   -0.239802    0.085833
     16          6           0        3.427958   -1.218403    0.446992
     17          1           0        5.387338   -0.277699    0.116353
     18          1           0        3.729643   -2.187252    0.820059
     19          8           0       -1.981628    2.282667    0.718827
     20          1           0       -2.668507    2.834763    1.105174
 ---------------------------------------------------------------------
 Rotational constants (GHZ):           1.3005163           0.2755880           0.2374775

 **********************************************************************

            Population analysis using the SCF Density.

 **********************************************************************

 Orbital symmetries:
       Occupied  (A) (A) (A) (A) (A) (A) (A) (A) (A) (A) (A) (A)
                 (A) (A) (A) (A) (A) (A) (A) (A) (A) (A) (A) (A)
                 (A) (A) (A) (A) (A) (A) (A) (A) (A) (A) (A) (A)
                 (A) (A) (A) (A) (A) (A) (A) (A) (A) (A) (A) (A)
                 (A) (A) (A) (A) (A) (A) (A) (A) (A) (A) (A) (A)
                 (A)
       Virtual   (A) (A) (A) (A) (A) (A) (A) (A) (A) (A) (A) (A)
                 (A) (A) (A) (A) (A) (A) (A) (A) (A) (A) (A) (A)
                 (A) (A) (A) (A) (A) (A) (A) (A) (A) (A) (A) (A)
                 (A) (A) (A) (A) (A) (A) (A) (A) (A) (A) (A) (A)
                 (A) (A) (A) (A) (A) (A) (A) (A) (A) (A) (A) (A)
                 (A) (A) (A) (A) (A) (A) (A) (A) (A) (A) (A) (A)
                 (A) (A) (A) (A) (A) (A) (A) (A) (A) (A) (A) (A)
                 (A) (A) (A) (A) (A) (A) (A) (A) (A) (A) (A) (A)
                 (A) (A) (A) (A) (A) (A) (A) (A) (A) (A) (A) (A)
                 (A) (A) (A) (A) (A) (A) (A) (A) (A) (A) (A) (A)
                 (A) (A) (A) (A) (A) (A) (A) (A) (A) (A) (A) (A)
                 (A) (A) (A) (A) (A) (A) (A) (A) (A) (A) (A) (A)
                 (A) (A) (A) (A) (A) (A) (A) (A) (A) (A) (A) (A)
                 (A) (A) (A) (A) (A) (A) (A) (A) (A) (A) (A) (A)
                 (A) (A) (A) (A) (A) (A) (A) (A) (A) (A) (A) (A)
                 (A) (A) (A) (A) (A) (A) (A) (A) (A) (A) (A) (A)
                 (A) (A) (A) (A) (A) (A) (A) (A) (A) (A) (A) (A)
                 (A) (A) (A) (A) (A) (A) (A) (A) (A) (A) (A) (A)
                 (A) (A) (A) (A) (A) (A) (A) (A) (A) (A) (A) (A)
                 (A) (A) (A) (A) (A) (A) (A) (A) (A) (A) (A) (A)
                 (A) (A) (A) (A) (A) (A) (A) (A) (A) (A) (A) (A)
                 (A) (A) (A) (A) (A) (A) (A) (A) (A) (A) (A) (A)
                 (A) (A) (A) (A) (A) (A) (A) (A) (A) (A) (A) (A)
                 (A) (A) (A) (A) (A) (A) (A) (A) (A) (A) (A) (A)
                 (A) (A) (A) (A) (A) (A) (A) (A) (A) (A) (A) (A)
                 (A) (A) (A) (A) (A)
 The electronic state is 1-A.
 Alpha  occ. eigenvalues --  -88.88579 -88.88015 -88.87873 -19.16970 -10.24922
 Alpha  occ. eigenvalues --  -10.21976 -10.21433 -10.21348 -10.20711 -10.20655
 Alpha  occ. eigenvalues --  -10.20625 -10.19292 -10.18967 -10.18653  -7.97178
 Alpha  occ. eigenvalues --   -7.96590  -7.96450  -5.93481  -5.93106  -5.92901
 Alpha  occ. eigenvalues --   -5.92771  -5.92749  -5.92538  -5.92411  -5.92139
 Alpha  occ. eigenvalues --   -5.91974  -1.07985  -0.91241  -0.89333  -0.84635
 Alpha  occ. eigenvalues --   -0.77047  -0.76140  -0.74314  -0.70977  -0.70094
 Alpha  occ. eigenvalues --   -0.61881  -0.60981  -0.57068  -0.55984  -0.53859
 Alpha  occ. eigenvalues --   -0.51822  -0.49280  -0.48493  -0.45383  -0.43672
 Alpha  occ. eigenvalues --   -0.43485  -0.41256  -0.40840  -0.39723  -0.39017
 Alpha  occ. eigenvalues --   -0.37818  -0.36760  -0.36024  -0.35872  -0.33941
 Alpha  occ. eigenvalues --   -0.33687  -0.28744  -0.26469  -0.24678  -0.23321
 Alpha  occ. eigenvalues --   -0.20499
 Alpha virt. eigenvalues --   -0.05391  -0.02518  -0.01506  -0.00331   0.00269
 Alpha virt. eigenvalues --    0.00471   0.01053   0.01611   0.02110   0.02712
 Alpha virt. eigenvalues --    0.03206   0.03771   0.03873   0.04680   0.04724
 Alpha virt. eigenvalues --    0.05307   0.05546   0.05978   0.06514   0.06860
 Alpha virt. eigenvalues --    0.07163   0.07917   0.08488   0.09117   0.09762
 Alpha virt. eigenvalues --    0.09964   0.10584   0.10841   0.11408   0.11889
 Alpha virt. eigenvalues --    0.12437   0.12808   0.13276   0.13477   0.14027
 Alpha virt. eigenvalues --    0.14295   0.14511   0.15012   0.15182   0.15743
 Alpha virt. eigenvalues --    0.16096   0.16889   0.17369   0.17639   0.18122
 Alpha virt. eigenvalues --    0.18429   0.18820   0.19295   0.19450   0.19870
 Alpha virt. eigenvalues --    0.19962   0.20498   0.20764   0.21000   0.21964
 Alpha virt. eigenvalues --    0.22572   0.22967   0.23077   0.23466   0.23879
 Alpha virt. eigenvalues --    0.24868   0.25032   0.25542   0.26335   0.26714
 Alpha virt. eigenvalues --    0.27240   0.27325   0.27557   0.29068   0.30377
 Alpha virt. eigenvalues --    0.30833   0.31588   0.32634   0.33287   0.33680
 Alpha virt. eigenvalues --    0.34062   0.34974   0.35203   0.35967   0.36845
 Alpha virt. eigenvalues --    0.37576   0.38838   0.39950   0.40877   0.42111
 Alpha virt. eigenvalues --    0.44019   0.44463   0.44700   0.46259   0.47235
 Alpha virt. eigenvalues --    0.49465   0.50823   0.52071   0.53489   0.54170
 Alpha virt. eigenvalues --    0.55629   0.55746   0.56234   0.56872   0.58384
 Alpha virt. eigenvalues --    0.58979   0.59355   0.60715   0.61141   0.62913
 Alpha virt. eigenvalues --    0.63181   0.64163   0.64854   0.66102   0.66933
 Alpha virt. eigenvalues --    0.69817   0.70605   0.71090   0.71708   0.72512
 Alpha virt. eigenvalues --    0.73347   0.73756   0.74205   0.74898   0.76403
 Alpha virt. eigenvalues --    0.76793   0.78183   0.78940   0.79492   0.80025
 Alpha virt. eigenvalues --    0.81679   0.82462   0.82741   0.83285   0.84437
 Alpha virt. eigenvalues --    0.84838   0.85627   0.86311   0.86915   0.87487
 Alpha virt. eigenvalues --    0.88438   0.89424   0.90012   0.92546   0.93734
 Alpha virt. eigenvalues --    0.94812   0.96231   0.97151   0.97921   1.00036
 Alpha virt. eigenvalues --    1.01923   1.02086   1.03775   1.04170   1.05108
 Alpha virt. eigenvalues --    1.05942   1.07298   1.07918   1.09727   1.11855
 Alpha virt. eigenvalues --    1.12009   1.14147   1.15871   1.16972   1.18459
 Alpha virt. eigenvalues --    1.21611   1.27144   1.27943   1.31258   1.34505
 Alpha virt. eigenvalues --    1.34974   1.35714   1.37996   1.40369   1.42135
 Alpha virt. eigenvalues --    1.45039   1.49762   1.53003   1.54441   1.56592
 Alpha virt. eigenvalues --    1.57218   1.58292   1.59864   1.60593   1.60910
 Alpha virt. eigenvalues --    1.63347   1.64744   1.66914   1.69141   1.70002
 Alpha virt. eigenvalues --    1.72407   1.73035   1.73693   1.74436   1.76079
 Alpha virt. eigenvalues --    1.77540   1.78626   1.79843   1.81807   1.84703
 Alpha virt. eigenvalues --    1.84890   1.85472   1.88635   1.89063   1.91055
 Alpha virt. eigenvalues --    1.92744   1.93219   1.95674   1.96643   1.99465
 Alpha virt. eigenvalues --    2.01154   2.01799   2.03462   2.05878   2.06877
 Alpha virt. eigenvalues --    2.07745   2.08839   2.09034   2.10580   2.12240
 Alpha virt. eigenvalues --    2.14141   2.15055   2.17690   2.18345   2.19807
 Alpha virt. eigenvalues --    2.21412   2.28353   2.30660   2.37225   2.40911
 Alpha virt. eigenvalues --    2.41405   2.46620   2.50568   2.52944   2.57447
 Alpha virt. eigenvalues --    2.61029   2.62515   2.64546   2.69316   2.69758
 Alpha virt. eigenvalues --    2.70827   2.71316   2.72366   2.72919   2.74149
 Alpha virt. eigenvalues --    2.76593   2.79308   2.81657   2.85687   2.89710
 Alpha virt. eigenvalues --    2.93034   2.95172   2.95945   2.97468   3.02076
 Alpha virt. eigenvalues --    3.05791   3.08005   3.11649   3.11662   3.16677
 Alpha virt. eigenvalues --    3.17282   3.20135   3.25840   3.28363   3.29816
 Alpha virt. eigenvalues --    3.34237   3.37005   3.44172   3.46591   3.48120
 Alpha virt. eigenvalues --    3.52355   3.57444   3.68582   3.87609   3.92389
 Alpha virt. eigenvalues --    3.97144   4.05114   4.10487   4.20341   4.36450
 Alpha virt. eigenvalues --    4.55543   5.00557   5.44864   5.73334   7.97645
 Alpha virt. eigenvalues --    7.99038   8.00247  17.28567  17.29154  17.30740
 Alpha virt. eigenvalues --   17.45145  17.46125  17.50072  17.51996  17.54838
 Alpha virt. eigenvalues --   17.57263  23.46943  23.63015  23.77726  23.81121
 Alpha virt. eigenvalues --   23.86164  24.02447  24.04653  24.12253  24.14373
 Alpha virt. eigenvalues --   24.15387  49.93314 189.14500 189.15702 189.17249
          Condensed to atoms (all electrons):
               1          2          3          4          5          6
     1  C    8.448281  -3.307684   0.853672  -0.992775   0.385111   0.588672
     2  C   -3.307684  15.218976  -3.865336   2.284452  -0.058365  -2.332859
     3  C    0.853672  -3.865336  10.344709  -1.239889  -0.019704   0.390444
     4  C   -0.992775   2.284452  -1.239889   6.358561   0.038811  -0.308455
     5  H    0.385111  -0.058365  -0.019704   0.038811   0.537084   0.009220
     6  S    0.588672  -2.332859   0.390444  -0.308455   0.009220  17.363413
     7  H    0.035950  -0.030826   0.028301   0.358662  -0.005196  -0.027313
     8  C    0.165623  -1.567297   0.123608  -0.278608  -0.007571   0.506771
     9  S   -0.073508   0.510297   0.240194   0.088684  -0.000386  -0.044360
    10  C    0.042675  -0.351666  -0.335496  -0.017345  -0.000265  -0.004400
    11  C   -0.116273   0.318994  -0.091240   0.055343   0.000184  -0.024594
    12  C    0.252754  -0.604595  -1.166077  -0.164999   0.003047   0.179148
    13  H    0.003831   0.066867  -0.016309   0.004185  -0.000001  -0.007899
    14  S   -0.009737  -0.011933  -0.027566   0.002995   0.000004   0.001411
    15  C    0.001659  -0.005282  -0.029480  -0.000535  -0.000001  -0.000535
    16  C   -0.009669  -0.088697   0.302815   0.002138  -0.000017  -0.001347
    17  H   -0.000001  -0.000020  -0.000051  -0.000000   0.000000   0.000001
    18  H    0.000005  -0.000120  -0.001290  -0.000001   0.000000   0.000097
    19  O    0.062672  -0.016649  -0.074562  -0.022825  -0.006415   0.047933
    20  H   -0.159906   0.135564   0.034727   0.001173   0.003943  -0.009373
               7          8          9         10         11         12
     1  C    0.035950   0.165623  -0.073508   0.042675  -0.116273   0.252754
     2  C   -0.030826  -1.567297   0.510297  -0.351666   0.318994  -0.604595
     3  C    0.028301   0.123608   0.240194  -0.335496  -0.091240  -1.166077
     4  C    0.358662  -0.278608   0.088684  -0.017345   0.055343  -0.164999
     5  H   -0.005196  -0.007571  -0.000386  -0.000265   0.000184   0.003047
     6  S   -0.027313   0.506771  -0.044360  -0.004400  -0.024594   0.179148
     7  H    0.480845  -0.003279  -0.000632  -0.000040  -0.000184   0.000182
     8  C   -0.003279  11.327948   0.014955  -0.631787  -2.564935  -0.800739
     9  S   -0.000632   0.014955  17.771817  -0.427466  -0.332964  -0.986306
    10  C   -0.000040  -0.631787  -0.427466  14.416561  -4.915560   0.552893
    11  C   -0.000184  -2.564935  -0.332964  -4.915560  12.374667   0.608160
    12  C    0.000182  -0.800739  -0.986306   0.552893   0.608160   8.863532
    13  H   -0.000000  -0.052034   0.011352  -0.069703   0.020429   0.370661
    14  S   -0.000002  -1.025471   0.167896   0.293872  -0.345164  -0.228500
    15  C   -0.000000  -0.127249  -0.029809   0.407806  -0.742399   0.003398
    16  C   -0.000002   0.388090  -0.405524  -3.378212   1.655257  -0.899674
    17  H    0.000000   0.005461  -0.001078   0.026364   0.021839   0.000716
    18  H    0.000000  -0.009445   0.019302   0.018764  -0.070033   0.000931
    19  O   -0.000353  -0.006180  -0.028701   0.000842  -0.006982   0.058002
    20  H   -0.000019   0.019868  -0.000010   0.000364   0.000991  -0.001108
              13         14         15         16         17         18
     1  C    0.003831  -0.009737   0.001659  -0.009669  -0.000001   0.000005
     2  C    0.066867  -0.011933  -0.005282  -0.088697  -0.000020  -0.000120
     3  C   -0.016309  -0.027566  -0.029480   0.302815  -0.000051  -0.001290
     4  C    0.004185   0.002995  -0.000535   0.002138  -0.000000  -0.000001
     5  H   -0.000001   0.000004  -0.000001  -0.000017   0.000000   0.000000
     6  S   -0.007899   0.001411  -0.000535  -0.001347   0.000001   0.000097
     7  H   -0.000000  -0.000002  -0.000000  -0.000002   0.000000   0.000000
     8  C   -0.052034  -1.025471  -0.127249   0.388090   0.005461  -0.009445
     9  S    0.011352   0.167896  -0.029809  -0.405524  -0.001078   0.019302
    10  C   -0.069703   0.293872   0.407806  -3.378212   0.026364   0.018764
    11  C    0.020429  -0.345164  -0.742399   1.655257   0.021839  -0.070033
    12  C    0.370661  -0.228500   0.003398  -0.899674   0.000716   0.000931
    13  H    0.516146   0.015212  -0.001434   0.005300  -0.000005   0.000005
    14  S    0.015212  17.442592   0.379407  -0.222220  -0.042089   0.012863
    15  C   -0.001434   0.379407   5.609520   0.257928   0.384003   0.024641
    16  C    0.005300  -0.222220   0.257928   8.373837  -0.035713   0.352359
    17  H   -0.000005  -0.042089   0.384003  -0.035713   0.479465  -0.004922
    18  H    0.000005   0.012863   0.024641   0.352359  -0.004922   0.522661
    19  O   -0.005668   0.000028   0.000260  -0.001764  -0.000000   0.000000
    20  H   -0.000148  -0.000118   0.000007   0.000047  -0.000000   0.000000
              19         20
     1  C    0.062672  -0.159906
     2  C   -0.016649   0.135564
     3  C   -0.074562   0.034727
     4  C   -0.022825   0.001173
     5  H   -0.006415   0.003943
     6  S    0.047933  -0.009373
     7  H   -0.000353  -0.000019
     8  C   -0.006180   0.019868
     9  S   -0.028701  -0.000010
    10  C    0.000842   0.000364
    11  C   -0.006982   0.000991
    12  C    0.058002  -0.001108
    13  H   -0.005668  -0.000148
    14  S    0.000028  -0.000118
    15  C    0.000260   0.000007
    16  C   -0.001764   0.000047
    17  H   -0.000000  -0.000000
    18  H    0.000000   0.000000
    19  O    8.044148   0.204539
    20  H    0.204539   0.515829
 Mulliken charges:
               1
     1  C   -0.171354
     2  C   -0.293821
     3  C    0.548531
     4  C   -0.169574
     5  H    0.120516
     6  S   -0.325974
     7  H    0.163906
     8  C    0.522272
     9  S   -0.493752
    10  C    0.371800
    11  C    0.154462
    12  C   -0.041426
    13  H    0.139213
    14  S   -0.403479
    15  C   -0.131906
    16  C   -0.294931
    17  H    0.166031
    18  H    0.134183
    19  O   -0.248327
    20  H    0.253630
 Sum of Mulliken charges =  -0.00000
 Mulliken charges with hydrogens summed into heavy atoms:
               1
     1  C   -0.050838
     2  C   -0.293821
     3  C    0.548531
     4  C   -0.005668
     6  S   -0.325974
     8  C    0.522272
     9  S   -0.493752
    10  C    0.371800
    11  C    0.154462
    12  C    0.097786
    14  S   -0.403479
    15  C    0.034125
    16  C   -0.160748
    19  O    0.005303
 Electronic spatial extent (au):  <R**2>=           4310.4227
 Charge=             -0.0000 electrons
 Dipole moment (field-independent basis, Debye):
    X=             -2.0015    Y=              0.9569    Z=              0.6372  Tot=              2.3082
 Quadrupole moment (field-independent basis, Debye-Ang):
   XX=            -79.9404   YY=            -95.8404   ZZ=           -106.4052
   XY=             -8.6695   XZ=             -1.3983   YZ=              0.8926
 Traceless Quadrupole moment (field-independent basis, Debye-Ang):
   XX=             14.1216   YY=             -1.7784   ZZ=            -12.3432
   XY=             -8.6695   XZ=             -1.3983   YZ=              0.8926
 Octapole moment (field-independent basis, Debye-Ang**2):
  XXX=            -38.7496  YYY=             23.2985  ZZZ=              4.6853  XYY=            -21.7129
  XXY=              7.8160  XXZ=             15.0905  XZZ=             -7.0990  YZZ=              6.8493
  YYZ=             10.2474  XYZ=            -20.0473
 Hexadecapole moment (field-independent basis, Debye-Ang**3):
 XXXX=          -4085.1278 YYYY=           -894.2160 ZZZZ=           -257.7401 XXXY=           -100.4261
 XXXZ=             -4.2742 YYYX=            -98.0244 YYYZ=             24.8123 ZZZX=            -14.9137
 ZZZY=             13.1266 XXYY=           -854.8316 XXZZ=           -895.7841 YYZZ=           -190.3737
 XXYZ=             37.6001 YYXZ=            -23.2664 ZZXY=            -17.9949
 N-N= 1.124974692568D+03 E-N=-6.161635846811D+03  KE= 1.651068808678D+03
 Unable to Open any file for archive entry.
 1\1\GINC-CX3-12-18\FOpt\RB3LYP\6-311+G(d,p)\C10H6O1S3\NS5018\17-Oct-20
 21\0\\# opt=modredundant b3lyp/6-311+g(d,p)\\pBTTT_135.pdb\\0,1\C,-4.0
 945444723,-1.1646618572,-0.120934368\C,-2.7806740217,-1.0213639132,-0.
 6561565288\C,-2.0618673568,-2.1968837172,-0.6950183271\C,-4.3675073677
 ,-2.4480630982,0.254363408\H,-4.7962935235,-0.3455528008,-0.0198074722
 \S,-3.0406831227,-3.5087312471,-0.0585746221\H,-5.2771552588,-2.835071
 5026,0.6864699827\C,-0.6914555622,-2.3937644457,-1.1244049096\S,0.4139
 417888,-3.3977824059,-0.165898218\C,1.7256520411,-3.0569638244,-1.2601
 220511\C,1.3115830604,-2.1948039616,-2.2674427363\C,-0.0551442798,-1.8
 182001196,-2.1966146962\H,-0.5597340773,-1.1613076614,-2.8899848613\S,
 2.6274249914,-1.8500966884,-3.3590989446\C,3.6978931055,-2.8769384354,
 -2.4319335024\C,3.0901422323,-3.451766952,-1.3526553389\H,4.7232995528
 ,-2.9884154828,-2.7496227556\H,3.5950477846,-4.1160384644,-0.665141057
 1\O,-2.2502013967,0.1557899585,-1.1051263793\H,-2.8227241174,0.8856166
 196,-0.8492966222\\Version=ES64L-G16RevC.01\State=1-A\HF=-1654.6315572
 \RMSD=5.970e-09\RMSF=4.891e-04\Dipole=-0.6939459,0.5191549,0.2712324\Q
 uadrupole=8.7579186,-1.6411966,-7.116722,-7.8452624,-3.7458726,-0.7498
 294\PG=C01 [X(C10H6O1S3)]\\@
 The archive entry for this job was punched.


 TIME IS NATURE'S WAY OF MAKING SURE EVERYTHING
 DOESN'T HAPPEN AT ONCE.
                     - WOODY ALLEN
 Job cpu time:       0 days  2 hours 24 minutes 30.1 seconds.
 Elapsed time:       0 days  0 hours 18 minutes 20.7 seconds.
 File lengths (MBytes):  RWF=     86 Int=      0 D2E=      0 Chk=     11 Scr=      1
 Normal termination of Gaussian 16 at Sun Oct 17 02:27:58 2021.
