 Entering Gaussian System, Link 0=g16
 Input=pBTTT_-75.gjf
 Output=pBTTT_-75.log
 Initial command:
 /apps/gaussian/g16-c01-avx/g16/l1.exe "/tmp/pbs.4729018[100].pbs/Gau-1331412.inp" -scrdir="/tmp/pbs.4729018[100].pbs/"
 Entering Link 1 = /apps/gaussian/g16-c01-avx/g16/l1.exe PID=   1331413.
  
 Copyright (c) 1988-2019, Gaussian, Inc.  All Rights Reserved.
  
 This is part of the Gaussian(R) 16 program.  It is based on
 the Gaussian(R) 09 system (copyright 2009, Gaussian, Inc.),
 the Gaussian(R) 03 system (copyright 2003, Gaussian, Inc.),
 the Gaussian(R) 98 system (copyright 1998, Gaussian, Inc.),
 the Gaussian(R) 94 system (copyright 1995, Gaussian, Inc.),
 the Gaussian 92(TM) system (copyright 1992, Gaussian, Inc.),
 the Gaussian 90(TM) system (copyright 1990, Gaussian, Inc.),
 the Gaussian 88(TM) system (copyright 1988, Gaussian, Inc.),
 the Gaussian 86(TM) system (copyright 1986, Carnegie Mellon
 University), and the Gaussian 82(TM) system (copyright 1983,
 Carnegie Mellon University). Gaussian is a federally registered
 trademark of Gaussian, Inc.
  
 This software contains proprietary and confidential information,
 including trade secrets, belonging to Gaussian, Inc.
  
 This software is provided under written license and may be
 used, copied, transmitted, or stored only in accord with that
 written license.
  
 The following legend is applicable only to US Government
 contracts under FAR:
  
                    RESTRICTED RIGHTS LEGEND
  
 Use, reproduction and disclosure by the US Government is
 subject to restrictions as set forth in subparagraphs (a)
 and (c) of the Commercial Computer Software - Restricted
 Rights clause in FAR 52.227-19.
  
 Gaussian, Inc.
 340 Quinnipiac St., Bldg. 40, Wallingford CT 06492
  
  
 ---------------------------------------------------------------
 Warning -- This program may not be used in any manner that
 competes with the business of Gaussian, Inc. or will provide
 assistance to any competitor of Gaussian, Inc.  The licensee
 of this program is prohibited from giving any competitor of
 Gaussian, Inc. access to this program.  By using this program,
 the user acknowledges that Gaussian, Inc. is engaged in the
 business of creating and licensing software in the field of
 computational chemistry and represents and warrants to the
 licensee that it is not a competitor of Gaussian, Inc. and that
 it will not use this program in any manner prohibited above.
 ---------------------------------------------------------------
  

 Cite this work as:
 Gaussian 16, Revision C.01,
 M. J. Frisch, G. W. Trucks, H. B. Schlegel, G. E. Scuseria, 
 M. A. Robb, J. R. Cheeseman, G. Scalmani, V. Barone, 
 G. A. Petersson, H. Nakatsuji, X. Li, M. Caricato, A. V. Marenich, 
 J. Bloino, B. G. Janesko, R. Gomperts, B. Mennucci, H. P. Hratchian, 
 J. V. Ortiz, A. F. Izmaylov, J. L. Sonnenberg, D. Williams-Young, 
 F. Ding, F. Lipparini, F. Egidi, J. Goings, B. Peng, A. Petrone, 
 T. Henderson, D. Ranasinghe, V. G. Zakrzewski, J. Gao, N. Rega, 
 G. Zheng, W. Liang, M. Hada, M. Ehara, K. Toyota, R. Fukuda, 
 J. Hasegawa, M. Ishida, T. Nakajima, Y. Honda, O. Kitao, H. Nakai, 
 T. Vreven, K. Throssell, J. A. Montgomery, Jr., J. E. Peralta, 
 F. Ogliaro, M. J. Bearpark, J. J. Heyd, E. N. Brothers, K. N. Kudin, 
 V. N. Staroverov, T. A. Keith, R. Kobayashi, J. Normand, 
 K. Raghavachari, A. P. Rendell, J. C. Burant, S. S. Iyengar, 
 J. Tomasi, M. Cossi, J. M. Millam, M. Klene, C. Adamo, R. Cammi, 
 J. W. Ochterski, R. L. Martin, K. Morokuma, O. Farkas, 
 J. B. Foresman, and D. J. Fox, Gaussian, Inc., Wallingford CT, 2019.
 
 ******************************************
 Gaussian 16:  ES64L-G16RevC.01  3-Jul-2019
                17-Oct-2021 
 ******************************************
 %mem=10GB
 %nprocshared=8
 Will use up to    8 processors via shared memory.
 -------------------------------------
 # opt=modredundant b3lyp/6-311+g(d,p)
 -------------------------------------
 1/18=120,19=15,26=3,38=1/1,3;
 2/9=110,12=2,17=6,18=5,40=1/2;
 3/5=4,6=6,7=111,11=2,25=1,30=1,71=1,74=-5/1,2,3;
 4//1;
 5/5=2,38=5/2;
 6/7=2,8=2,9=2,10=2,28=1/1;
 7//1,2,3,16;
 1/18=20,19=15,26=3/3(2);
 2/9=110/2;
 99//99;
 2/9=110/2;
 3/5=4,6=6,7=111,11=2,25=1,30=1,71=1,74=-5/1,2,3;
 4/5=5,16=3,69=1/1;
 5/5=2,38=5/2;
 7//1,2,3,16;
 1/18=20,19=15,26=3/3(-5);
 2/9=110/2;
 6/7=2,8=2,9=2,10=2,19=2,28=1/1;
 99/9=1/99;
 -------------
 pBTTT_-75.pdb
 -------------
 Symbolic Z-matrix:
 Charge =  0 Multiplicity = 1
 C                    -4.25     -1.36     -0.21 
 C                    -2.93     -0.95     -0.61 
 C                    -1.97     -2.05     -0.62 
 C                    -4.33     -2.76      0.1 
 H                    -5.1      -0.7      -0.14 
 S                    -2.8      -3.56     -0.11 
 H                    -5.23     -3.27      0.41 
 C                    -0.56     -2.13     -0.97 
 S                    -0.002    -2.101    -2.671 
 C                     1.662    -2.223    -2.215 
 C                     1.839    -2.259    -0.785 
 C                     0.597    -2.19     -0.074 
 H                     0.538    -2.041     0.993 
 S                     3.391    -1.671    -0.289 
 C                     3.859    -1.374    -1.965 
 C                     2.804    -1.705    -2.895 
 H                     4.756    -0.831    -2.228 
 H                     2.79     -1.344    -3.92 
 O                    -2.4       0.49     -0.72 
 H                    -2.92      1.52     -0.76 
 
 Add virtual bond connecting atoms H20        and O19        Dist= 2.18D+00.
 The following ModRedundant input section has been read:
 D       2       3       8       9 F                                           
 

 GradGradGradGradGradGradGradGradGradGradGradGradGradGradGradGradGradGrad
 Berny optimization.
 Initialization pass.
                           ----------------------------
                           !    Initial Parameters    !
                           ! (Angstroms and Degrees)  !
 --------------------------                            --------------------------
 ! Name  Definition              Value          Derivative Info.                !
 --------------------------------------------------------------------------------
 ! R1    R(1,2)                  1.4389         estimate D2E/DX2                !
 ! R2    R(1,4)                  1.4361         estimate D2E/DX2                !
 ! R3    R(1,5)                  1.0784         estimate D2E/DX2                !
 ! R4    R(2,3)                  1.46           estimate D2E/DX2                !
 ! R5    R(2,19)                 1.5384         estimate D2E/DX2                !
 ! R6    R(3,6)                  1.797          estimate D2E/DX2                !
 ! R7    R(3,8)                  1.455          estimate D2E/DX2                !
 ! R8    R(4,6)                  1.7393         estimate D2E/DX2                !
 ! R9    R(4,7)                  1.0799         estimate D2E/DX2                !
 ! R10   R(8,9)                  1.7904         estimate D2E/DX2                !
 ! R11   R(8,12)                 1.4646         estimate D2E/DX2                !
 ! R12   R(9,10)                 1.7297         estimate D2E/DX2                !
 ! R13   R(10,11)                1.4414         estimate D2E/DX2                !
 ! R14   R(10,16)                1.4265         estimate D2E/DX2                !
 ! R15   R(11,12)                1.4328         estimate D2E/DX2                !
 ! R16   R(11,14)                1.7322         estimate D2E/DX2                !
 ! R17   R(12,13)                1.079          estimate D2E/DX2                !
 ! R18   R(14,15)                1.7653         estimate D2E/DX2                !
 ! R19   R(15,16)                1.4448         estimate D2E/DX2                !
 ! R20   R(15,17)                1.081          estimate D2E/DX2                !
 ! R21   R(16,18)                1.0868         estimate D2E/DX2                !
 ! R22   R(19,20)                1.1545         estimate D2E/DX2                !
 ! A1    A(2,1,4)              112.8843         estimate D2E/DX2                !
 ! A2    A(2,1,5)              124.5209         estimate D2E/DX2                !
 ! A3    A(4,1,5)              122.5942         estimate D2E/DX2                !
 ! A4    A(1,2,3)              112.9799         estimate D2E/DX2                !
 ! A5    A(1,2,19)             127.059          estimate D2E/DX2                !
 ! A6    A(3,2,19)             118.5686         estimate D2E/DX2                !
 ! A7    A(2,3,6)              109.1138         estimate D2E/DX2                !
 ! A8    A(2,3,8)              132.8639         estimate D2E/DX2                !
 ! A9    A(6,3,8)              118.0132         estimate D2E/DX2                !
 ! A10   A(1,4,6)              111.9209         estimate D2E/DX2                !
 ! A11   A(1,4,7)              124.6643         estimate D2E/DX2                !
 ! A12   A(6,4,7)              123.4062         estimate D2E/DX2                !
 ! A13   A(3,6,4)               93.0997         estimate D2E/DX2                !
 ! A14   A(3,8,9)              121.983          estimate D2E/DX2                !
 ! A15   A(3,8,12)             128.3627         estimate D2E/DX2                !
 ! A16   A(9,8,12)             109.6137         estimate D2E/DX2                !
 ! A17   A(8,9,10)              92.7637         estimate D2E/DX2                !
 ! A18   A(9,10,11)            112.424          estimate D2E/DX2                !
 ! A19   A(9,10,16)            128.235          estimate D2E/DX2                !
 ! A20   A(11,10,16)           112.5628         estimate D2E/DX2                !
 ! A21   A(10,11,12)           112.6236         estimate D2E/DX2                !
 ! A22   A(10,11,14)           112.6831         estimate D2E/DX2                !
 ! A23   A(12,11,14)           128.1874         estimate D2E/DX2                !
 ! A24   A(8,12,11)            112.5306         estimate D2E/DX2                !
 ! A25   A(8,12,13)            123.7885         estimate D2E/DX2                !
 ! A26   A(11,12,13)           123.0101         estimate D2E/DX2                !
 ! A27   A(11,14,15)            91.3057         estimate D2E/DX2                !
 ! A28   A(14,15,16)           112.2716         estimate D2E/DX2                !
 ! A29   A(14,15,17)           122.376          estimate D2E/DX2                !
 ! A30   A(16,15,17)           124.3584         estimate D2E/DX2                !
 ! A31   A(10,16,15)           111.1569         estimate D2E/DX2                !
 ! A32   A(10,16,18)           124.0483         estimate D2E/DX2                !
 ! A33   A(15,16,18)           122.7099         estimate D2E/DX2                !
 ! A34   A(2,19,20)            133.0318         estimate D2E/DX2                !
 ! D1    D(4,1,2,3)              0.3915         estimate D2E/DX2                !
 ! D2    D(4,1,2,19)          -165.8104         estimate D2E/DX2                !
 ! D3    D(5,1,2,3)           -179.8811         estimate D2E/DX2                !
 ! D4    D(5,1,2,19)            13.9169         estimate D2E/DX2                !
 ! D5    D(2,1,4,6)             -0.3845         estimate D2E/DX2                !
 ! D6    D(2,1,4,7)           -179.3471         estimate D2E/DX2                !
 ! D7    D(5,1,4,6)            179.8822         estimate D2E/DX2                !
 ! D8    D(5,1,4,7)              0.9196         estimate D2E/DX2                !
 ! D9    D(1,2,3,6)             -0.2224         estimate D2E/DX2                !
 ! D10   D(1,2,3,8)            178.6265         estimate D2E/DX2                !
 ! D11   D(19,2,3,6)           167.2616         estimate D2E/DX2                !
 ! D12   D(19,2,3,8)           -13.8895         estimate D2E/DX2                !
 ! D13   D(1,2,19,20)          -16.0519         estimate D2E/DX2                !
 ! D14   D(3,2,19,20)          178.4264         estimate D2E/DX2                !
 ! D15   D(2,3,6,4)              0.0033         estimate D2E/DX2                !
 ! D16   D(8,3,6,4)           -179.041          estimate D2E/DX2                !
 ! D17   D(2,3,8,9)            -74.9832         Frozen                          !
 ! D18   D(2,3,8,12)           102.4501         estimate D2E/DX2                !
 ! D19   D(6,3,8,9)            103.7847         estimate D2E/DX2                !
 ! D20   D(6,3,8,12)           -78.782          estimate D2E/DX2                !
 ! D21   D(1,4,6,3)              0.2153         estimate D2E/DX2                !
 ! D22   D(7,4,6,3)            179.1932         estimate D2E/DX2                !
 ! D23   D(3,8,9,10)           179.7966         estimate D2E/DX2                !
 ! D24   D(12,8,9,10)            1.933          estimate D2E/DX2                !
 ! D25   D(3,8,12,11)         -179.8535         estimate D2E/DX2                !
 ! D26   D(3,8,12,13)           -9.0087         estimate D2E/DX2                !
 ! D27   D(9,8,12,11)           -2.1645         estimate D2E/DX2                !
 ! D28   D(9,8,12,13)          168.6802         estimate D2E/DX2                !
 ! D29   D(8,9,10,11)           -1.247          estimate D2E/DX2                !
 ! D30   D(8,9,10,16)         -149.8506         estimate D2E/DX2                !
 ! D31   D(9,10,11,12)           0.1962         estimate D2E/DX2                !
 ! D32   D(9,10,11,14)        -153.9757         estimate D2E/DX2                !
 ! D33   D(16,10,11,12)        153.8933         estimate D2E/DX2                !
 ! D34   D(16,10,11,14)         -0.2786         estimate D2E/DX2                !
 ! D35   D(9,10,16,15)         149.728          estimate D2E/DX2                !
 ! D36   D(9,10,16,18)         -14.1859         estimate D2E/DX2                !
 ! D37   D(11,10,16,15)          1.1595         estimate D2E/DX2                !
 ! D38   D(11,10,16,18)       -162.7544         estimate D2E/DX2                !
 ! D39   D(10,11,12,8)           1.3061         estimate D2E/DX2                !
 ! D40   D(10,11,12,13)       -169.621          estimate D2E/DX2                !
 ! D41   D(14,11,12,8)         150.5475         estimate D2E/DX2                !
 ! D42   D(14,11,12,13)        -20.3796         estimate D2E/DX2                !
 ! D43   D(10,11,14,15)         -0.5196         estimate D2E/DX2                !
 ! D44   D(12,11,14,15)       -149.7462         estimate D2E/DX2                !
 ! D45   D(11,14,15,16)          1.1851         estimate D2E/DX2                !
 ! D46   D(11,14,15,17)        170.2325         estimate D2E/DX2                !
 ! D47   D(14,15,16,10)         -1.5454         estimate D2E/DX2                !
 ! D48   D(14,15,16,18)        162.6207         estimate D2E/DX2                !
 ! D49   D(17,15,16,10)       -170.3371         estimate D2E/DX2                !
 ! D50   D(17,15,16,18)         -6.171          estimate D2E/DX2                !
 --------------------------------------------------------------------------------
 Trust Radius=3.00D-01 FncErr=1.00D-07 GrdErr=1.00D-06 EigMax=2.50D+02 EigMin=1.00D-04
 Number of steps in this run=    116 maximum allowed number of steps=    120.
 GradGradGradGradGradGradGradGradGradGradGradGradGradGradGradGradGradGrad

                          Input orientation:                          
 ---------------------------------------------------------------------
 Center     Atomic      Atomic             Coordinates (Angstroms)
 Number     Number       Type             X           Y           Z
 ---------------------------------------------------------------------
      1          6           0       -4.250000   -1.360000   -0.210000
      2          6           0       -2.930000   -0.950000   -0.610000
      3          6           0       -1.970000   -2.050000   -0.620000
      4          6           0       -4.330000   -2.760000    0.100000
      5          1           0       -5.100000   -0.700000   -0.140000
      6         16           0       -2.800000   -3.560000   -0.110000
      7          1           0       -5.230000   -3.270000    0.410000
      8          6           0       -0.560000   -2.130000   -0.970000
      9         16           0       -0.002000   -2.101000   -2.671000
     10          6           0        1.662000   -2.223000   -2.215000
     11          6           0        1.839000   -2.259000   -0.785000
     12          6           0        0.597000   -2.190000   -0.074000
     13          1           0        0.538000   -2.041000    0.993000
     14         16           0        3.391000   -1.671000   -0.289000
     15          6           0        3.859000   -1.374000   -1.965000
     16          6           0        2.804000   -1.705000   -2.895000
     17          1           0        4.756000   -0.831000   -2.228000
     18          1           0        2.790000   -1.344000   -3.920000
     19          8           0       -2.400000    0.490000   -0.720000
     20          1           0       -2.920000    1.520000   -0.760000
 ---------------------------------------------------------------------
                    Distance matrix (angstroms):
                    1          2          3          4          5
     1  C    0.000000
     2  C    1.438923   0.000000
     3  C    2.417147   1.460034   0.000000
     4  C    1.436141   2.395871   2.567509   0.000000
     5  H    1.078425   2.234346   3.442354   2.212261   0.000000
     6  S    2.636759   2.660639   1.796970   1.739253   3.670218
     7  H    2.234480   3.422397   3.630000   1.079907   2.631406
     8  C    3.845335   2.671872   1.454991   3.969219   4.831708
     9  S    4.964988   3.761078   2.842926   5.181149   5.861601
    10  C    6.302106   5.028222   3.970564   6.446058   7.235316
    11  C    6.181808   4.948481   3.818296   6.252263   7.141164
    12  C    4.919431   3.776854   2.628156   4.962913   5.888995
    13  H    4.983564   3.973275   2.981931   5.001183   5.904999
    14  S    7.647735   6.370080   5.384563   7.807117   8.547638
    15  C    8.296752   6.935872   6.020236   8.558326   9.167801
    16  C    7.555605   6.218521   5.299597   7.808777   8.430496
    17  H    9.244469   7.855360   7.022158   9.575804  10.075596
    18  H    7.957761   6.620403   5.834898   8.298184   8.772413
    19  O    2.665539   1.538376   2.578081   3.867790   3.007075
    20  H    3.219596   2.474571   3.696891   4.587603   3.172570
                    6          7          8          9         10
     6  S    0.000000
     7  H    2.501879   0.000000
     8  C    2.793224   5.001290   0.000000
     9  S    4.064014   6.179895   1.790421   0.000000
    10  C    5.111559   7.448926   2.548717   1.729658   0.000000
    11  C    4.865033   7.240228   2.409578   2.640311   1.441362
    12  C    3.663032   5.945972   1.464604   2.666670   2.391484
    13  H    3.829649   5.926226   2.250976   3.704065   3.404080
    14  S    6.475248   8.795854   4.035448   4.167886   2.646436
    15  C    7.249959   9.583599   4.592289   3.991777   2.368567
    16  C    6.527026   8.827084   3.899070   2.842645   1.426495
    17  H    8.308219  10.612632   5.615142   4.944463   3.392738
    18  H    7.118627   9.315513   4.532416   3.150923   2.225320
    19  O    4.115167   4.839773   3.211308   4.033619   5.108350
    20  H    5.122821   5.445099   4.351574   5.027752   6.092766
                   11         12         13         14         15
    11  C    0.000000
    12  C    1.432776   0.000000
    13  H    2.213913   1.078968   0.000000
    14  S    1.732185   2.849916   3.149608   0.000000
    15  C    2.501205   3.857769   4.497076   1.765279   0.000000
    16  C    2.385423   3.614431   4.512671   2.671509   1.444813
    17  H    3.553916   4.876872   5.443387   2.515660   1.081031
    18  H    3.401448   4.507403   5.449301   3.694901   2.228382
    19  O    5.052756   4.072066   4.239360   6.196076   6.648278
    20  H    6.076969   5.157905   5.264171   7.087527   7.468742
                   16         17         18         19         20
    16  C    0.000000
    17  H    2.240328   0.000000
    18  H    1.086804   2.644086   0.000000
    19  O    6.052294   7.431517   6.367076   0.000000
    20  H    6.908185   8.161078   7.126864   1.154513   0.000000
 Stoichiometry    C10H6OS3
 Framework group  C1[X(C10H6OS3)]
 Deg. of freedom    54
 Full point group                 C1      NOp   1
 Largest Abelian subgroup         C1      NOp   1
 Largest concise Abelian subgroup C1      NOp   1
                         Standard orientation:                         
 ---------------------------------------------------------------------
 Center     Atomic      Atomic             Coordinates (Angstroms)
 Number     Number       Type             X           Y           Z
 ---------------------------------------------------------------------
      1          6           0        4.009591    0.644942   -0.417628
      2          6           0        2.618554    1.010069   -0.464515
      3          6           0        1.732089   -0.064699   -0.027762
      4          6           0        4.218807   -0.700078    0.040247
      5          1           0        4.822232    1.296543   -0.696964
      6         16           0        2.720176   -1.498050    0.417534
      7          1           0        5.186186   -1.165513    0.157504
      8          6           0        0.287569   -0.158042    0.119374
      9         16           0       -0.579989    0.624312    1.476161
     10          6           0       -2.120470    0.063755    0.924427
     11          6           0       -2.024299   -0.693937   -0.297939
     12          6           0       -0.676365   -0.810691   -0.769414
     13          1           0       -0.426311   -1.198198   -1.744854
     14         16           0       -3.484273   -0.647952   -1.228974
     15          6           0       -4.272774    0.365136   -0.017311
     16          6           0       -3.394970    0.684022    1.085077
     17          1           0       -5.230116    0.836293   -0.190902
     18          1           0       -3.592018    1.499662    1.775762
     19          8           0        2.003319    2.228619   -1.173896
     20          1           0        2.452445    3.206455   -1.592254
 ---------------------------------------------------------------------
 Rotational constants (GHZ):           1.1712103           0.2551054           0.2491844
 Standard basis: 6-311+G(d,p) (5D, 7F)
 There are   382 symmetry adapted cartesian basis functions of A   symmetry.
 There are   368 symmetry adapted basis functions of A   symmetry.
   368 basis functions,   594 primitive gaussians,   382 cartesian basis functions
    61 alpha electrons       61 beta electrons
       nuclear repulsion energy      1100.3752675960 Hartrees.
 NAtoms=   20 NActive=   20 NUniq=   20 SFac= 1.00D+00 NAtFMM=   60 NAOKFM=F Big=F
 Integral buffers will be    131072 words long.
 Raffenetti 2 integral format.
 Two-electron integral symmetry is turned on.
 One-electron integrals computed using PRISM.
 NBasis=   368 RedAO= T EigKep=  3.99D-06  NBF=   368
 NBsUse=   367 1.00D-06 EigRej=  5.56D-07 NBFU=   367
 ExpMin= 4.05D-02 ExpMax= 9.34D+04 ExpMxC= 3.17D+03 IAcc=3 IRadAn=         5 AccDes= 0.00D+00
 Harris functional with IExCor=  402 and IRadAn=       5 diagonalized for initial guess.
 HarFok:  IExCor=  402 AccDes= 0.00D+00 IRadAn=         5 IDoV= 1 UseB2=F ITyADJ=14
 ICtDFT=  3500011 ScaDFX=  1.000000  1.000000  1.000000  1.000000
 FoFCou: FMM=F IPFlag=           0 FMFlag=      100000 FMFlg1=           0
         NFxFlg=           0 DoJE=T BraDBF=F KetDBF=T FulRan=T
         wScrn=  0.000000 ICntrl=       500 IOpCl=  0 I1Cent=   200000004 NGrid=           0
         NMat0=    1 NMatS0=      1 NMatT0=    0 NMatD0=    1 NMtDS0=    0 NMtDT0=    0
 Petite list used in FoFCou.
 Requested convergence on RMS density matrix=1.00D-08 within 128 cycles.
 Requested convergence on MAX density matrix=1.00D-06.
 Requested convergence on             energy=1.00D-06.
 No special actions if energy rises.
 SCF Done:  E(RB3LYP) =  -1654.53054534     A.U. after   17 cycles
            NFock= 17  Conv=0.46D-08     -V/T= 2.0031

 **********************************************************************

            Population analysis using the SCF Density.

 **********************************************************************

 Orbital symmetries:
       Occupied  (A) (A) (A) (A) (A) (A) (A) (A) (A) (A) (A) (A)
                 (A) (A) (A) (A) (A) (A) (A) (A) (A) (A) (A) (A)
                 (A) (A) (A) (A) (A) (A) (A) (A) (A) (A) (A) (A)
                 (A) (A) (A) (A) (A) (A) (A) (A) (A) (A) (A) (A)
                 (A) (A) (A) (A) (A) (A) (A) (A) (A) (A) (A) (A)
                 (A)
       Virtual   (A) (A) (A) (A) (A) (A) (A) (A) (A) (A) (A) (A)
                 (A) (A) (A) (A) (A) (A) (A) (A) (A) (A) (A) (A)
                 (A) (A) (A) (A) (A) (A) (A) (A) (A) (A) (A) (A)
                 (A) (A) (A) (A) (A) (A) (A) (A) (A) (A) (A) (A)
                 (A) (A) (A) (A) (A) (A) (A) (A) (A) (A) (A) (A)
                 (A) (A) (A) (A) (A) (A) (A) (A) (A) (A) (A) (A)
                 (A) (A) (A) (A) (A) (A) (A) (A) (A) (A) (A) (A)
                 (A) (A) (A) (A) (A) (A) (A) (A) (A) (A) (A) (A)
                 (A) (A) (A) (A) (A) (A) (A) (A) (A) (A) (A) (A)
                 (A) (A) (A) (A) (A) (A) (A) (A) (A) (A) (A) (A)
                 (A) (A) (A) (A) (A) (A) (A) (A) (A) (A) (A) (A)
                 (A) (A) (A) (A) (A) (A) (A) (A) (A) (A) (A) (A)
                 (A) (A) (A) (A) (A) (A) (A) (A) (A) (A) (A) (A)
                 (A) (A) (A) (A) (A) (A) (A) (A) (A) (A) (A) (A)
                 (A) (A) (A) (A) (A) (A) (A) (A) (A) (A) (A) (A)
                 (A) (A) (A) (A) (A) (A) (A) (A) (A) (A) (A) (A)
                 (A) (A) (A) (A) (A) (A) (A) (A) (A) (A) (A) (A)
                 (A) (A) (A) (A) (A) (A) (A) (A) (A) (A) (A) (A)
                 (A) (A) (A) (A) (A) (A) (A) (A) (A) (A) (A) (A)
                 (A) (A) (A) (A) (A) (A) (A) (A) (A) (A) (A) (A)
                 (A) (A) (A) (A) (A) (A) (A) (A) (A) (A) (A) (A)
                 (A) (A) (A) (A) (A) (A) (A) (A) (A) (A) (A) (A)
                 (A) (A) (A) (A) (A) (A) (A) (A) (A) (A) (A) (A)
                 (A) (A) (A) (A) (A) (A) (A) (A) (A) (A) (A) (A)
                 (A) (A) (A) (A) (A) (A) (A) (A) (A) (A) (A) (A)
                 (A) (A) (A) (A) (A) (A)
 The electronic state is 1-A.
 Alpha  occ. eigenvalues --  -88.89573 -88.88831 -88.88304 -19.15888 -10.27473
 Alpha  occ. eigenvalues --  -10.23354 -10.23140 -10.22474 -10.21857 -10.21621
 Alpha  occ. eigenvalues --  -10.21581 -10.20417 -10.20290 -10.20046  -7.98012
 Alpha  occ. eigenvalues --   -7.97354  -7.96826  -5.94306  -5.93944  -5.93665
 Alpha  occ. eigenvalues --   -5.93619  -5.93308  -5.93143  -5.92909  -5.92777
 Alpha  occ. eigenvalues --   -5.92372  -0.98043  -0.90247  -0.87648  -0.83329
 Alpha  occ. eigenvalues --   -0.77141  -0.75140  -0.73904  -0.70708  -0.68595
 Alpha  occ. eigenvalues --   -0.61607  -0.57979  -0.57336  -0.53986  -0.53226
 Alpha  occ. eigenvalues --   -0.51323  -0.48815  -0.45811  -0.44603  -0.42818
 Alpha  occ. eigenvalues --   -0.41994  -0.40493  -0.39630  -0.39256  -0.38634
 Alpha  occ. eigenvalues --   -0.37030  -0.36394  -0.34421  -0.34148  -0.33270
 Alpha  occ. eigenvalues --   -0.32739  -0.28753  -0.25747  -0.23893  -0.23223
 Alpha  occ. eigenvalues --   -0.21177
 Alpha virt. eigenvalues --   -0.06475  -0.05074  -0.04636  -0.01648  -0.00613
 Alpha virt. eigenvalues --   -0.00079   0.00312   0.01218   0.01241   0.01762
 Alpha virt. eigenvalues --    0.02433   0.03033   0.03321   0.03750   0.04087
 Alpha virt. eigenvalues --    0.04445   0.04991   0.05605   0.06022   0.06836
 Alpha virt. eigenvalues --    0.07309   0.07589   0.07960   0.08853   0.09014
 Alpha virt. eigenvalues --    0.09378   0.09624   0.10698   0.11032   0.11392
 Alpha virt. eigenvalues --    0.11693   0.12037   0.12516   0.12938   0.13360
 Alpha virt. eigenvalues --    0.13605   0.14188   0.14857   0.14988   0.15428
 Alpha virt. eigenvalues --    0.15909   0.16160   0.17003   0.17099   0.17588
 Alpha virt. eigenvalues --    0.17828   0.18273   0.18641   0.19307   0.19703
 Alpha virt. eigenvalues --    0.19779   0.20511   0.20666   0.20839   0.20998
 Alpha virt. eigenvalues --    0.21423   0.22094   0.22114   0.22336   0.22566
 Alpha virt. eigenvalues --    0.22780   0.23651   0.23838   0.24561   0.25255
 Alpha virt. eigenvalues --    0.25780   0.26302   0.26801   0.27246   0.28120
 Alpha virt. eigenvalues --    0.28492   0.29080   0.29938   0.30736   0.31700
 Alpha virt. eigenvalues --    0.32615   0.33031   0.33498   0.34216   0.34755
 Alpha virt. eigenvalues --    0.36450   0.36584   0.37335   0.38469   0.38930
 Alpha virt. eigenvalues --    0.41210   0.42139   0.43151   0.43939   0.44602
 Alpha virt. eigenvalues --    0.44708   0.46206   0.47702   0.49420   0.52329
 Alpha virt. eigenvalues --    0.54409   0.54760   0.55476   0.55915   0.56396
 Alpha virt. eigenvalues --    0.57441   0.58796   0.59254   0.59765   0.60680
 Alpha virt. eigenvalues --    0.61650   0.62170   0.63376   0.64054   0.64994
 Alpha virt. eigenvalues --    0.66207   0.67572   0.68083   0.69112   0.69464
 Alpha virt. eigenvalues --    0.70622   0.70922   0.71753   0.72032   0.72858
 Alpha virt. eigenvalues --    0.73499   0.74602   0.74925   0.75999   0.77202
 Alpha virt. eigenvalues --    0.77682   0.78019   0.80270   0.81045   0.81246
 Alpha virt. eigenvalues --    0.82179   0.82649   0.83476   0.84937   0.85939
 Alpha virt. eigenvalues --    0.86727   0.88200   0.90176   0.90432   0.92268
 Alpha virt. eigenvalues --    0.92768   0.93514   0.93857   0.94450   0.95341
 Alpha virt. eigenvalues --    0.97178   0.98201   1.00355   1.00935   1.01678
 Alpha virt. eigenvalues --    1.02263   1.03636   1.05670   1.05904   1.08121
 Alpha virt. eigenvalues --    1.10904   1.13501   1.13758   1.15336   1.18099
 Alpha virt. eigenvalues --    1.21234   1.24285   1.25177   1.28884   1.30900
 Alpha virt. eigenvalues --    1.33447   1.35269   1.38267   1.40126   1.40563
 Alpha virt. eigenvalues --    1.43497   1.47055   1.47394   1.50451   1.52753
 Alpha virt. eigenvalues --    1.53744   1.54383   1.56006   1.57692   1.58859
 Alpha virt. eigenvalues --    1.61229   1.62184   1.62650   1.64657   1.66547
 Alpha virt. eigenvalues --    1.67143   1.68235   1.69380   1.69886   1.71511
 Alpha virt. eigenvalues --    1.72813   1.73703   1.76718   1.77383   1.79028
 Alpha virt. eigenvalues --    1.80492   1.80828   1.82746   1.84401   1.85297
 Alpha virt. eigenvalues --    1.86907   1.88811   1.89462   1.91475   1.92914
 Alpha virt. eigenvalues --    1.94130   1.94717   1.96858   1.99598   2.00261
 Alpha virt. eigenvalues --    2.01957   2.02894   2.03714   2.05426   2.05708
 Alpha virt. eigenvalues --    2.08998   2.10070   2.11258   2.12345   2.13418
 Alpha virt. eigenvalues --    2.14557   2.17615   2.24035   2.26657   2.34374
 Alpha virt. eigenvalues --    2.34603   2.36491   2.38530   2.45380   2.47674
 Alpha virt. eigenvalues --    2.49641   2.52548   2.55554   2.57670   2.65288
 Alpha virt. eigenvalues --    2.67297   2.68431   2.70072   2.71278   2.71560
 Alpha virt. eigenvalues --    2.74427   2.74660   2.76174   2.76794   2.79912
 Alpha virt. eigenvalues --    2.83060   2.86103   2.88336   2.90941   2.93221
 Alpha virt. eigenvalues --    2.94565   2.97505   2.98734   3.01366   3.02979
 Alpha virt. eigenvalues --    3.03804   3.05774   3.07627   3.13054   3.20041
 Alpha virt. eigenvalues --    3.22880   3.24094   3.26216   3.32888   3.36768
 Alpha virt. eigenvalues --    3.39824   3.46157   3.55233   3.62996   3.72365
 Alpha virt. eigenvalues --    3.90368   3.94504   4.01075   4.04532   4.12898
 Alpha virt. eigenvalues --    4.30193   4.41617   5.02540   5.19976   5.44249
 Alpha virt. eigenvalues --    7.93670   7.94935   7.97317  17.28410  17.29009
 Alpha virt. eigenvalues --   17.31405  17.42763  17.43865  17.47141  17.47427
 Alpha virt. eigenvalues --   17.49704  17.52233  23.44747  23.58374  23.71856
 Alpha virt. eigenvalues --   23.77347  23.79659  23.85278  23.86586  23.94204
 Alpha virt. eigenvalues --   23.95323  23.96214  49.86212 189.09838 189.11190
 Alpha virt. eigenvalues --  189.13979
          Condensed to atoms (all electrons):
               1          2          3          4          5          6
     1  C    7.665153  -2.049837   0.410743  -0.207031   0.421385   0.342440
     2  C   -2.049837  12.080834  -3.361282   1.091412  -0.070970  -1.427601
     3  C    0.410743  -3.361282   9.760626  -0.957619   0.018223   0.552169
     4  C   -0.207031   1.091412  -0.957619   5.927960  -0.018328  -0.135685
     5  H    0.421385  -0.070970   0.018223  -0.018328   0.518131   0.005384
     6  S    0.342440  -1.427601   0.552169  -0.135685   0.005384  16.830767
     7  H    0.032926  -0.058558   0.028991   0.365701  -0.004431  -0.007504
     8  C    0.043215  -0.952322   0.770412  -0.110191  -0.005154   0.005389
     9  S    0.001372  -0.186222   0.440202  -0.017496   0.000112   0.158500
    10  C    0.050194   0.267157  -0.981412   0.009240  -0.000054  -0.193964
    11  C   -0.177294  -0.427747   1.038046   0.034964  -0.000057   0.270496
    12  C   -0.149423   0.455532  -1.649648   0.060396  -0.000195  -0.214085
    13  H    0.001084   0.003022   0.024000   0.000504  -0.000001   0.002251
    14  S   -0.017943   0.018120   0.021306   0.004269  -0.000001   0.001789
    15  C    0.002557  -0.004419  -0.019092  -0.000697   0.000001  -0.001706
    16  C   -0.009495   0.134470  -0.030321   0.008430  -0.000008  -0.046107
    17  H   -0.000003  -0.000132  -0.000057  -0.000001   0.000000   0.000013
    18  H   -0.000023  -0.000593  -0.000178  -0.000007   0.000000   0.000119
    19  O   -0.198951   0.559094  -0.180930   0.030745  -0.003195   0.015783
    20  H   -0.058996  -0.017434   0.042549   0.001601   0.000265  -0.012144
               7          8          9         10         11         12
     1  C    0.032926   0.043215   0.001372   0.050194  -0.177294  -0.149423
     2  C   -0.058558  -0.952322  -0.186222   0.267157  -0.427747   0.455532
     3  C    0.028991   0.770412   0.440202  -0.981412   1.038046  -1.649648
     4  C    0.365701  -0.110191  -0.017496   0.009240   0.034964   0.060396
     5  H   -0.004431  -0.005154   0.000112  -0.000054  -0.000057  -0.000195
     6  S   -0.007504   0.005389   0.158500  -0.193964   0.270496  -0.214085
     7  H    0.478511  -0.004193  -0.000368   0.000006  -0.000402  -0.000543
     8  C   -0.004193   8.906458   0.299445  -1.158220   1.238908  -2.959304
     9  S   -0.000368   0.299445  17.763114  -1.345842   2.198532  -2.746513
    10  C    0.000006  -1.158220  -1.345842  14.730815  -7.029106   3.453020
    11  C   -0.000402   1.238908   2.198532  -7.029106  17.783599  -7.650079
    12  C   -0.000543  -2.959304  -2.746513   3.453020  -7.650079  16.528850
    13  H    0.000001   0.071789   0.011092  -0.053496   0.053973   0.229108
    14  S   -0.000008  -0.320161   0.220892   0.227510  -0.477100  -0.109697
    15  C    0.000000   0.075360   0.037070   0.827044  -0.581314  -0.172607
    16  C   -0.000012  -0.237014  -0.598406  -3.080794  -0.412509   1.194897
    17  H   -0.000000  -0.001637   0.002151   0.004932   0.007803   0.006084
    18  H    0.000000   0.006523   0.019089   0.024106  -0.020365  -0.010713
    19  O   -0.000185  -0.057511   0.011003   0.014663   0.004306  -0.014815
    20  H   -0.000018   0.018337   0.005310  -0.000842   0.004466   0.001661
              13         14         15         16         17         18
     1  C    0.001084  -0.017943   0.002557  -0.009495  -0.000003  -0.000023
     2  C    0.003022   0.018120  -0.004419   0.134470  -0.000132  -0.000593
     3  C    0.024000   0.021306  -0.019092  -0.030321  -0.000057  -0.000178
     4  C    0.000504   0.004269  -0.000697   0.008430  -0.000001  -0.000007
     5  H   -0.000001  -0.000001   0.000001  -0.000008   0.000000   0.000000
     6  S    0.002251   0.001789  -0.001706  -0.046107   0.000013   0.000119
     7  H    0.000001  -0.000008   0.000000  -0.000012  -0.000000   0.000000
     8  C    0.071789  -0.320161   0.075360  -0.237014  -0.001637   0.006523
     9  S    0.011092   0.220892   0.037070  -0.598406   0.002151   0.019089
    10  C   -0.053496   0.227510   0.827044  -3.080794   0.004932   0.024106
    11  C    0.053973  -0.477100  -0.581314  -0.412509   0.007803  -0.020365
    12  C    0.229108  -0.109697  -0.172607   1.194897   0.006084  -0.010713
    13  H    0.513022   0.009536  -0.000714  -0.008349  -0.000004   0.000017
    14  S    0.009536  16.579418   0.368748  -0.364305  -0.022033   0.004687
    15  C   -0.000714   0.368748   5.644300  -0.243563   0.374432   0.009324
    16  C   -0.008349  -0.364305  -0.243563   9.521512  -0.017096   0.315317
    17  H   -0.000004  -0.022033   0.374432  -0.017096   0.474895  -0.003581
    18  H    0.000017   0.004687   0.009324   0.315317  -0.003581   0.514877
    19  O   -0.000278   0.000580   0.000099  -0.005518   0.000001  -0.000002
    20  H   -0.000020   0.000211   0.000036  -0.000133   0.000000  -0.000000
              19         20
     1  C   -0.198951  -0.058996
     2  C    0.559094  -0.017434
     3  C   -0.180930   0.042549
     4  C    0.030745   0.001601
     5  H   -0.003195   0.000265
     6  S    0.015783  -0.012144
     7  H   -0.000185  -0.000018
     8  C   -0.057511   0.018337
     9  S    0.011003   0.005310
    10  C    0.014663  -0.000842
    11  C    0.004306   0.004466
    12  C   -0.014815   0.001661
    13  H   -0.000278  -0.000020
    14  S    0.000580   0.000211
    15  C    0.000099   0.000036
    16  C   -0.005518  -0.000133
    17  H    0.000001   0.000000
    18  H   -0.000002  -0.000000
    19  O    8.014645   0.195443
    20  H    0.195443   0.526179
 Mulliken charges:
               1
     1  C   -0.102069
     2  C   -0.052526
     3  C    0.073272
     4  C   -0.088167
     5  H    0.138893
     6  S   -0.146303
     7  H    0.170087
     8  C    0.369870
     9  S   -0.273035
    10  C    0.235044
    11  C    0.140879
    12  C   -0.251925
    13  H    0.143464
    14  S   -0.145819
    15  C   -0.314860
    16  C   -0.120995
    17  H    0.174233
    18  H    0.141402
    19  O   -0.384976
    20  H    0.293530
 Sum of Mulliken charges =  -0.00000
 Mulliken charges with hydrogens summed into heavy atoms:
               1
     1  C    0.036825
     2  C   -0.052526
     3  C    0.073272
     4  C    0.081920
     6  S   -0.146303
     8  C    0.369870
     9  S   -0.273035
    10  C    0.235044
    11  C    0.140879
    12  C   -0.108461
    14  S   -0.145819
    15  C   -0.140627
    16  C    0.020407
    19  O   -0.091446
 Electronic spatial extent (au):  <R**2>=           4395.0470
 Charge=              0.0000 electrons
 Dipole moment (field-independent basis, Debye):
    X=              1.8409    Y=              1.6894    Z=             -0.9791  Tot=              2.6836
 Quadrupole moment (field-independent basis, Debye-Ang):
   XX=            -82.7751   YY=            -96.2767   ZZ=           -103.2874
   XY=             -0.8049   XZ=             -2.4032   YZ=             -0.9014
 Traceless Quadrupole moment (field-independent basis, Debye-Ang):
   XX=             11.3379   YY=             -2.1636   ZZ=             -9.1743
   XY=             -0.8049   XZ=             -2.4032   YZ=             -0.9014
 Octapole moment (field-independent basis, Debye-Ang**2):
  XXX=             54.4295  YYY=             41.4029  ZZZ=             -9.8500  XYY=             32.6070
  XXY=             39.3580  XXZ=            -15.2427  XZZ=             -2.6538  YZZ=             11.1530
  YYZ=            -16.4146  XYZ=            -23.4494
 Hexadecapole moment (field-independent basis, Debye-Ang**3):
 XXXX=          -4214.6234 YYYY=           -596.4817 ZZZZ=           -614.1720 XXXY=           -100.2932
 XXXZ=              4.3095 YYYX=             89.1824 YYYZ=            -77.6541 ZZZX=             -5.2517
 ZZZY=             -4.7668 XXYY=           -826.7845 XXZZ=           -932.8733 YYZZ=           -184.5193
 XXYZ=            -42.6872 YYXZ=            -56.2758 ZZXY=             17.1885
 N-N= 1.100375267596D+03 E-N=-6.111197558990D+03  KE= 1.649472173442D+03
 Calling FoFJK, ICntrl=      2127 FMM=F ISym2X=0 I1Cent= 0 IOpClX= 0 NMat=1 NMatS=1 NMatT=0.
 ***** Axes restored to original set *****
 -------------------------------------------------------------------
 Center     Atomic                   Forces (Hartrees/Bohr)
 Number     Number              X              Y              Z
 -------------------------------------------------------------------
      1        6           0.015611920   -0.039193000    0.004274876
      2        6           0.027318159    0.020346621    0.011760687
      3        6          -0.035165218    0.026455225    0.002083165
      4        6           0.012089397    0.050818985   -0.015648110
      5        1          -0.000503927    0.001784357    0.000747309
      6       16          -0.006273285    0.024372412   -0.005370051
      7        1           0.002597448   -0.002765223    0.000414930
      8        6           0.053246773    0.005504758    0.031632364
      9       16          -0.008694996   -0.008754254    0.011077525
     10        6           0.016927415    0.016585238    0.025853472
     11        6          -0.033930993    0.009707365   -0.021332282
     12        6          -0.034337854   -0.000321430   -0.044434041
     13        1          -0.005162908   -0.004030107    0.001716432
     14       16           0.010742490   -0.003401732   -0.015353522
     15        6          -0.047109836   -0.010875279   -0.033849396
     16        6           0.034338997    0.017257170    0.041034915
     17        1           0.002857279   -0.005352205    0.003947047
     18        1           0.004832573   -0.007671934    0.001442109
     19        8          -0.030837366    0.015608521   -0.003780432
     20        1           0.021453930   -0.106075490    0.003783003
 -------------------------------------------------------------------
 Cartesian Forces:  Max     0.106075490 RMS     0.025508832

 GradGradGradGradGradGradGradGradGradGradGradGradGradGradGradGradGradGrad
 Berny optimization.
 FormGI is forming the generalized inverse of G from B-inverse, IUseBI=4.
 Internal  Forces:  Max     0.104429380 RMS     0.019880534
 Search for a local minimum.
 Step number   1 out of a maximum of  116
 All quantities printed in internal units (Hartrees-Bohrs-Radians)
 Mixed Optimization -- RFO/linear search
 Second derivative matrix not updated -- first step.
 ITU=  0
     Eigenvalues ---    0.00230   0.00994   0.01055   0.01221   0.01273
     Eigenvalues ---    0.01298   0.01362   0.01423   0.01458   0.01491
     Eigenvalues ---    0.01500   0.01592   0.01592   0.01767   0.02200
     Eigenvalues ---    0.02655   0.15084   0.15687   0.15736   0.15997
     Eigenvalues ---    0.16000   0.16000   0.17972   0.22442   0.22526
     Eigenvalues ---    0.23318   0.23973   0.24118   0.24633   0.24978
     Eigenvalues ---    0.24995   0.26145   0.26541   0.28307   0.28377
     Eigenvalues ---    0.28663   0.30910   0.31329   0.31604   0.34801
     Eigenvalues ---    0.35185   0.35870   0.35872   0.36006   0.36119
     Eigenvalues ---    0.36185   0.36302   0.37598   0.38282   0.38435
     Eigenvalues ---    0.39456   0.39674   0.405691000.000001000.00000
     Eigenvalues --- 1000.000001000.000001000.000001000.000001000.00000
     Eigenvalues --- 1000.000001000.000001000.000001000.000001000.00000
     Eigenvalues --- 1000.000001000.000001000.000001000.000001000.00000
     Eigenvalues --- 1000.000001000.000001000.000001000.000001000.00000
     Eigenvalues --- 1000.000001000.000001000.000001000.000001000.00000
     Eigenvalues --- 1000.000001000.000001000.000001000.000001000.00000
     Eigenvalues --- 1000.000001000.000001000.000001000.000001000.00000
     Eigenvalues --- 1000.000001000.000001000.000001000.000001000.00000
     Eigenvalues --- 1000.000001000.000001000.000001000.000001000.00000
     Eigenvalues --- 1000.000001000.000001000.000001000.000001000.00000
     Eigenvalues --- 1000.00000
 RFO step:  Lambda=-1.06997895D-01 EMin= 2.30000000D-03
 Linear search not attempted -- first point.
 Maximum step size (   0.300) exceeded in Quadratic search.
    -- Step size scaled by   0.583
 Iteration  1 RMS(Cart)=  0.05834836 RMS(Int)=  0.00202286
 Iteration  2 RMS(Cart)=  0.00237275 RMS(Int)=  0.00013328
 Iteration  3 RMS(Cart)=  0.00001581 RMS(Int)=  0.00013285
 Iteration  4 RMS(Cart)=  0.00000000 RMS(Int)=  0.00013285
 Iteration  1 RMS(Cart)=  0.00000008 RMS(Int)=  0.00000003
 Variable       Old X    -DE/DX   Delta X   Delta X   Delta X     New X
                                 (Linear)    (Quad)   (Total)
    R1        2.71917  -0.02255   0.00000  -0.02740  -0.02730   2.69187
    R2        2.71391  -0.05418   0.00000  -0.06260  -0.06258   2.65133
    R3        2.03793   0.00154   0.00000   0.00191   0.00191   2.03984
    R4        2.75906  -0.06466   0.00000  -0.07972  -0.07966   2.67940
    R5        2.90711  -0.08791   0.00000  -0.13021  -0.13021   2.77690
    R6        3.39578  -0.02165   0.00000  -0.03279  -0.03285   3.36293
    R7        2.74954  -0.00699   0.00000  -0.00844  -0.00844   2.74110
    R8        3.28671  -0.01319   0.00000  -0.01702  -0.01710   3.26961
    R9        2.04073  -0.00074   0.00000  -0.00092  -0.00092   2.03981
   R10        3.38340  -0.01124   0.00000  -0.01596  -0.01607   3.36733
   R11        2.76770  -0.06442   0.00000  -0.08008  -0.08014   2.68756
   R12        3.26858  -0.00081   0.00000  -0.00018  -0.00016   3.26842
   R13        2.72378  -0.03106   0.00000  -0.03716  -0.03692   2.68686
   R14        2.69568  -0.00219   0.00000  -0.00361  -0.00350   2.69218
   R15        2.70755  -0.01234   0.00000  -0.01532  -0.01525   2.69230
   R16        3.27335   0.00181   0.00000   0.00358   0.00356   3.27692
   R17        2.03895   0.00142   0.00000   0.00177   0.00177   2.04073
   R18        3.33589  -0.01230   0.00000  -0.01707  -0.01721   3.31869
   R19        2.73030  -0.05808   0.00000  -0.06882  -0.06886   2.66144
   R20        2.04285  -0.00128   0.00000  -0.00160  -0.00160   2.04125
   R21        2.05376  -0.00397   0.00000  -0.00505  -0.00505   2.04872
   R22        2.18171  -0.10443   0.00000  -0.15608  -0.15608   2.02563
    A1        1.97020  -0.00303   0.00000  -0.00835  -0.00822   1.96198
    A2        2.17330   0.00063   0.00000   0.00226   0.00219   2.17549
    A3        2.13967   0.00240   0.00000   0.00611   0.00604   2.14571
    A4        1.97187   0.01585   0.00000   0.02399   0.02412   1.99599
    A5        2.21760  -0.00454   0.00000  -0.00519  -0.00532   2.21228
    A6        2.06941  -0.01050   0.00000  -0.01508  -0.01523   2.05418
    A7        1.90440  -0.00631   0.00000  -0.01010  -0.01008   1.89432
    A8        2.31891  -0.00604   0.00000  -0.00998  -0.00999   2.30892
    A9        2.05972   0.01234   0.00000   0.02004   0.02003   2.07975
   A10        1.95339  -0.00172   0.00000  -0.00253  -0.00258   1.95081
   A11        2.17580   0.00465   0.00000   0.00954   0.00957   2.18537
   A12        2.15384  -0.00293   0.00000  -0.00702  -0.00700   2.14684
   A13        1.62490  -0.00480   0.00000  -0.00301  -0.00325   1.62165
   A14        2.12901  -0.00389   0.00000  -0.00596  -0.00597   2.12303
   A15        2.24035  -0.00325   0.00000  -0.00490  -0.00491   2.23544
   A16        1.91312   0.00721   0.00000   0.01124   0.01122   1.92434
   A17        1.61903  -0.00633   0.00000  -0.00780  -0.00772   1.61131
   A18        1.96217  -0.01107   0.00000  -0.01549  -0.01574   1.94643
   A19        2.23812   0.00908   0.00000   0.02187   0.02150   2.25962
   A20        1.96459   0.00577   0.00000   0.00930   0.00936   1.97395
   A21        1.96565   0.00762   0.00000   0.01157   0.01161   1.97727
   A22        1.96669  -0.01323   0.00000  -0.01887  -0.01901   1.94768
   A23        2.23729   0.00903   0.00000   0.02104   0.02068   2.25797
   A24        1.96403   0.00260   0.00000   0.00065   0.00077   1.96480
   A25        2.16052  -0.00564   0.00000  -0.00914  -0.00928   2.15124
   A26        2.14693   0.00360   0.00000   0.01114   0.01100   2.15793
   A27        1.59358   0.00030   0.00000   0.00212   0.00215   1.59573
   A28        1.95951   0.00174   0.00000   0.00171   0.00165   1.96116
   A29        2.13586  -0.00478   0.00000  -0.00828  -0.00843   2.12744
   A30        2.17046   0.00406   0.00000   0.01129   0.01118   2.18164
   A31        1.94005   0.00541   0.00000   0.00572   0.00584   1.94590
   A32        2.16505   0.00004   0.00000   0.00537   0.00509   2.17014
   A33        2.14169  -0.00361   0.00000  -0.00279  -0.00309   2.13860
   A34        2.32184  -0.06240   0.00000  -0.13626  -0.13626   2.18558
    D1        0.00683  -0.00078   0.00000  -0.00296  -0.00295   0.00389
    D2       -2.89394  -0.00371   0.00000  -0.01956  -0.01964  -2.91358
    D3       -3.13952   0.00008   0.00000   0.00117   0.00118  -3.13834
    D4        0.24290  -0.00285   0.00000  -0.01543  -0.01552   0.22738
    D5       -0.00671   0.00020   0.00000   0.00026   0.00020  -0.00651
    D6       -3.13020   0.00027   0.00000   0.00098   0.00097  -3.12923
    D7        3.13954  -0.00064   0.00000  -0.00377  -0.00383   3.13570
    D8        0.01605  -0.00057   0.00000  -0.00304  -0.00306   0.01299
    D9       -0.00388   0.00110   0.00000   0.00433   0.00432   0.00044
   D10        3.11762   0.00044   0.00000   0.00198   0.00200   3.11962
   D11        2.91927   0.00425   0.00000   0.02030   0.02027   2.93953
   D12       -0.24242   0.00359   0.00000   0.01794   0.01795  -0.22447
   D13       -0.28016   0.00178   0.00000   0.00382   0.00371  -0.27645
   D14        3.11413  -0.00451   0.00000  -0.01839  -0.01828   3.09585
   D15        0.00006  -0.00085   0.00000  -0.00360  -0.00356  -0.00350
   D16       -3.12486  -0.00011   0.00000  -0.00131  -0.00126  -3.12612
   D17       -1.30870   0.00046   0.00000   0.00000   0.00000  -1.30870
   D18        1.78809   0.00291   0.00000   0.01259   0.01259   1.80068
   D19        1.81139  -0.00042   0.00000  -0.00283  -0.00282   1.80856
   D20       -1.37500   0.00202   0.00000   0.00977   0.00977  -1.36524
   D21        0.00376   0.00043   0.00000   0.00203   0.00203   0.00579
   D22        3.12751   0.00045   0.00000   0.00151   0.00148   3.12899
   D23        3.13804   0.00092   0.00000   0.00545   0.00545  -3.13969
   D24        0.03374  -0.00093   0.00000  -0.00473  -0.00481   0.02893
   D25       -3.13904  -0.00185   0.00000  -0.00865  -0.00860   3.13555
   D26       -0.15723   0.00242   0.00000   0.01042   0.01037  -0.14686
   D27       -0.03778   0.00015   0.00000   0.00238   0.00251  -0.03527
   D28        2.94403   0.00442   0.00000   0.02145   0.02148   2.96551
   D29       -0.02176   0.00187   0.00000   0.00654   0.00647  -0.01529
   D30       -2.61539  -0.00693   0.00000  -0.02781  -0.02789  -2.64328
   D31        0.00342  -0.00169   0.00000  -0.00579  -0.00573  -0.00230
   D32       -2.68738  -0.01061   0.00000  -0.03709  -0.03660  -2.72399
   D33        2.68594   0.00778   0.00000   0.02863   0.02831   2.71425
   D34       -0.00486  -0.00113   0.00000  -0.00266  -0.00257  -0.00743
   D35        2.61325   0.00558   0.00000   0.03046   0.03083   2.64407
   D36       -0.24759  -0.00082   0.00000  -0.00029  -0.00011  -0.24770
   D37        0.02024   0.00103   0.00000   0.00233   0.00227   0.02250
   D38       -2.84060  -0.00537   0.00000  -0.02842  -0.02867  -2.86927
   D39        0.02280   0.00102   0.00000   0.00209   0.00202   0.02482
   D40       -2.96045  -0.00224   0.00000  -0.01467  -0.01489  -2.97533
   D41        2.62755   0.00446   0.00000   0.02603   0.02636   2.65391
   D42       -0.35569   0.00121   0.00000   0.00927   0.00945  -0.34624
   D43       -0.00907   0.00099   0.00000   0.00205   0.00201  -0.00706
   D44       -2.61356  -0.00764   0.00000  -0.02947  -0.02941  -2.64298
   D45        0.02068  -0.00029   0.00000  -0.00058  -0.00060   0.02008
   D46        2.97112   0.00584   0.00000   0.02657   0.02639   2.99750
   D47       -0.02697  -0.00026   0.00000  -0.00075  -0.00067  -0.02764
   D48        2.83827   0.00670   0.00000   0.03103   0.03112   2.86938
   D49       -2.97294  -0.00539   0.00000  -0.02597  -0.02608  -2.99902
   D50       -0.10770   0.00157   0.00000   0.00580   0.00571  -0.10199
         Item               Value     Threshold  Converged?
 Maximum Force            0.104429     0.000450     NO 
 RMS     Force            0.019975     0.000300     NO 
 Maximum Displacement     0.439642     0.001800     NO 
 RMS     Displacement     0.058249     0.001200     NO 
 Predicted change in Energy=-4.963661D-02
 GradGradGradGradGradGradGradGradGradGradGradGradGradGradGradGradGradGrad

                          Input orientation:                          
 ---------------------------------------------------------------------
 Center     Atomic      Atomic             Coordinates (Angstroms)
 Number     Number       Type             X           Y           Z
 ---------------------------------------------------------------------
      1          6           0       -4.212794   -1.345055   -0.203331
      2          6           0       -2.896576   -0.969072   -0.597469
      3          6           0       -1.962942   -2.036085   -0.611309
      4          6           0       -4.311070   -2.711787    0.098105
      5          1           0       -5.050832   -0.667846   -0.138035
      6         16           0       -2.798914   -3.525810   -0.112508
      7          1           0       -5.213104   -3.217681    0.407220
      8          6           0       -0.557444   -2.098716   -0.964413
      9         16           0       -0.017140   -2.053411   -2.661835
     10          6           0        1.647908   -2.169635   -2.208476
     11          6           0        1.801494   -2.221771   -0.795932
     12          6           0        0.564048   -2.163815   -0.092258
     13          1           0        0.489679   -2.041981    0.978172
     14         16           0        3.372983   -1.677918   -0.304356
     15          6           0        3.842723   -1.388620   -1.971628
     16          6           0        2.805304   -1.679016   -2.878797
     17          1           0        4.766715   -0.890270   -2.225960
     18          1           0        2.817099   -1.336103   -3.907202
     19          8           0       -2.372998    0.398241   -0.722623
     20          1           0       -2.970139    1.287351   -0.766364
 ---------------------------------------------------------------------
                    Distance matrix (angstroms):
                    1          2          3          4          5
     1  C    0.000000
     2  C    1.424477   0.000000
     3  C    2.388683   1.417880   0.000000
     4  C    1.403025   2.349824   2.544317   0.000000
     5  H    1.079437   2.223204   3.410445   2.186482   0.000000
     6  S    2.600576   2.604157   1.779587   1.730204   3.638646
     7  H    2.209099   3.381115   3.605152   1.079419   2.612526
     8  C    3.809046   2.623411   1.450527   3.948988   4.787570
     9  S    4.914216   3.705206   2.826854   5.146704   5.798915
    10  C    6.248869   4.968806   3.950571   6.412773   7.170441
    11  C    6.106674   4.866262   3.773532   6.197004   7.057045
    12  C    4.847775   3.695751   2.582906   4.909510   5.810930
    13  H    4.898459   3.885936   2.922641   4.926494   5.816479
    14  S    7.593748   6.316308   5.356733   7.763731   8.485786
    15  C    8.247432   6.890754   5.997952   8.515803   9.109166
    16  C    7.518201   6.182226   5.291991   7.782759   8.381714
    17  H    9.215717   7.834809   7.014860   9.545961  10.039579
    18  H    7.945951   6.613254   5.848220   8.291308   8.749716
    19  O    2.587198   1.469471   2.471130   3.755263   2.940933
    20  H    2.964922   2.263931   3.476164   4.305637   2.923505
                    6          7          8          9         10
     6  S    0.000000
     7  H    2.488648   0.000000
     8  C    2.790435   4.980826   0.000000
     9  S    4.050344   6.145946   1.781915   0.000000
    10  C    5.099659   7.417125   2.533042   1.729575   0.000000
    11  C    4.830253   7.186376   2.368147   2.611010   1.421826
    12  C    3.628355   5.893691   1.422194   2.636796   2.377638
    13  H    3.769108   5.850639   2.207560   3.675139   3.393010
    14  S    6.445450   8.752033   4.007618   4.146280   2.615978
    15  C    7.220475   9.540041   4.569485   3.977044   2.341644
    16  C    6.516922   8.801151   3.892183   2.855423   1.424641
    17  H    8.285620  10.580513   5.603437   4.942485   3.371059
    18  H    7.122789   9.307992   4.541930   3.177795   2.224287
    19  O    3.993973   4.734727   3.096691   3.914232   4.996942
    20  H    4.860387   5.167543   4.162424   4.844967   5.946158
                   11         12         13         14         15
    11  C    0.000000
    12  C    1.424706   0.000000
    13  H    2.213737   1.079905   0.000000
    14  S    1.734070   2.858530   3.176612   0.000000
    15  C    2.498603   3.857806   4.513437   1.756174   0.000000
    16  C    2.374983   3.608747   4.513322   2.636286   1.408376
    17  H    3.551113   4.882316   5.466803   2.501087   1.080184
    18  H    3.390555   4.507232   5.457292   3.661468   2.191144
    19  O    4.929120   3.948130   4.128233   6.123861   6.586962
    20  H    5.923115   4.985524   5.108639   7.017226   7.418124
                   16         17         18         19         20
    16  C    0.000000
    17  H    2.212566   0.000000
    18  H    1.084134   2.612728   0.000000
    19  O    5.981546   7.409169   6.331398   0.000000
    20  H    6.827697   8.168926   7.087982   1.071917   0.000000
 Stoichiometry    C10H6OS3
 Framework group  C1[X(C10H6OS3)]
 Deg. of freedom    54
 Full point group                 C1      NOp   1
 Largest Abelian subgroup         C1      NOp   1
 Largest concise Abelian subgroup C1      NOp   1
                         Standard orientation:                         
 ---------------------------------------------------------------------
 Center     Atomic      Atomic             Coordinates (Angstroms)
 Number     Number       Type             X           Y           Z
 ---------------------------------------------------------------------
      1          6           0        3.971368    0.590629   -0.497560
      2          6           0        2.586279    0.914542   -0.573356
      3          6           0        1.724665   -0.069672   -0.026249
      4          6           0        4.197112   -0.655151    0.107049
      5          1           0        4.769612    1.220484   -0.859876
      6         16           0        2.717605   -1.413570    0.586073
      7          1           0        5.166857   -1.096920    0.279039
      8          6           0        0.282997   -0.131691    0.121319
      9         16           0       -0.571349    0.819078    1.362832
     10          6           0       -2.111547    0.198999    0.878354
     11          6           0       -1.991208   -0.698189   -0.218076
     12          6           0       -0.647497   -0.872649   -0.658295
     13          1           0       -0.377805   -1.394715   -1.564335
     14         16           0       -3.467281   -0.802734   -1.122111
     15          6           0       -4.259607    0.334803   -0.043976
     16          6           0       -3.399414    0.801331    0.968912
     17          1           0       -5.240080    0.734889   -0.257048
     18          1           0       -3.624319    1.676955    1.567281
     19          8           0        1.977006    1.990321   -1.367606
     20          1           0        2.507186    2.814643   -1.801666
 ---------------------------------------------------------------------
 Rotational constants (GHZ):           1.2251061           0.2586621           0.2526532
 Standard basis: 6-311+G(d,p) (5D, 7F)
 There are   382 symmetry adapted cartesian basis functions of A   symmetry.
 There are   368 symmetry adapted basis functions of A   symmetry.
   368 basis functions,   594 primitive gaussians,   382 cartesian basis functions
    61 alpha electrons       61 beta electrons
       nuclear repulsion energy      1112.5074469021 Hartrees.
 NAtoms=   20 NActive=   20 NUniq=   20 SFac= 1.00D+00 NAtFMM=   60 NAOKFM=F Big=F
 Integral buffers will be    131072 words long.
 Raffenetti 2 integral format.
 Two-electron integral symmetry is turned on.
 One-electron integrals computed using PRISM.
 NBasis=   368 RedAO= T EigKep=  3.24D-06  NBF=   368
 NBsUse=   367 1.00D-06 EigRej=  4.88D-07 NBFU=   367
 Initial guess from the checkpoint file:  "/tmp/pbs.4729018[100].pbs/Gau-1331413.chk"
 B after Tr=    -0.000000   -0.000000    0.000000
         Rot=    0.998026    0.062798    0.000026   -0.000928 Ang=   7.20 deg.
 ExpMin= 4.05D-02 ExpMax= 9.34D+04 ExpMxC= 3.17D+03 IAcc=3 IRadAn=         5 AccDes= 0.00D+00
 Harris functional with IExCor=  402 and IRadAn=       5 diagonalized for initial guess.
 HarFok:  IExCor=  402 AccDes= 0.00D+00 IRadAn=         5 IDoV= 1 UseB2=F ITyADJ=14
 ICtDFT=  3500011 ScaDFX=  1.000000  1.000000  1.000000  1.000000
 FoFCou: FMM=F IPFlag=           0 FMFlag=      100000 FMFlg1=           0
         NFxFlg=           0 DoJE=T BraDBF=F KetDBF=T FulRan=T
         wScrn=  0.000000 ICntrl=       500 IOpCl=  0 I1Cent=   200000004 NGrid=           0
         NMat0=    1 NMatS0=      1 NMatT0=    0 NMatD0=    1 NMtDS0=    0 NMtDT0=    0
 Petite list used in FoFCou.
 Requested convergence on RMS density matrix=1.00D-08 within 128 cycles.
 Requested convergence on MAX density matrix=1.00D-06.
 Requested convergence on             energy=1.00D-06.
 No special actions if energy rises.
 SCF Done:  E(RB3LYP) =  -1654.58376358     A.U. after   14 cycles
            NFock= 14  Conv=0.57D-08     -V/T= 2.0027
 Calling FoFJK, ICntrl=      2127 FMM=F ISym2X=0 I1Cent= 0 IOpClX= 0 NMat=1 NMatS=1 NMatT=0.
 ***** Axes restored to original set *****
 -------------------------------------------------------------------
 Center     Atomic                   Forces (Hartrees/Bohr)
 Number     Number              X              Y              Z
 -------------------------------------------------------------------
      1        6           0.004462787   -0.024505334    0.002997853
      2        6           0.028145113    0.031993601    0.007468526
      3        6          -0.027948096    0.011011980    0.001337762
      4        6           0.006174267    0.030764836   -0.009992547
      5        1          -0.000162308    0.001816371    0.000725780
      6       16          -0.002883399    0.010850332   -0.003057404
      7        1           0.002198954   -0.003003949    0.000506278
      8        6           0.036712737    0.004561260    0.020326071
      9       16          -0.008514496   -0.007782987    0.004737781
     10        6           0.009623075    0.013084370    0.018137588
     11        6          -0.018758185    0.009791042   -0.016022907
     12        6          -0.023657816   -0.000470791   -0.026065370
     13        1          -0.003346658   -0.004003172    0.001155057
     14       16           0.010272015   -0.003762411   -0.006766684
     15        6          -0.030573764   -0.005137815   -0.021954948
     16        6           0.022081340    0.012131449    0.024495775
     17        1           0.002714305   -0.004588833    0.003483579
     18        1           0.003221005   -0.007118465   -0.000284947
     19        8          -0.034375636    0.011980915   -0.004877874
     20        1           0.024614760   -0.077612402    0.003650629
 -------------------------------------------------------------------
 Cartesian Forces:  Max     0.077612402 RMS     0.018294965

 GradGradGradGradGradGradGradGradGradGradGradGradGradGradGradGradGradGrad
 Berny optimization.
 Using GEDIIS/GDIIS optimizer.
 FormGI is forming the generalized inverse of G from B-inverse, IUseBI=4.
 Internal  Forces:  Max     0.078237442 RMS     0.013446461
 Search for a local minimum.
 Step number   2 out of a maximum of  116
 All quantities printed in internal units (Hartrees-Bohrs-Radians)
 Mixed Optimization -- RFO/linear search
 Update second derivatives using D2CorX and points    1    2
 DE= -5.32D-02 DEPred=-4.96D-02 R= 1.07D+00
 TightC=F SS=  1.41D+00  RLast= 3.19D-01 DXNew= 5.0454D-01 9.5649D-01
 Trust test= 1.07D+00 RLast= 3.19D-01 DXMaxT set to 5.05D-01
 ITU=  1  0
 Use linear search instead of GDIIS.
     Eigenvalues ---    0.00230   0.00995   0.01051   0.01219   0.01271
     Eigenvalues ---    0.01294   0.01344   0.01403   0.01460   0.01484
     Eigenvalues ---    0.01498   0.01588   0.01592   0.01734   0.02114
     Eigenvalues ---    0.02493   0.14363   0.15292   0.15762   0.15829
     Eigenvalues ---    0.16000   0.16027   0.18334   0.21000   0.22460
     Eigenvalues ---    0.22539   0.23391   0.24133   0.24332   0.24981
     Eigenvalues ---    0.25022   0.25624   0.26252   0.26594   0.28422
     Eigenvalues ---    0.28542   0.30897   0.31312   0.31571   0.34843
     Eigenvalues ---    0.35188   0.35870   0.36005   0.36078   0.36119
     Eigenvalues ---    0.36183   0.36381   0.37579   0.38160   0.39301
     Eigenvalues ---    0.39541   0.40494   0.424751000.000001000.00000
     Eigenvalues --- 1000.000001000.000001000.000001000.000001000.00000
     Eigenvalues --- 1000.000001000.000001000.000001000.000001000.00000
     Eigenvalues --- 1000.000001000.000001000.000001000.000001000.00000
     Eigenvalues --- 1000.000001000.000001000.000001000.000001000.00000
     Eigenvalues --- 1000.000001000.000001000.000001000.000001000.00000
     Eigenvalues --- 1000.000001000.000001000.000001000.000001000.00000
     Eigenvalues --- 1000.000001000.000001000.000001000.000001000.00000
     Eigenvalues --- 1000.000001000.000001000.000001000.000001000.00000
     Eigenvalues --- 1000.000001000.000001000.000001000.000001000.00000
     Eigenvalues --- 1000.000001000.000001000.000001000.000001000.00000
     Eigenvalues --- 1000.00000
 RFO step:  Lambda=-8.20551435D-03 EMin= 2.30091763D-03
 Quartic linear search produced a step of  1.40432.
 Iteration  1 RMS(Cart)=  0.08297867 RMS(Int)=  0.01634267
 Iteration  2 RMS(Cart)=  0.01901902 RMS(Int)=  0.00091797
 Iteration  3 RMS(Cart)=  0.00025821 RMS(Int)=  0.00088904
 Iteration  4 RMS(Cart)=  0.00000028 RMS(Int)=  0.00088904
 Iteration  1 RMS(Cart)=  0.00002145 RMS(Int)=  0.00000958
 Iteration  2 RMS(Cart)=  0.00001170 RMS(Int)=  0.00001070
 Iteration  3 RMS(Cart)=  0.00000638 RMS(Int)=  0.00001209
 Iteration  4 RMS(Cart)=  0.00000348 RMS(Int)=  0.00001300
 Iteration  5 RMS(Cart)=  0.00000190 RMS(Int)=  0.00001354
 Iteration  6 RMS(Cart)=  0.00000104 RMS(Int)=  0.00001384
 Iteration  7 RMS(Cart)=  0.00000057 RMS(Int)=  0.00001401
 Variable       Old X    -DE/DX   Delta X   Delta X   Delta X     New X
                                 (Linear)    (Quad)   (Total)
    R1        2.69187  -0.00804  -0.03834   0.03637  -0.00163   2.69024
    R2        2.65133  -0.02988  -0.08788   0.02364  -0.06432   2.58701
    R3        2.03984   0.00131   0.00269   0.00219   0.00487   2.04471
    R4        2.67940  -0.03653  -0.11187   0.02659  -0.08493   2.59447
    R5        2.77690  -0.06444  -0.18286  -0.06086  -0.24372   2.53318
    R6        3.36293  -0.01141  -0.04613   0.02298  -0.02324   3.33970
    R7        2.74110  -0.00081  -0.01185   0.02231   0.01046   2.75156
    R8        3.26961  -0.00679  -0.02401   0.01186  -0.01256   3.25705
    R9        2.03981  -0.00028  -0.00130   0.00119  -0.00011   2.03969
   R10        3.36733  -0.00654  -0.02257   0.00827  -0.01515   3.35218
   R11        2.68756  -0.03957  -0.11255   0.00832  -0.10477   2.58279
   R12        3.26842   0.00232  -0.00022   0.01910   0.01912   3.28754
   R13        2.68686  -0.01845  -0.05184   0.00275  -0.04745   2.63941
   R14        2.69218   0.00033  -0.00492   0.00933   0.00492   2.69711
   R15        2.69230  -0.00438  -0.02141   0.01910  -0.00188   2.69042
   R16        3.27692   0.00352   0.00500   0.01570   0.02076   3.29767
   R17        2.04073   0.00092   0.00249   0.00016   0.00265   2.04338
   R18        3.31869  -0.00693  -0.02416   0.00992  -0.01503   3.30366
   R19        2.66144  -0.03471  -0.09670   0.01167  -0.08540   2.57604
   R20        2.04125  -0.00062  -0.00225   0.00125  -0.00100   2.04026
   R21        2.04872  -0.00195  -0.00709   0.00377  -0.00331   2.04540
   R22        2.02563  -0.07824  -0.21919  -0.08625  -0.30544   1.72019
    A1        1.96198  -0.00122  -0.01154   0.00988  -0.00114   1.96084
    A2        2.17549  -0.00047   0.00307  -0.01161  -0.00882   2.16667
    A3        2.14571   0.00169   0.00848   0.00173   0.00993   2.15565
    A4        1.99599   0.00590   0.03388  -0.03762  -0.00444   1.99155
    A5        2.21228  -0.00397  -0.00747  -0.00562  -0.01539   2.19689
    A6        2.05418  -0.00117  -0.02139   0.05828   0.03493   2.08911
    A7        1.89432  -0.00038  -0.01415   0.03271   0.01913   1.91345
    A8        2.30892  -0.00711  -0.01403  -0.02785  -0.04218   2.26674
    A9        2.07975   0.00749   0.02812  -0.00466   0.02316   2.10290
   A10        1.95081   0.00000  -0.00362   0.01111   0.00735   1.95817
   A11        2.18537   0.00380   0.01344   0.01093   0.02443   2.20980
   A12        2.14684  -0.00380  -0.00983  -0.02201  -0.03177   2.11507
   A13        1.62165  -0.00431  -0.00456  -0.01604  -0.02107   1.60058
   A14        2.12303  -0.00362  -0.00839  -0.01018  -0.01856   2.10447
   A15        2.23544  -0.00149  -0.00690   0.00561  -0.00128   2.23416
   A16        1.92434   0.00516   0.01576   0.00467   0.02018   1.94452
   A17        1.61131  -0.00433  -0.01084  -0.00636  -0.01660   1.59471
   A18        1.94643  -0.00639  -0.02210   0.00965  -0.01353   1.93291
   A19        2.25962   0.00654   0.03019   0.01303   0.04033   2.29995
   A20        1.97395   0.00298   0.01314  -0.00687   0.00597   1.97992
   A21        1.97727   0.00367   0.01631  -0.00911   0.00675   1.98401
   A22        1.94768  -0.00719  -0.02670   0.01596  -0.01178   1.93590
   A23        2.25797   0.00640   0.02904   0.01311   0.03902   2.29700
   A24        1.96480   0.00192   0.00109   0.00191   0.00378   1.96859
   A25        2.15124  -0.00358  -0.01303   0.00475  -0.00904   2.14220
   A26        2.15793   0.00211   0.01545  -0.00551   0.00917   2.16710
   A27        1.59573  -0.00105   0.00302  -0.01613  -0.01241   1.58332
   A28        1.96116   0.00228   0.00232   0.01425   0.01599   1.97715
   A29        2.12744  -0.00476  -0.01184  -0.01823  -0.03121   2.09623
   A30        2.18164   0.00330   0.01570   0.00882   0.02360   2.20524
   A31        1.94590   0.00298   0.00820  -0.00648   0.00251   1.94841
   A32        2.17014  -0.00023   0.00714  -0.00575  -0.00014   2.17000
   A33        2.13860  -0.00133  -0.00434   0.01530   0.00952   2.14812
   A34        2.18558  -0.04620  -0.19136  -0.03925  -0.23061   1.95497
    D1        0.00389  -0.00041  -0.00414   0.01893   0.01471   0.01860
    D2       -2.91358  -0.00445  -0.02758  -0.06821  -0.09447  -3.00804
    D3       -3.13834   0.00044   0.00165   0.02210   0.02335  -3.11499
    D4        0.22738  -0.00361  -0.02179  -0.06503  -0.08583   0.14155
    D5       -0.00651  -0.00004   0.00028  -0.00281  -0.00228  -0.00880
    D6       -3.12923   0.00019   0.00136  -0.00428  -0.00296  -3.13218
    D7        3.13570  -0.00087  -0.00538  -0.00592  -0.01085   3.12485
    D8        0.01299  -0.00064  -0.00430  -0.00738  -0.01153   0.00146
    D9        0.00044   0.00068   0.00606  -0.02549  -0.01965  -0.01922
   D10        3.11962   0.00033   0.00281  -0.01484  -0.01246   3.10717
   D11        2.93953   0.00384   0.02846   0.04584   0.07564   3.01517
   D12       -0.22447   0.00349   0.02521   0.05650   0.08284  -0.14163
   D13       -0.27645   0.00142   0.00521   0.08451   0.08992  -0.18653
   D14        3.09585  -0.00352  -0.02567   0.00591  -0.01997   3.07588
   D15       -0.00350  -0.00057  -0.00500   0.02001   0.01540   0.01190
   D16       -3.12612  -0.00008  -0.00177   0.01142   0.00997  -3.11615
   D17       -1.30870   0.00020   0.00000   0.00000   0.00000  -1.30870
   D18        1.80068   0.00249   0.01768   0.00453   0.02229   1.82297
   D19        1.80856  -0.00028  -0.00396   0.01190   0.00770   1.81627
   D20       -1.36524   0.00201   0.01372   0.01642   0.02999  -1.33524
   D21        0.00579   0.00037   0.00285  -0.01018  -0.00747  -0.00168
   D22        3.12899   0.00024   0.00207  -0.00835  -0.00616   3.12283
   D23       -3.13969   0.00082   0.00766  -0.01162  -0.00408   3.13942
   D24        0.02893  -0.00102  -0.00675  -0.01549  -0.02271   0.00622
   D25        3.13555  -0.00140  -0.01208   0.01815   0.00612  -3.14152
   D26       -0.14686   0.00230   0.01457   0.02633   0.04067  -0.10619
   D27       -0.03527   0.00056   0.00352   0.02202   0.02617  -0.00910
   D28        2.96551   0.00426   0.03017   0.03021   0.06073   3.02623
   D29       -0.01529   0.00143   0.00909   0.00492   0.01366  -0.00163
   D30       -2.64328  -0.00597  -0.03917  -0.02956  -0.06968  -2.71296
   D31       -0.00230  -0.00114  -0.00804   0.00708  -0.00088  -0.00318
   D32       -2.72399  -0.00847  -0.05140  -0.03539  -0.08400  -2.80798
   D33        2.71425   0.00666   0.03975   0.04092   0.07826   2.79251
   D34       -0.00743  -0.00068  -0.00361  -0.00155  -0.00486  -0.01229
   D35        2.64407   0.00577   0.04329   0.02179   0.06667   2.71075
   D36       -0.24770  -0.00021  -0.00016   0.00634   0.00728  -0.24042
   D37        0.02250   0.00043   0.00318  -0.01705  -0.01421   0.00829
   D38       -2.86927  -0.00554  -0.04026  -0.03251  -0.07361  -2.94288
   D39        0.02482   0.00040   0.00284  -0.01920  -0.01673   0.00809
   D40       -2.97533  -0.00278  -0.02091  -0.02839  -0.05014  -3.02547
   D41        2.65391   0.00509   0.03702   0.03182   0.07021   2.72412
   D42       -0.34624   0.00191   0.01327   0.02263   0.03680  -0.30944
   D43       -0.00706   0.00075   0.00282   0.01466   0.01705   0.00998
   D44       -2.64298  -0.00632  -0.04131  -0.02988  -0.07191  -2.71489
   D45        0.02008  -0.00044  -0.00084  -0.02450  -0.02559  -0.00551
   D46        2.99750   0.00512   0.03705   0.00704   0.04246   3.03996
   D47       -0.02764   0.00014  -0.00095   0.02769   0.02721  -0.00044
   D48        2.86938   0.00616   0.04370   0.03939   0.08413   2.95352
   D49       -2.99902  -0.00471  -0.03662  -0.00202  -0.03974  -3.03876
   D50       -0.10199   0.00131   0.00802   0.00968   0.01719  -0.08480
         Item               Value     Threshold  Converged?
 Maximum Force            0.078237     0.000450     NO 
 RMS     Force            0.013510     0.000300     NO 
 Maximum Displacement     0.731828     0.001800     NO 
 RMS     Displacement     0.092523     0.001200     NO 
 Predicted change in Energy=-4.968299D-02
 GradGradGradGradGradGradGradGradGradGradGradGradGradGradGradGradGradGrad

                          Input orientation:                          
 ---------------------------------------------------------------------
 Center     Atomic      Atomic             Coordinates (Angstroms)
 Number     Number       Type             X           Y           Z
 ---------------------------------------------------------------------
      1          6           0       -4.166585   -1.307566   -0.193425
      2          6           0       -2.838038   -0.956056   -0.565016
      3          6           0       -1.962140   -2.013162   -0.581825
      4          6           0       -4.290938   -2.639835    0.095927
      5          1           0       -4.990473   -0.607487   -0.150336
      6         16           0       -2.802574   -3.488516   -0.091601
      7          1           0       -5.192993   -3.152500    0.393399
      8          6           0       -0.552212   -2.051564   -0.943411
      9         16           0       -0.054164   -1.968800   -2.643943
     10          6           0        1.625247   -2.064305   -2.200118
     11          6           0        1.766307   -2.152011   -0.813316
     12          6           0        0.528117   -2.138247   -0.110715
     13          1           0        0.441461   -2.093698    0.966196
     14         16           0        3.382177   -1.712533   -0.322360
     15          6           0        3.827151   -1.404591   -1.984720
     16          6           0        2.810730   -1.628853   -2.864983
     17          1           0        4.795116   -0.986993   -2.217775
     18          1           0        2.853120   -1.330889   -3.904678
     19          8           0       -2.380715    0.288524   -0.762035
     20          1           0       -3.054596    0.900084   -0.784268
 ---------------------------------------------------------------------
                    Distance matrix (angstroms):
                    1          2          3          4          5
     1  C    0.000000
     2  C    1.423614   0.000000
     3  C    2.346976   1.372936   0.000000
     4  C    1.368989   2.320103   2.505068   0.000000
     5  H    1.082016   2.219558   3.366438   2.163431   0.000000
     6  S    2.574382   2.576575   1.767291   1.723559   3.618105
     7  H    2.191269   3.359872   3.561960   1.079360   2.610316
     8  C    3.765594   2.562873   1.456062   3.924839   4.734183
     9  S    4.832626   3.619052   2.809746   5.089934   5.695471
    10  C    6.176146   4.880849   3.935840   6.372151   7.077547
    11  C    6.024663   4.763608   3.738207   6.144503   6.962699
    12  C    4.768344   3.596522   2.537514   4.849493   5.727097
    13  H    4.816307   3.793936   2.860097   4.842648   5.741200
    14  S    7.560716   6.270743   5.359051   7.740255   8.447011
    15  C    8.192555   6.829457   5.987852   8.471026   9.041616
    16  C    7.478193   6.136048   5.304790   7.760333   8.322936
    17  H    9.193087   7.810097   7.027793   9.520582  10.008800
    18  H    7.940415   6.609321   5.890126   8.291909   8.725843
    19  O    2.461737   1.340500   2.346367   3.600047   2.826278
    20  H    2.541522   1.881549   3.117924   3.851535   2.534218
                    6          7          8          9         10
     6  S    0.000000
     7  H    2.462161   0.000000
     8  C    2.802595   4.953380   0.000000
     9  S    4.046943   6.085570   1.773896   0.000000
    10  C    5.106840   7.375561   2.514120   1.739690   0.000000
    11  C    4.814747   7.133653   2.324338   2.588219   1.396714
    12  C    3.594036   5.832147   1.366752   2.604805   2.361094
    13  H    3.686219   5.761617   2.153082   3.646141   3.380496
    14  S    6.438828   8.724641   3.997508   4.154980   2.595481
    15  C    7.202770   9.490713   4.547716   3.977123   2.308679
    16  C    6.531399   8.774858   3.896217   2.893448   1.427247
    17  H    8.276662  10.548458   5.599217   4.965993   3.347982
    18  H    7.154145   9.302240   4.569985   3.232442   2.225106
    19  O    3.859207   4.591795   2.975287   3.748323   4.863293
    20  H    4.450070   4.731076   3.872916   4.548789   5.717794
                   11         12         13         14         15
    11  C    0.000000
    12  C    1.423711   0.000000
    13  H    2.219297   1.081309   0.000000
    14  S    1.745054   2.893386   3.233183   0.000000
    15  C    2.485538   3.864424   4.543750   1.748219   0.000000
    16  C    2.360901   3.613281   4.528515   2.607391   1.363183
    17  H    3.536023   4.896159   5.506067   2.472934   1.079657
    18  H    3.378154   4.522347   5.488478   3.641230   2.154161
    19  O    4.812134   3.843793   4.077553   6.116247   6.549748
    20  H    5.705895   4.745626   4.924355   6.962125   7.356021
                   16         17         18         19         20
    16  C    0.000000
    17  H    2.183724   0.000000
    18  H    1.082380   2.595238   0.000000
[...]
 Stoichiometry    C10H6OS3
 Framework group  C1[X(C10H6OS3)]
 Deg. of freedom    54
 Full point group                 C1      NOp   1
 Largest Abelian subgroup         C1      NOp   1
 Largest concise Abelian subgroup C1      NOp   1
                         Standard orientation:                         
 ---------------------------------------------------------------------
 Center     Atomic      Atomic             Coordinates (Angstroms)
 Number     Number       Type             X           Y           Z
 ---------------------------------------------------------------------
      1          6           0        4.002406    0.336379   -0.479892
      2          6           0        2.641281    0.731604   -0.651089
      3          6           0        1.738956   -0.090208   -0.017114
      4          6           0        4.124887   -0.788902    0.283096
      5          1           0        4.843096    0.865207   -0.912651
      6         16           0        2.592746   -1.382009    0.810614
      7          1           0        5.031360   -1.303028    0.563398
      8          6           0        0.282617   -0.010946   -0.004668
      9         16           0       -0.534278    1.221911    0.970951
     10          6           0       -2.094262    0.610395    0.501648
     11          6           0       -1.958746   -0.486627   -0.340241
     12          6           0       -0.613551   -0.843197   -0.624853
     13          1           0       -0.305361   -1.661105   -1.261453
     14         16           0       -3.522382   -1.095430   -0.816298
     15          6           0       -4.317401    0.142823    0.128794
     16          6           0       -3.445411    0.975168    0.768883
     17          1           0       -5.396085    0.173893    0.150197
     18          1           0       -3.755767    1.798425    1.397172
     19          8           0        2.230658    1.811360   -1.377970
     20          1           0        2.995453    2.265240   -1.744557
 ---------------------------------------------------------------------
 Rotational constants (GHZ):           1.2894781           0.2625821           0.2471172

 **********************************************************************

            Population analysis using the SCF Density.

 **********************************************************************

 Orbital symmetries:
       Occupied  (A) (A) (A) (A) (A) (A) (A) (A) (A) (A) (A) (A)
                 (A) (A) (A) (A) (A) (A) (A) (A) (A) (A) (A) (A)
                 (A) (A) (A) (A) (A) (A) (A) (A) (A) (A) (A) (A)
                 (A) (A) (A) (A) (A) (A) (A) (A) (A) (A) (A) (A)
                 (A) (A) (A) (A) (A) (A) (A) (A) (A) (A) (A) (A)
                 (A)
       Virtual   (A) (A) (A) (A) (A) (A) (A) (A) (A) (A) (A) (A)
                 (A) (A) (A) (A) (A) (A) (A) (A) (A) (A) (A) (A)
                 (A) (A) (A) (A) (A) (A) (A) (A) (A) (A) (A) (A)
                 (A) (A) (A) (A) (A) (A) (A) (A) (A) (A) (A) (A)
                 (A) (A) (A) (A) (A) (A) (A) (A) (A) (A) (A) (A)
                 (A) (A) (A) (A) (A) (A) (A) (A) (A) (A) (A) (A)
                 (A) (A) (A) (A) (A) (A) (A) (A) (A) (A) (A) (A)
                 (A) (A) (A) (A) (A) (A) (A) (A) (A) (A) (A) (A)
                 (A) (A) (A) (A) (A) (A) (A) (A) (A) (A) (A) (A)
                 (A) (A) (A) (A) (A) (A) (A) (A) (A) (A) (A) (A)
                 (A) (A) (A) (A) (A) (A) (A) (A) (A) (A) (A) (A)
                 (A) (A) (A) (A) (A) (A) (A) (A) (A) (A) (A) (A)
                 (A) (A) (A) (A) (A) (A) (A) (A) (A) (A) (A) (A)
                 (A) (A) (A) (A) (A) (A) (A) (A) (A) (A) (A) (A)
                 (A) (A) (A) (A) (A) (A) (A) (A) (A) (A) (A) (A)
                 (A) (A) (A) (A) (A) (A) (A) (A) (A) (A) (A) (A)
                 (A) (A) (A) (A) (A) (A) (A) (A) (A) (A) (A) (A)
                 (A) (A) (A) (A) (A) (A) (A) (A) (A) (A) (A) (A)
                 (A) (A) (A) (A) (A) (A) (A) (A) (A) (A) (A) (A)
                 (A) (A) (A) (A) (A) (A) (A) (A) (A) (A) (A) (A)
                 (A) (A) (A) (A) (A) (A) (A) (A) (A) (A) (A) (A)
                 (A) (A) (A) (A) (A) (A) (A) (A) (A) (A) (A) (A)
                 (A) (A) (A) (A) (A) (A) (A) (A) (A) (A) (A) (A)
                 (A) (A) (A) (A) (A) (A) (A) (A) (A) (A) (A) (A)
                 (A) (A) (A) (A) (A) (A) (A) (A) (A) (A) (A) (A)
                 (A) (A) (A) (A) (A) (A)
 The electronic state is 1-A.
 Alpha  occ. eigenvalues --  -88.88459 -88.88077 -88.87719 -19.16727 -10.24857
 Alpha  occ. eigenvalues --  -10.21865 -10.21372 -10.20997 -10.20731 -10.20720
 Alpha  occ. eigenvalues --  -10.20666 -10.19169 -10.18988 -10.18953  -7.97049
 Alpha  occ. eigenvalues --   -7.96652  -7.96288  -5.93348  -5.92973  -5.92964
 Alpha  occ. eigenvalues --   -5.92629  -5.92605  -5.92600  -5.92241  -5.92201
 Alpha  occ. eigenvalues --   -5.91823  -1.07820  -0.91217  -0.89199  -0.84621
 Alpha  occ. eigenvalues --   -0.76948  -0.76034  -0.74150  -0.70993  -0.70153
 Alpha  occ. eigenvalues --   -0.61725  -0.60825  -0.57160  -0.55841  -0.53693
 Alpha  occ. eigenvalues --   -0.51937  -0.49349  -0.48384  -0.45240  -0.43677
 Alpha  occ. eigenvalues --   -0.43313  -0.41393  -0.40918  -0.39468  -0.38978
 Alpha  occ. eigenvalues --   -0.37730  -0.36893  -0.36067  -0.35684  -0.33836
 Alpha  occ. eigenvalues --   -0.33419  -0.28635  -0.25905  -0.23751  -0.23257
 Alpha  occ. eigenvalues --   -0.21705
 Alpha virt. eigenvalues --   -0.04599  -0.03055  -0.01663  -0.00242   0.00092
 Alpha virt. eigenvalues --    0.00259   0.00762   0.01645   0.02118   0.02827
 Alpha virt. eigenvalues --    0.03109   0.03650   0.03849   0.04331   0.04687
 Alpha virt. eigenvalues --    0.04813   0.05386   0.06215   0.06237   0.06692
 Alpha virt. eigenvalues --    0.07609   0.08153   0.08541   0.09033   0.09360
 Alpha virt. eigenvalues --    0.09839   0.10136   0.10677   0.11302   0.12384
 Alpha virt. eigenvalues --    0.12489   0.12789   0.13027   0.13305   0.13765
 Alpha virt. eigenvalues --    0.13977   0.14443   0.14974   0.15154   0.15669
 Alpha virt. eigenvalues --    0.16111   0.16568   0.17178   0.17474   0.17845
 Alpha virt. eigenvalues --    0.18321   0.18484   0.19084   0.19275   0.19621
 Alpha virt. eigenvalues --    0.20084   0.20622   0.20679   0.21151   0.21489
 Alpha virt. eigenvalues --    0.22126   0.22597   0.22805   0.23212   0.24113
 Alpha virt. eigenvalues --    0.24337   0.24687   0.25117   0.25854   0.26335
 Alpha virt. eigenvalues --    0.26743   0.27613   0.28041   0.28584   0.29708
 Alpha virt. eigenvalues --    0.30390   0.31155   0.31689   0.32651   0.33237
 Alpha virt. eigenvalues --    0.33348   0.34738   0.35072   0.35377   0.35876
 Alpha virt. eigenvalues --    0.36892   0.38215   0.39893   0.40281   0.42403
 Alpha virt. eigenvalues --    0.42673   0.44207   0.44693   0.46225   0.46423
 Alpha virt. eigenvalues --    0.47425   0.48994   0.50099   0.52391   0.52703
 Alpha virt. eigenvalues --    0.55371   0.55767   0.56186   0.56800   0.58268
 Alpha virt. eigenvalues --    0.59018   0.59430   0.59711   0.60703   0.61521
 Alpha virt. eigenvalues --    0.62412   0.63646   0.64447   0.65284   0.65898
 Alpha virt. eigenvalues --    0.66520   0.69521   0.69979   0.71001   0.71195
 Alpha virt. eigenvalues --    0.72752   0.73380   0.73535   0.74127   0.74772
 Alpha virt. eigenvalues --    0.76121   0.76935   0.78767   0.78945   0.79562
 Alpha virt. eigenvalues --    0.80491   0.81632   0.82295   0.82660   0.82991
 Alpha virt. eigenvalues --    0.83642   0.84888   0.85902   0.86072   0.87299
 Alpha virt. eigenvalues --    0.88048   0.89584   0.90511   0.91940   0.92963
 Alpha virt. eigenvalues --    0.93816   0.95364   0.96023   0.96876   0.98635
 Alpha virt. eigenvalues --    1.00780   1.01716   1.02887   1.03999   1.04749
 Alpha virt. eigenvalues --    1.05292   1.06859   1.06996   1.08677   1.09786
 Alpha virt. eigenvalues --    1.10608   1.12961   1.14724   1.16575   1.17279
 Alpha virt. eigenvalues --    1.19315   1.21251   1.24408   1.27924   1.30799
 Alpha virt. eigenvalues --    1.34474   1.34888   1.36316   1.38094   1.40418
 Alpha virt. eigenvalues --    1.43756   1.45734   1.50112   1.51818   1.55091
 Alpha virt. eigenvalues --    1.56499   1.58055   1.59771   1.60045   1.60370
 Alpha virt. eigenvalues --    1.62794   1.63127   1.64690   1.67362   1.68851
 Alpha virt. eigenvalues --    1.71079   1.71657   1.72682   1.73310   1.74933
 Alpha virt. eigenvalues --    1.76143   1.77647   1.78404   1.79833   1.81008
 Alpha virt. eigenvalues --    1.84362   1.85173   1.86976   1.88300   1.89855
 Alpha virt. eigenvalues --    1.90248   1.92559   1.93576   1.96216   1.97241
 Alpha virt. eigenvalues --    1.99829   2.00230   2.02144   2.04351   2.05794
 Alpha virt. eigenvalues --    2.05959   2.08153   2.08752   2.09624   2.10643
 Alpha virt. eigenvalues --    2.11396   2.14013   2.14944   2.17091   2.17591
 Alpha virt. eigenvalues --    2.18859   2.20210   2.28851   2.31851   2.37899
 Alpha virt. eigenvalues --    2.41006   2.42207   2.44584   2.50182   2.52837
 Alpha virt. eigenvalues --    2.56888   2.58618   2.62800   2.63506   2.69020
 Alpha virt. eigenvalues --    2.70212   2.70587   2.71200   2.72863   2.73824
 Alpha virt. eigenvalues --    2.74207   2.77403   2.78875   2.83218   2.87429
 Alpha virt. eigenvalues --    2.89639   2.92001   2.95326   2.96245   2.98147
 Alpha virt. eigenvalues --    3.02511   3.05745   3.08304   3.10870   3.11573
 Alpha virt. eigenvalues --    3.16532   3.17333   3.19644   3.28588   3.29706
 Alpha virt. eigenvalues --    3.30559   3.31814   3.36541   3.44206   3.47039
 Alpha virt. eigenvalues --    3.47332   3.52124   3.57856   3.69996   3.88000
 Alpha virt. eigenvalues --    3.93466   3.97973   4.05414   4.10645   4.19861
 Alpha virt. eigenvalues --    4.35431   4.49597   5.01199   5.45359   5.73633
 Alpha virt. eigenvalues --    7.97855   7.99099   8.00210  17.28634  17.29664
 Alpha virt. eigenvalues --   17.31383  17.45613  17.46486  17.50549  17.52253
 Alpha virt. eigenvalues --   17.54516  17.56995  23.47020  23.62743  23.77451
 Alpha virt. eigenvalues --   23.80775  23.86297  24.02169  24.05807  24.13615
 Alpha virt. eigenvalues --   24.14143  24.15504  49.93592 189.14390 189.15954
 Alpha virt. eigenvalues --  189.17458
          Condensed to atoms (all electrons):
               1          2          3          4          5          6
     1  C    8.504140  -3.343128   0.674428  -0.905523   0.377643   0.570494
     2  C   -3.343128  15.576065  -4.174215   2.283352  -0.042313  -2.105573
     3  C    0.674428  -4.174215  11.028613  -1.316077  -0.020108   0.633159
     4  C   -0.905523   2.283352  -1.316077   6.440762   0.040379  -0.246744
     5  H    0.377643  -0.042313  -0.020108   0.040379   0.538321   0.006894
     6  S    0.570494  -2.105573   0.633159  -0.246744   0.006894  16.893462
     7  H    0.040955  -0.038381   0.028874   0.345036  -0.005233  -0.020035
     8  C    0.485128  -2.563987   1.418132  -0.539354  -0.011757   0.423131
     9  S   -0.168514   0.116096   0.842641   0.030366   0.000131   0.106850
    10  C    0.020948   0.190228  -1.376957   0.010940  -0.000528  -0.114549
    11  C   -0.286891  -0.088892   1.744158   0.129466   0.000313   0.145397
    12  C    0.190525   0.551638  -3.606776  -0.034973  -0.000855  -0.180065
    13  H    0.002149   0.002037   0.041875   0.002254   0.000001   0.002783
    14  S   -0.010359   0.006603  -0.000885   0.003887  -0.000002  -0.004581
    15  C   -0.005202   0.009310   0.043517   0.002140   0.000000  -0.005919
    16  C    0.007584  -0.066716  -0.275551  -0.002025  -0.000036   0.003180
    17  H    0.000001  -0.000022  -0.000200  -0.000001   0.000000   0.000016
    18  H   -0.000020  -0.000102  -0.000456   0.000003   0.000000  -0.000016
    19  O    0.084946  -0.092299   0.073391  -0.040666  -0.006835   0.052937
    20  H   -0.207153   0.287449  -0.081717   0.031742   0.004221  -0.024385
               7          8          9         10         11         12
     1  C    0.040955   0.485128  -0.168514   0.020948  -0.286891   0.190525
     2  C   -0.038381  -2.563987   0.116096   0.190228  -0.088892   0.551638
     3  C    0.028874   1.418132   0.842641  -1.376957   1.744158  -3.606776
     4  C    0.345036  -0.539354   0.030366   0.010940   0.129466  -0.034973
     5  H   -0.005233  -0.011757   0.000131  -0.000528   0.000313  -0.000855
     6  S   -0.020035   0.423131   0.106850  -0.114549   0.145397  -0.180065
     7  H    0.484069   0.002175  -0.000372   0.000263  -0.000992  -0.000100
     8  C    0.002175  12.418000   1.395458  -1.120018   2.917670  -6.524685
     9  S   -0.000372   1.395458  18.343913  -0.357467   2.563947  -4.855411
    10  C    0.000263  -1.120018  -0.357467  19.347736  -4.121847   0.378837
    11  C   -0.000992   2.917670   2.563947  -4.121847  20.956801 -14.352368
    12  C   -0.000100  -6.524685  -4.855411   0.378837 -14.352368  29.133359
    13  H   -0.000003   0.047926   0.016453  -0.074126   0.106840   0.190839
    14  S    0.000001  -0.727009   0.220438   0.302306  -0.546598  -0.398836
    15  C   -0.000002   0.126841   0.349667   1.667259  -0.040176  -1.247025
    16  C    0.000010  -2.198600  -2.166245  -8.985753  -2.596028   6.298952
    17  H    0.000000   0.004107  -0.001636   0.003483   0.023395   0.008453
    18  H    0.000000  -0.007472   0.018367   0.028654  -0.062958  -0.008837
    19  O   -0.000416  -0.002253  -0.010745  -0.008145   0.010180  -0.006546
    20  H    0.000009  -0.000238   0.005331   0.004130   0.001785   0.007761
              13         14         15         16         17         18
     1  C    0.002149  -0.010359  -0.005202   0.007584   0.000001  -0.000020
     2  C    0.002037   0.006603   0.009310  -0.066716  -0.000022  -0.000102
     3  C    0.041875  -0.000885   0.043517  -0.275551  -0.000200  -0.000456
     4  C    0.002254   0.003887   0.002140  -0.002025  -0.000001   0.000003
     5  H    0.000001  -0.000002   0.000000  -0.000036   0.000000   0.000000
     6  S    0.002783  -0.004581  -0.005919   0.003180   0.000016  -0.000016
     7  H   -0.000003   0.000001  -0.000002   0.000010   0.000000   0.000000
     8  C    0.047926  -0.727009   0.126841  -2.198600   0.004107  -0.007472
     9  S    0.016453   0.220438   0.349667  -2.166245  -0.001636   0.018367
    10  C   -0.074126   0.302306   1.667259  -8.985753   0.003483   0.028654
    11  C    0.106840  -0.546598  -0.040176  -2.596028   0.023395  -0.062958
    12  C    0.190839  -0.398836  -1.247025   6.298952   0.008453  -0.008837
    13  H    0.522028   0.009261   0.001034  -0.007007  -0.000005   0.000008
    14  S    0.009261  17.248203   0.467136  -0.155036  -0.042676   0.013362
    15  C    0.001034   0.467136   5.930338  -1.485992   0.369214   0.035199
    16  C   -0.007007  -0.155036  -1.485992  17.006259  -0.005133   0.333516
    17  H   -0.000005  -0.042676   0.369214  -0.005133   0.479673  -0.005012
    18  H    0.000008   0.013362   0.035199   0.333516  -0.005012   0.521034
    19  O   -0.000117  -0.000276  -0.000007  -0.000748  -0.000000   0.000003
    20  H   -0.000025   0.000104   0.000087   0.000064  -0.000000   0.000000
              19         20
     1  C    0.084946  -0.207153
     2  C   -0.092299   0.287449
     3  C    0.073391  -0.081717
     4  C   -0.040666   0.031742
     5  H   -0.006835   0.004221
     6  S    0.052937  -0.024385
     7  H   -0.000416   0.000009
     8  C   -0.002253  -0.000238
     9  S   -0.010745   0.005331
    10  C   -0.008145   0.004130
    11  C    0.010180   0.001785
    12  C   -0.006546   0.007761
    13  H   -0.000117  -0.000025
    14  S   -0.000276   0.000104
    15  C   -0.000007   0.000087
    16  C   -0.000748   0.000064
    17  H   -0.000000  -0.000000
    18  H    0.000003   0.000000
    19  O    8.021627   0.172866
    20  H    0.172866   0.543188
 Mulliken charges:
               1
     1  C   -0.032152
     2  C   -0.507151
     3  C    0.324155
     4  C   -0.234961
     5  H    0.119763
     6  S   -0.136436
     7  H    0.164139
     8  C    0.456804
     9  S   -0.449267
    10  C    0.204606
    11  C   -0.503202
    12  C    0.456110
    13  H    0.135794
    14  S   -0.385043
    15  C   -0.217420
    16  C    0.295304
    17  H    0.166344
    18  H    0.134729
    19  O   -0.246896
    20  H    0.254781
 Sum of Mulliken charges =  -0.00000
 Mulliken charges with hydrogens summed into heavy atoms:
               1
     1  C    0.087610
     2  C   -0.507151
     3  C    0.324155
     4  C   -0.070822
     6  S   -0.136436
     8  C    0.456804
     9  S   -0.449267
    10  C    0.204606
    11  C   -0.503202
    12  C    0.591904
    14  S   -0.385043
    15  C   -0.051077
    16  C    0.430033
    19  O    0.007885
 Electronic spatial extent (au):  <R**2>=           4321.7423
 Charge=             -0.0000 electrons
 Dipole moment (field-independent basis, Debye):
    X=              2.0173    Y=              0.6007    Z=             -0.5902  Tot=              2.1860
 Quadrupole moment (field-independent basis, Debye-Ang):
   XX=            -78.5217   YY=            -99.5459   ZZ=           -103.5368
   XY=              1.2498   XZ=             -6.0460   YZ=             -0.0534
 Traceless Quadrupole moment (field-independent basis, Debye-Ang):
   XX=             15.3465   YY=             -5.6778   ZZ=             -9.6687
   XY=              1.2498   XZ=             -6.0460   YZ=             -0.0534
 Octapole moment (field-independent basis, Debye-Ang**2):
  XXX=             43.7650  YYY=             13.8870  ZZZ=             -9.2642  XYY=             18.5810
  XXY=             27.4885  XXZ=             -9.3785  XZZ=             10.9598  YZZ=              7.8749
  YYZ=             -6.1028  XYZ=            -26.2551
 Hexadecapole moment (field-independent basis, Debye-Ang**3):
 XXXX=          -4062.3670 YYYY=           -740.3749 ZZZZ=           -471.0761 XXXY=             11.1263
 XXXZ=            -93.7006 YYYX=             38.9397 YYYZ=            -20.8488 ZZZX=            -30.2194
 ZZZY=            -16.5848 XXYY=           -859.7439 XXZZ=           -880.9025 YYZZ=           -178.1454
 XXYZ=            -54.1359 YYXZ=            -36.6221 ZZXY=             22.4489
 N-N= 1.122378726921D+03 E-N=-6.156516995680D+03  KE= 1.651062961429D+03
 Unable to Open any file for archive entry.
 1\1\GINC-CX3-12-21\FOpt\RB3LYP\6-311+G(d,p)\C10H6O1S3\NS5018\17-Oct-20
 21\0\\# opt=modredundant b3lyp/6-311+g(d,p)\\pBTTT_-75.pdb\\0,1\C,-4.2
 089231987,-1.3924913312,-0.1542771143\C,-2.9166129394,-0.9439882004,-0
 .5628755557\C,-1.9694841079,-1.9402621375,-0.6061672744\C,-4.233871195
 7,-2.730690923,0.1140663345\H,-5.0710128195,-0.743114553,-0.0604165312
 \S,-2.6930598863,-3.4678275138,-0.1309596103\H,-5.0728551688,-3.324079
 8305,0.4435859401\C,-0.5536656965,-1.8412196683,-0.9423364353\S,-0.050
 6699636,-1.6334961076,-2.628436291\C,1.6274126963,-1.6767680961,-2.170
 2724573\C,1.757551486,-1.8590854592,-0.7989879093\C,0.5237365527,-1.95
 69998519,-0.101986527\H,0.4183662423,-2.0940097123,0.9654120849\S,3.43
 95169345,-1.8955308559,-0.3386706829\C,3.9234658696,-1.6631663748,-2.0
 030995116\C,2.8676456066,-1.5605515157,-2.861932683\H,4.9751811018,-1.
 6179258003,-2.2414915541\H,2.9751926153,-1.4138064803,-3.927634231\O,-
 2.6055128386,0.3468199203,-0.8788996908\H,-3.3884012902,0.8991944915,-
 0.7936203003\\Version=ES64L-G16RevC.01\State=1-A\HF=-1654.6296161\RMSD
 =3.911e-09\RMSF=4.663e-04\Dipole=-0.7913811,0.3027789,0.1472868\Quadru
 pole=10.1458712,-5.9233537,-4.2225174,-3.4594331,-5.4888426,-0.9409698
 \PG=C01 [X(C10H6O1S3)]\\@
 The archive entry for this job was punched.


 IF YOU GIVE A BOY AND A PIG EVERYTHING THEY WANT,
 YOU'LL GET A BAD BOY AND A GOOD PIG.
 Job cpu time:       0 days  2 hours  0 minutes 54.5 seconds.
 Elapsed time:       0 days  0 hours 15 minutes 19.3 seconds.
 File lengths (MBytes):  RWF=     86 Int=      0 D2E=      0 Chk=     11 Scr=      1
 Normal termination of Gaussian 16 at Sun Oct 17 01:54:11 2021.
