 Entering Gaussian System, Link 0=g16
 Input=pBTTT_90.gjf
 Output=pBTTT_90.log
 Initial command:
 /apps/gaussian/g16-c01-avx/g16/l1.exe "/tmp/pbs.4729018[265].pbs/Gau-2533137.inp" -scrdir="/tmp/pbs.4729018[265].pbs/"
 Entering Link 1 = /apps/gaussian/g16-c01-avx/g16/l1.exe PID=   2533138.
  
 Copyright (c) 1988-2019, Gaussian, Inc.  All Rights Reserved.
  
 This is part of the Gaussian(R) 16 program.  It is based on
 the Gaussian(R) 09 system (copyright 2009, Gaussian, Inc.),
 the Gaussian(R) 03 system (copyright 2003, Gaussian, Inc.),
 the Gaussian(R) 98 system (copyright 1998, Gaussian, Inc.),
 the Gaussian(R) 94 system (copyright 1995, Gaussian, Inc.),
 the Gaussian 92(TM) system (copyright 1992, Gaussian, Inc.),
 the Gaussian 90(TM) system (copyright 1990, Gaussian, Inc.),
 the Gaussian 88(TM) system (copyright 1988, Gaussian, Inc.),
 the Gaussian 86(TM) system (copyright 1986, Carnegie Mellon
 University), and the Gaussian 82(TM) system (copyright 1983,
 Carnegie Mellon University). Gaussian is a federally registered
 trademark of Gaussian, Inc.
  
 This software contains proprietary and confidential information,
 including trade secrets, belonging to Gaussian, Inc.
  
 This software is provided under written license and may be
 used, copied, transmitted, or stored only in accord with that
 written license.
  
 The following legend is applicable only to US Government
 contracts under FAR:
  
                    RESTRICTED RIGHTS LEGEND
  
 Use, reproduction and disclosure by the US Government is
 subject to restrictions as set forth in subparagraphs (a)
 and (c) of the Commercial Computer Software - Restricted
 Rights clause in FAR 52.227-19.
  
 Gaussian, Inc.
 340 Quinnipiac St., Bldg. 40, Wallingford CT 06492
  
  
 ---------------------------------------------------------------
 Warning -- This program may not be used in any manner that
 competes with the business of Gaussian, Inc. or will provide
 assistance to any competitor of Gaussian, Inc.  The licensee
 of this program is prohibited from giving any competitor of
 Gaussian, Inc. access to this program.  By using this program,
 the user acknowledges that Gaussian, Inc. is engaged in the
 business of creating and licensing software in the field of
 computational chemistry and represents and warrants to the
 licensee that it is not a competitor of Gaussian, Inc. and that
 it will not use this program in any manner prohibited above.
 ---------------------------------------------------------------
  

 Cite this work as:
 Gaussian 16, Revision C.01,
 M. J. Frisch, G. W. Trucks, H. B. Schlegel, G. E. Scuseria, 
 M. A. Robb, J. R. Cheeseman, G. Scalmani, V. Barone, 
 G. A. Petersson, H. Nakatsuji, X. Li, M. Caricato, A. V. Marenich, 
 J. Bloino, B. G. Janesko, R. Gomperts, B. Mennucci, H. P. Hratchian, 
 J. V. Ortiz, A. F. Izmaylov, J. L. Sonnenberg, D. Williams-Young, 
 F. Ding, F. Lipparini, F. Egidi, J. Goings, B. Peng, A. Petrone, 
 T. Henderson, D. Ranasinghe, V. G. Zakrzewski, J. Gao, N. Rega, 
 G. Zheng, W. Liang, M. Hada, M. Ehara, K. Toyota, R. Fukuda, 
 J. Hasegawa, M. Ishida, T. Nakajima, Y. Honda, O. Kitao, H. Nakai, 
 T. Vreven, K. Throssell, J. A. Montgomery, Jr., J. E. Peralta, 
 F. Ogliaro, M. J. Bearpark, J. J. Heyd, E. N. Brothers, K. N. Kudin, 
 V. N. Staroverov, T. A. Keith, R. Kobayashi, J. Normand, 
 K. Raghavachari, A. P. Rendell, J. C. Burant, S. S. Iyengar, 
 J. Tomasi, M. Cossi, J. M. Millam, M. Klene, C. Adamo, R. Cammi, 
 J. W. Ochterski, R. L. Martin, K. Morokuma, O. Farkas, 
 J. B. Foresman, and D. J. Fox, Gaussian, Inc., Wallingford CT, 2019.
 
 ******************************************
 Gaussian 16:  ES64L-G16RevC.01  3-Jul-2019
                17-Oct-2021 
 ******************************************
 %mem=10GB
 %nprocshared=8
 Will use up to    8 processors via shared memory.
 -------------------------------------
 # opt=modredundant b3lyp/6-311+g(d,p)
 -------------------------------------
 1/18=120,19=15,26=3,38=1/1,3;
 2/9=110,12=2,17=6,18=5,40=1/2;
 3/5=4,6=6,7=111,11=2,25=1,30=1,71=1,74=-5/1,2,3;
 4//1;
 5/5=2,38=5/2;
 6/7=2,8=2,9=2,10=2,28=1/1;
 7//1,2,3,16;
 1/18=20,19=15,26=3/3(2);
 2/9=110/2;
 99//99;
 2/9=110/2;
 3/5=4,6=6,7=111,11=2,25=1,30=1,71=1,74=-5/1,2,3;
 4/5=5,16=3,69=1/1;
 5/5=2,38=5/2;
 7//1,2,3,16;
 1/18=20,19=15,26=3/3(-5);
 2/9=110/2;
 6/7=2,8=2,9=2,10=2,19=2,28=1/1;
 99/9=1/99;
 ------------
 pBTTT_90.pdb
 ------------
 Symbolic Z-matrix:
 Charge =  0 Multiplicity = 1
 C                    -4.25     -1.36     -0.21 
 C                    -2.93     -0.95     -0.61 
 C                    -1.97     -2.05     -0.62 
 C                    -4.33     -2.76      0.1 
 H                    -5.1      -0.7      -0.14 
 S                    -2.8      -3.56     -0.11 
 H                    -5.23     -3.27      0.41 
 C                    -0.56     -2.13     -0.97 
 S                     0.733    -1.868     0.24 
 C                     1.989    -2.133    -0.922 
 C                     1.47     -2.448    -2.228 
 C                     0.038    -2.467    -2.264 
 H                    -0.524    -2.84     -3.106 
 S                     2.577    -3.383    -3.178 
 C                     3.768    -3.37     -1.875 
 C                     3.293    -2.667    -0.706 
 H                     4.658    -3.982    -1.899 
 H                     3.75     -2.781     0.274 
 O                    -2.4       0.49     -0.72 
 H                    -2.92      1.52     -0.76 
 
 Add virtual bond connecting atoms H20        and O19        Dist= 2.18D+00.
 The following ModRedundant input section has been read:
 D       2       3       8       9 F                                           
 

 GradGradGradGradGradGradGradGradGradGradGradGradGradGradGradGradGradGrad
 Berny optimization.
 Initialization pass.
                           ----------------------------
                           !    Initial Parameters    !
                           ! (Angstroms and Degrees)  !
 --------------------------                            --------------------------
 ! Name  Definition              Value          Derivative Info.                !
 --------------------------------------------------------------------------------
 ! R1    R(1,2)                  1.4389         estimate D2E/DX2                !
 ! R2    R(1,4)                  1.4361         estimate D2E/DX2                !
 ! R3    R(1,5)                  1.0784         estimate D2E/DX2                !
 ! R4    R(2,3)                  1.46           estimate D2E/DX2                !
 ! R5    R(2,19)                 1.5384         estimate D2E/DX2                !
 ! R6    R(3,6)                  1.797          estimate D2E/DX2                !
 ! R7    R(3,8)                  1.455          estimate D2E/DX2                !
 ! R8    R(4,6)                  1.7393         estimate D2E/DX2                !
 ! R9    R(4,7)                  1.0799         estimate D2E/DX2                !
 ! R10   R(8,9)                  1.7901         estimate D2E/DX2                !
 ! R11   R(8,12)                 1.4648         estimate D2E/DX2                !
 ! R12   R(9,10)                 1.7315         estimate D2E/DX2                !
 ! R13   R(10,11)                1.4402         estimate D2E/DX2                !
 ! R14   R(10,16)                1.4256         estimate D2E/DX2                !
 ! R15   R(11,12)                1.4326         estimate D2E/DX2                !
 ! R16   R(11,14)                1.7327         estimate D2E/DX2                !
 ! R17   R(12,13)                1.0789         estimate D2E/DX2                !
 ! R18   R(14,15)                1.7653         estimate D2E/DX2                !
 ! R19   R(15,16)                1.4444         estimate D2E/DX2                !
 ! R20   R(15,17)                1.0804         estimate D2E/DX2                !
 ! R21   R(16,18)                1.0873         estimate D2E/DX2                !
 ! R22   R(19,20)                1.1545         estimate D2E/DX2                !
 ! A1    A(2,1,4)              112.8843         estimate D2E/DX2                !
 ! A2    A(2,1,5)              124.5209         estimate D2E/DX2                !
 ! A3    A(4,1,5)              122.5942         estimate D2E/DX2                !
 ! A4    A(1,2,3)              112.9799         estimate D2E/DX2                !
 ! A5    A(1,2,19)             127.059          estimate D2E/DX2                !
 ! A6    A(3,2,19)             118.5686         estimate D2E/DX2                !
 ! A7    A(2,3,6)              109.1138         estimate D2E/DX2                !
 ! A8    A(2,3,8)              132.8639         estimate D2E/DX2                !
 ! A9    A(6,3,8)              118.0132         estimate D2E/DX2                !
 ! A10   A(1,4,6)              111.9209         estimate D2E/DX2                !
 ! A11   A(1,4,7)              124.6643         estimate D2E/DX2                !
 ! A12   A(6,4,7)              123.4062         estimate D2E/DX2                !
 ! A13   A(3,6,4)               93.0997         estimate D2E/DX2                !
 ! A14   A(3,8,9)              121.9591         estimate D2E/DX2                !
 ! A15   A(3,8,12)             128.3731         estimate D2E/DX2                !
 ! A16   A(9,8,12)             109.628          estimate D2E/DX2                !
 ! A17   A(8,9,10)              92.7472         estimate D2E/DX2                !
 ! A18   A(9,10,11)            112.3729         estimate D2E/DX2                !
 ! A19   A(9,10,16)            128.2564         estimate D2E/DX2                !
 ! A20   A(11,10,16)           112.6501         estimate D2E/DX2                !
 ! A21   A(10,11,12)           112.7            estimate D2E/DX2                !
 ! A22   A(10,11,14)           112.6425         estimate D2E/DX2                !
 ! A23   A(12,11,14)           128.1485         estimate D2E/DX2                !
 ! A24   A(8,12,11)            112.5093         estimate D2E/DX2                !
 ! A25   A(8,12,13)            123.8025         estimate D2E/DX2                !
 ! A26   A(11,12,13)           123.0184         estimate D2E/DX2                !
 ! A27   A(11,14,15)            91.2819         estimate D2E/DX2                !
 ! A28   A(14,15,16)           112.2765         estimate D2E/DX2                !
 ! A29   A(14,15,17)           122.3576         estimate D2E/DX2                !
 ! A30   A(16,15,17)           124.3728         estimate D2E/DX2                !
 ! A31   A(10,16,15)           111.1303         estimate D2E/DX2                !
 ! A32   A(10,16,18)           124.0767         estimate D2E/DX2                !
 ! A33   A(15,16,18)           122.6969         estimate D2E/DX2                !
 ! A34   A(2,19,20)            133.0318         estimate D2E/DX2                !
 ! D1    D(4,1,2,3)              0.3915         estimate D2E/DX2                !
 ! D2    D(4,1,2,19)          -165.8104         estimate D2E/DX2                !
 ! D3    D(5,1,2,3)           -179.8811         estimate D2E/DX2                !
 ! D4    D(5,1,2,19)            13.9169         estimate D2E/DX2                !
 ! D5    D(2,1,4,6)             -0.3845         estimate D2E/DX2                !
 ! D6    D(2,1,4,7)           -179.3471         estimate D2E/DX2                !
 ! D7    D(5,1,4,6)            179.8822         estimate D2E/DX2                !
 ! D8    D(5,1,4,7)              0.9196         estimate D2E/DX2                !
 ! D9    D(1,2,3,6)             -0.2224         estimate D2E/DX2                !
 ! D10   D(1,2,3,8)            178.6265         estimate D2E/DX2                !
 ! D11   D(19,2,3,6)           167.2616         estimate D2E/DX2                !
 ! D12   D(19,2,3,8)           -13.8895         estimate D2E/DX2                !
 ! D13   D(1,2,19,20)          -16.0519         estimate D2E/DX2                !
 ! D14   D(3,2,19,20)          178.4264         estimate D2E/DX2                !
 ! D15   D(2,3,6,4)              0.0033         estimate D2E/DX2                !
 ! D16   D(8,3,6,4)           -179.041          estimate D2E/DX2                !
 ! D17   D(2,3,8,9)             89.9956         Frozen                          !
 ! D18   D(2,3,8,12)           -92.5459         estimate D2E/DX2                !
 ! D19   D(6,3,8,9)            -91.2364         estimate D2E/DX2                !
 ! D20   D(6,3,8,12)            86.222          estimate D2E/DX2                !
 ! D21   D(1,4,6,3)              0.2153         estimate D2E/DX2                !
 ! D22   D(7,4,6,3)            179.1932         estimate D2E/DX2                !
 ! D23   D(3,8,9,10)           179.7575         estimate D2E/DX2                !
 ! D24   D(12,8,9,10)            1.8728         estimate D2E/DX2                !
 ! D25   D(3,8,12,11)         -179.8612         estimate D2E/DX2                !
 ! D26   D(3,8,12,13)           -9.0092         estimate D2E/DX2                !
 ! D27   D(9,8,12,11)           -2.1504         estimate D2E/DX2                !
 ! D28   D(9,8,12,13)          168.7016         estimate D2E/DX2                !
 ! D29   D(8,9,10,11)           -1.1555         estimate D2E/DX2                !
 ! D30   D(8,9,10,16)         -149.9053         estimate D2E/DX2                !
 ! D31   D(9,10,11,12)           0.0963         estimate D2E/DX2                !
 ! D32   D(9,10,11,14)        -154.0584         estimate D2E/DX2                !
 ! D33   D(16,10,11,12)        153.9023         estimate D2E/DX2                !
 ! D34   D(16,10,11,14)         -0.2524         estimate D2E/DX2                !
 ! D35   D(9,10,16,15)         149.7873         estimate D2E/DX2                !
 ! D36   D(9,10,16,18)         -14.0814         estimate D2E/DX2                !
 ! D37   D(11,10,16,15)          1.1073         estimate D2E/DX2                !
 ! D38   D(11,10,16,18)       -162.7615         estimate D2E/DX2                !
 ! D39   D(10,11,12,8)           1.3588         estimate D2E/DX2                !
 ! D40   D(10,11,12,13)       -169.5761         estimate D2E/DX2                !
 ! D41   D(14,11,12,8)         150.5872         estimate D2E/DX2                !
 ! D42   D(14,11,12,13)        -20.3477         estimate D2E/DX2                !
 ! D43   D(10,11,14,15)         -0.5142         estimate D2E/DX2                !
 ! D44   D(12,11,14,15)       -149.7568         estimate D2E/DX2                !
 ! D45   D(11,14,15,16)          1.1495         estimate D2E/DX2                !
 ! D46   D(11,14,15,17)        170.2039         estimate D2E/DX2                !
 ! D47   D(14,15,16,10)         -1.4886         estimate D2E/DX2                !
 ! D48   D(14,15,16,18)        162.6409         estimate D2E/DX2                !
 ! D49   D(17,15,16,10)       -170.2831         estimate D2E/DX2                !
 ! D50   D(17,15,16,18)         -6.1536         estimate D2E/DX2                !
 --------------------------------------------------------------------------------
 Trust Radius=3.00D-01 FncErr=1.00D-07 GrdErr=1.00D-06 EigMax=2.50D+02 EigMin=1.00D-04
 Number of steps in this run=    116 maximum allowed number of steps=    120.
 GradGradGradGradGradGradGradGradGradGradGradGradGradGradGradGradGradGrad

                          Input orientation:                          
 ---------------------------------------------------------------------
 Center     Atomic      Atomic             Coordinates (Angstroms)
 Number     Number       Type             X           Y           Z
 ---------------------------------------------------------------------
      1          6           0       -4.250000   -1.360000   -0.210000
      2          6           0       -2.930000   -0.950000   -0.610000
      3          6           0       -1.970000   -2.050000   -0.620000
      4          6           0       -4.330000   -2.760000    0.100000
      5          1           0       -5.100000   -0.700000   -0.140000
      6         16           0       -2.800000   -3.560000   -0.110000
      7          1           0       -5.230000   -3.270000    0.410000
      8          6           0       -0.560000   -2.130000   -0.970000
      9         16           0        0.733000   -1.868000    0.240000
     10          6           0        1.989000   -2.133000   -0.922000
     11          6           0        1.470000   -2.448000   -2.228000
     12          6           0        0.038000   -2.467000   -2.264000
     13          1           0       -0.524000   -2.840000   -3.106000
     14         16           0        2.577000   -3.383000   -3.178000
     15          6           0        3.768000   -3.370000   -1.875000
     16          6           0        3.293000   -2.667000   -0.706000
     17          1           0        4.658000   -3.982000   -1.899000
     18          1           0        3.750000   -2.781000    0.274000
     19          8           0       -2.400000    0.490000   -0.720000
     20          1           0       -2.920000    1.520000   -0.760000
 ---------------------------------------------------------------------
                    Distance matrix (angstroms):
                    1          2          3          4          5
     1  C    0.000000
     2  C    1.438923   0.000000
     3  C    2.417147   1.460034   0.000000
     4  C    1.436141   2.395871   2.567509   0.000000
     5  H    1.078425   2.234346   3.442354   2.212261   0.000000
     6  S    2.636759   2.660639   1.796970   1.739253   3.670218
     7  H    2.234480   3.422397   3.630000   1.079907   2.631406
     8  C    3.845335   2.671872   1.454991   3.969219   4.831708
     9  S    5.029001   3.870761   2.842346   5.142882   5.960915
    10  C    6.326894   5.068865   3.971369   6.431747   7.274540
    11  C    6.162343   4.921578   3.818071   6.257550   7.111972
    12  C    4.881732   3.721025   2.628439   4.975316   5.833756
    13  H    4.945735   3.948538   2.982484   4.976994   5.858031
    14  S    7.714239   6.545316   5.384743   7.670728   8.681259
    15  C    8.432120   7.233245   6.020139   8.357651   9.422343
    16  C    7.671448   6.456240   5.299741   7.666056   8.638975
    17  H    9.438224   8.272381   7.021314   9.288349  10.444337
    18  H    8.139625   6.982580   5.835409   8.081901   9.100794
    19  O    2.665539   1.538376   2.578081   3.867790   3.007075
    20  H    3.219596   2.474571   3.696891   4.587603   3.172570
                    6          7          8          9         10
     6  S    0.000000
     7  H    2.501879   0.000000
     8  C    2.793224   5.001290   0.000000
     9  S    3.932868   6.127958   1.790138   0.000000
    10  C    5.062627   7.428388   2.549454   1.731475   0.000000
    11  C    4.894422   7.247395   2.409271   2.640188   1.440216
    12  C    3.726742   5.962123   1.464790   2.666804   2.391427
    13  H    3.830743   5.890127   2.251198   3.704126   3.403656
    14  S    6.193229   8.592774   4.035597   4.168727   2.645332
    15  C    6.803672   9.284139   4.592190   3.992550   2.367112
    16  C    6.186866   8.616878   3.899189   2.843751   1.425562
    17  H    7.681170  10.178947   5.614309   4.944688   3.390707
    18  H    6.607329   8.994332   4.532928   3.152303   2.225183
    19  O    4.115167   4.839773   3.211308   4.037010   5.117055
    20  H    5.122821   5.445099   4.351574   5.081629   6.121187
                   11         12         13         14         15
    11  C    0.000000
    12  C    1.432578   0.000000
    13  H    2.213726   1.078859   0.000000
    14  S    1.732678   2.849732   3.149005   0.000000
    15  C    2.501099   3.857412   4.496390   1.765350   0.000000
    16  C    2.384905   3.614193   4.512141   2.671347   1.444436
    17  H    3.553131   4.875741   5.441887   2.514996   1.080380
    18  H    3.401366   4.507658   5.449308   3.695218   2.228328
    19  O    5.087515   4.131783   4.505693   6.768487   7.367350
    20  H    6.096897   5.187287   5.500376   7.752622   8.359705
                   16         17         18         19         20
    16  C    0.000000
    17  H    2.239576   0.000000
    18  H    1.087311   2.643633   0.000000
    19  O    6.509769   8.438257   7.036333   0.000000
    20  H    7.492346   9.433738   8.003540   1.154513   0.000000
 Stoichiometry    C10H6OS3
 Framework group  C1[X(C10H6OS3)]
 Deg. of freedom    54
 Full point group                 C1      NOp   1
 Largest Abelian subgroup         C1      NOp   1
 Largest concise Abelian subgroup C1      NOp   1
                         Standard orientation:                         
 ---------------------------------------------------------------------
 Center     Atomic      Atomic             Coordinates (Angstroms)
 Number     Number       Type             X           Y           Z
 ---------------------------------------------------------------------
      1          6           0       -4.114535    0.128270   -0.391134
      2          6           0       -2.828529    0.734906   -0.611775
      3          6           0       -1.724656   -0.060540   -0.082221
      4          6           0       -4.029228   -1.122357    0.309689
      5          1           0       -5.053541    0.554398   -0.706862
      6         16           0       -2.384162   -1.547751    0.680902
      7          1           0       -4.875810   -1.742092    0.565477
      8          6           0       -0.281238    0.122546   -0.087158
      9         16           0        0.568017    0.992772    1.226640
     10          6           0        2.118553    0.758809    0.492401
     11          6           0        2.037134    0.004988   -0.732078
     12          6           0        0.695033   -0.374101   -1.059704
     13          1           0        0.457101   -1.074973   -1.844627
     14         16           0        3.506439   -0.838562   -1.095036
     15          6           0        4.277522   -0.202744    0.360170
     16          6           0        3.387494    0.634801    1.130082
     17          1           0        5.233487   -0.562456    0.712247
     18          1           0        3.573879    0.889311    2.170625
     19          8           0       -2.549275    2.184389   -1.044921
     20          1           0       -3.210912    3.009873   -1.507213
 ---------------------------------------------------------------------
 Rotational constants (GHZ):           1.1609163           0.2571933           0.2471286
 Standard basis: 6-311+G(d,p) (5D, 7F)
 There are   382 symmetry adapted cartesian basis functions of A   symmetry.
 There are   368 symmetry adapted basis functions of A   symmetry.
   368 basis functions,   594 primitive gaussians,   382 cartesian basis functions
    61 alpha electrons       61 beta electrons
       nuclear repulsion energy      1100.3949728914 Hartrees.
 NAtoms=   20 NActive=   20 NUniq=   20 SFac= 1.00D+00 NAtFMM=   60 NAOKFM=F Big=F
 Integral buffers will be    131072 words long.
 Raffenetti 2 integral format.
 Two-electron integral symmetry is turned on.
 One-electron integrals computed using PRISM.
 NBasis=   368 RedAO= T EigKep=  3.56D-06  NBF=   368
 NBsUse=   367 1.00D-06 EigRej=  5.40D-07 NBFU=   367
 ExpMin= 4.05D-02 ExpMax= 9.34D+04 ExpMxC= 3.17D+03 IAcc=3 IRadAn=         5 AccDes= 0.00D+00
 Harris functional with IExCor=  402 and IRadAn=       5 diagonalized for initial guess.
 HarFok:  IExCor=  402 AccDes= 0.00D+00 IRadAn=         5 IDoV= 1 UseB2=F ITyADJ=14
 ICtDFT=  3500011 ScaDFX=  1.000000  1.000000  1.000000  1.000000
 FoFCou: FMM=F IPFlag=           0 FMFlag=      100000 FMFlg1=           0
         NFxFlg=           0 DoJE=T BraDBF=F KetDBF=T FulRan=T
         wScrn=  0.000000 ICntrl=       500 IOpCl=  0 I1Cent=   200000004 NGrid=           0
         NMat0=    1 NMatS0=      1 NMatT0=    0 NMatD0=    1 NMtDS0=    0 NMtDT0=    0
 Petite list used in FoFCou.
 Requested convergence on RMS density matrix=1.00D-08 within 128 cycles.
 Requested convergence on MAX density matrix=1.00D-06.
 Requested convergence on             energy=1.00D-06.
 No special actions if energy rises.
 SCF Done:  E(RB3LYP) =  -1654.52988689     A.U. after   17 cycles
            NFock= 17  Conv=0.53D-08     -V/T= 2.0031

 **********************************************************************

            Population analysis using the SCF Density.

 **********************************************************************

 Orbital symmetries:
       Occupied  (A) (A) (A) (A) (A) (A) (A) (A) (A) (A) (A) (A)
                 (A) (A) (A) (A) (A) (A) (A) (A) (A) (A) (A) (A)
                 (A) (A) (A) (A) (A) (A) (A) (A) (A) (A) (A) (A)
                 (A) (A) (A) (A) (A) (A) (A) (A) (A) (A) (A) (A)
                 (A) (A) (A) (A) (A) (A) (A) (A) (A) (A) (A) (A)
                 (A)
       Virtual   (A) (A) (A) (A) (A) (A) (A) (A) (A) (A) (A) (A)
                 (A) (A) (A) (A) (A) (A) (A) (A) (A) (A) (A) (A)
                 (A) (A) (A) (A) (A) (A) (A) (A) (A) (A) (A) (A)
                 (A) (A) (A) (A) (A) (A) (A) (A) (A) (A) (A) (A)
                 (A) (A) (A) (A) (A) (A) (A) (A) (A) (A) (A) (A)
                 (A) (A) (A) (A) (A) (A) (A) (A) (A) (A) (A) (A)
                 (A) (A) (A) (A) (A) (A) (A) (A) (A) (A) (A) (A)
                 (A) (A) (A) (A) (A) (A) (A) (A) (A) (A) (A) (A)
                 (A) (A) (A) (A) (A) (A) (A) (A) (A) (A) (A) (A)
                 (A) (A) (A) (A) (A) (A) (A) (A) (A) (A) (A) (A)
                 (A) (A) (A) (A) (A) (A) (A) (A) (A) (A) (A) (A)
                 (A) (A) (A) (A) (A) (A) (A) (A) (A) (A) (A) (A)
                 (A) (A) (A) (A) (A) (A) (A) (A) (A) (A) (A) (A)
                 (A) (A) (A) (A) (A) (A) (A) (A) (A) (A) (A) (A)
                 (A) (A) (A) (A) (A) (A) (A) (A) (A) (A) (A) (A)
                 (A) (A) (A) (A) (A) (A) (A) (A) (A) (A) (A) (A)
                 (A) (A) (A) (A) (A) (A) (A) (A) (A) (A) (A) (A)
                 (A) (A) (A) (A) (A) (A) (A) (A) (A) (A) (A) (A)
                 (A) (A) (A) (A) (A) (A) (A) (A) (A) (A) (A) (A)
                 (A) (A) (A) (A) (A) (A) (A) (A) (A) (A) (A) (A)
                 (A) (A) (A) (A) (A) (A) (A) (A) (A) (A) (A) (A)
                 (A) (A) (A) (A) (A) (A) (A) (A) (A) (A) (A) (A)
                 (A) (A) (A) (A) (A) (A) (A) (A) (A) (A) (A) (A)
                 (A) (A) (A) (A) (A) (A) (A) (A) (A) (A) (A) (A)
                 (A) (A) (A) (A) (A) (A) (A) (A) (A) (A) (A) (A)
                 (A) (A) (A) (A) (A) (A)
 The electronic state is 1-A.
 Alpha  occ. eigenvalues --  -88.89624 -88.88877 -88.88311 -19.15784 -10.27397
 Alpha  occ. eigenvalues --  -10.23287 -10.23128 -10.22459 -10.21920 -10.21668
 Alpha  occ. eigenvalues --  -10.21610 -10.20387 -10.20326 -10.20099  -7.98062
 Alpha  occ. eigenvalues --   -7.97401  -7.96830  -5.94357  -5.93996  -5.93712
 Alpha  occ. eigenvalues --   -5.93668  -5.93355  -5.93146  -5.92956  -5.92781
 Alpha  occ. eigenvalues --   -5.92380  -0.97937  -0.90290  -0.87641  -0.83349
 Alpha  occ. eigenvalues --   -0.77164  -0.75160  -0.73869  -0.70751  -0.68608
 Alpha  occ. eigenvalues --   -0.61623  -0.57956  -0.57371  -0.53917  -0.53304
 Alpha  occ. eigenvalues --   -0.51297  -0.48859  -0.45767  -0.44614  -0.42714
 Alpha  occ. eigenvalues --   -0.42166  -0.40399  -0.39798  -0.39316  -0.38620
 Alpha  occ. eigenvalues --   -0.37055  -0.36467  -0.34356  -0.34097  -0.33232
 Alpha  occ. eigenvalues --   -0.32657  -0.28758  -0.25724  -0.23669  -0.23334
 Alpha  occ. eigenvalues --   -0.21345
 Alpha virt. eigenvalues --   -0.06036  -0.05382  -0.04765  -0.01749  -0.00709
 Alpha virt. eigenvalues --    0.00006   0.00320   0.00971   0.01278   0.01814
 Alpha virt. eigenvalues --    0.02316   0.02968   0.03355   0.03966   0.04094
 Alpha virt. eigenvalues --    0.04434   0.04669   0.05981   0.06086   0.06791
 Alpha virt. eigenvalues --    0.07190   0.07639   0.07970   0.08473   0.08948
 Alpha virt. eigenvalues --    0.09279   0.10197   0.10609   0.10955   0.11211
 Alpha virt. eigenvalues --    0.11670   0.12132   0.12639   0.13092   0.13259
 Alpha virt. eigenvalues --    0.13513   0.14444   0.14593   0.15042   0.15245
 Alpha virt. eigenvalues --    0.15734   0.16292   0.17012   0.17412   0.17462
 Alpha virt. eigenvalues --    0.17797   0.18343   0.18558   0.18932   0.19518
 Alpha virt. eigenvalues --    0.20089   0.20444   0.20693   0.20812   0.21097
 Alpha virt. eigenvalues --    0.21478   0.21892   0.22016   0.22556   0.23086
 Alpha virt. eigenvalues --    0.23215   0.23640   0.23988   0.24313   0.25406
 Alpha virt. eigenvalues --    0.26007   0.26491   0.26824   0.27132   0.27798
 Alpha virt. eigenvalues --    0.28143   0.28911   0.29605   0.30879   0.31543
 Alpha virt. eigenvalues --    0.32528   0.33470   0.33825   0.34054   0.34639
 Alpha virt. eigenvalues --    0.36560   0.36677   0.37681   0.38364   0.39520
 Alpha virt. eigenvalues --    0.41302   0.42348   0.42636   0.43033   0.44845
 Alpha virt. eigenvalues --    0.45176   0.46866   0.47797   0.49786   0.51922
 Alpha virt. eigenvalues --    0.53287   0.55456   0.55560   0.56046   0.56870
 Alpha virt. eigenvalues --    0.57513   0.58694   0.59027   0.59913   0.60509
 Alpha virt. eigenvalues --    0.61487   0.62285   0.63041   0.64857   0.65348
 Alpha virt. eigenvalues --    0.65991   0.67212   0.67957   0.69065   0.70277
 Alpha virt. eigenvalues --    0.70457   0.71118   0.71646   0.72468   0.72981
 Alpha virt. eigenvalues --    0.73538   0.74262   0.74776   0.75677   0.75951
 Alpha virt. eigenvalues --    0.77523   0.79151   0.79902   0.80671   0.80953
 Alpha virt. eigenvalues --    0.81236   0.83052   0.83533   0.85034   0.85599
 Alpha virt. eigenvalues --    0.87244   0.87597   0.89114   0.89887   0.92260
 Alpha virt. eigenvalues --    0.92695   0.93972   0.94460   0.95147   0.97191
 Alpha virt. eigenvalues --    0.97512   0.98362   1.00065   1.00970   1.01306
 Alpha virt. eigenvalues --    1.03138   1.03511   1.04089   1.06717   1.07412
 Alpha virt. eigenvalues --    1.11092   1.12042   1.13787   1.16176   1.17925
 Alpha virt. eigenvalues --    1.21467   1.24933   1.26263   1.27896   1.30926
 Alpha virt. eigenvalues --    1.33430   1.35374   1.37951   1.39023   1.42084
 Alpha virt. eigenvalues --    1.45177   1.45907   1.47910   1.50358   1.52462
 Alpha virt. eigenvalues --    1.53646   1.54087   1.55554   1.58014   1.58372
 Alpha virt. eigenvalues --    1.60639   1.62046   1.63143   1.64901   1.66385
 Alpha virt. eigenvalues --    1.67232   1.68426   1.69793   1.70081   1.71186
 Alpha virt. eigenvalues --    1.73830   1.74236   1.76238   1.77978   1.78849
 Alpha virt. eigenvalues --    1.79925   1.81767   1.82111   1.84700   1.84865
 Alpha virt. eigenvalues --    1.87728   1.88535   1.90020   1.91287   1.91832
 Alpha virt. eigenvalues --    1.94263   1.95802   1.97419   1.98243   1.99843
 Alpha virt. eigenvalues --    2.01813   2.02220   2.03365   2.05846   2.05964
 Alpha virt. eigenvalues --    2.09186   2.09675   2.10820   2.11743   2.12907
 Alpha virt. eigenvalues --    2.14502   2.17562   2.24710   2.28855   2.33916
 Alpha virt. eigenvalues --    2.34851   2.36210   2.36844   2.45228   2.47924
 Alpha virt. eigenvalues --    2.49339   2.52527   2.55656   2.57829   2.65078
 Alpha virt. eigenvalues --    2.67526   2.68620   2.69728   2.71064   2.72002
 Alpha virt. eigenvalues --    2.74004   2.74958   2.76296   2.76641   2.79798
 Alpha virt. eigenvalues --    2.83596   2.86589   2.88731   2.90760   2.93037
 Alpha virt. eigenvalues --    2.94334   2.98136   2.98413   3.01395   3.02979
 Alpha virt. eigenvalues --    3.03666   3.05938   3.07717   3.13062   3.20404
 Alpha virt. eigenvalues --    3.23133   3.23844   3.26092   3.32716   3.36609
 Alpha virt. eigenvalues --    3.39664   3.46143   3.55332   3.63257   3.72299
 Alpha virt. eigenvalues --    3.90599   3.94427   4.00993   4.04576   4.12738
 Alpha virt. eigenvalues --    4.30301   4.41609   5.02570   5.19893   5.44336
 Alpha virt. eigenvalues --    7.93396   7.94968   7.97156  17.28694  17.29018
 Alpha virt. eigenvalues --   17.31568  17.42739  17.43789  17.46550  17.47745
 Alpha virt. eigenvalues --   17.49052  17.51675  23.44768  23.58566  23.71833
 Alpha virt. eigenvalues --   23.77155  23.79691  23.85329  23.86663  23.94157
 Alpha virt. eigenvalues --   23.95323  23.96380  49.86219 189.09489 189.11150
 Alpha virt. eigenvalues --  189.13853
          Condensed to atoms (all electrons):
               1          2          3          4          5          6
     1  C    6.921747  -1.652719   0.336235  -0.224177   0.420166   0.378223
     2  C   -1.652719  11.608661  -2.648294   1.068375  -0.066975  -1.216218
     3  C    0.336235  -2.648294   9.089663  -0.763581   0.014448   0.078836
     4  C   -0.224177   1.068375  -0.763581   5.840877  -0.013559  -0.075552
     5  H    0.420166  -0.066975   0.014448  -0.013559   0.518186   0.003312
     6  S    0.378223  -1.216218   0.078836  -0.075552   0.003312  16.801003
     7  H    0.019986  -0.045125   0.019900   0.369564  -0.004408  -0.008062
     8  C    0.032104  -0.856785   0.800435  -0.104965  -0.007215  -0.201381
     9  S   -0.123276   0.377194   0.291049   0.074910  -0.000402  -0.094637
    10  C    0.073753  -0.386583  -0.743354  -0.038787  -0.000198   0.213880
    11  C   -0.095831   0.564699   0.611967   0.075617   0.000162  -0.300692
    12  C    0.278965  -1.050799  -1.009212  -0.126627   0.000258   0.487089
    13  H    0.002027   0.001675   0.022016  -0.000265   0.000001  -0.000983
    14  S    0.002770  -0.003870  -0.021828   0.000578  -0.000006  -0.007189
    15  C    0.000468  -0.002216  -0.028576  -0.000888   0.000001  -0.000319
    16  C    0.010896  -0.181560  -0.020924  -0.005432  -0.000019   0.076832
    17  H   -0.000001   0.000038   0.000190   0.000001  -0.000000  -0.000020
    18  H    0.000007   0.000183  -0.000348  -0.000007   0.000000  -0.000271
    19  O   -0.174776   0.562076  -0.214473   0.024187  -0.003430   0.014771
    20  H   -0.042296  -0.037759   0.053749   0.000375   0.000089  -0.010466
               7          8          9         10         11         12
     1  C    0.019986   0.032104  -0.123276   0.073753  -0.095831   0.278965
     2  C   -0.045125  -0.856785   0.377194  -0.386583   0.564699  -1.050799
     3  C    0.019900   0.800435   0.291049  -0.743354   0.611967  -1.009212
     4  C    0.369564  -0.104965   0.074910  -0.038787   0.075617  -0.126627
     5  H   -0.004408  -0.007215  -0.000402  -0.000198   0.000162   0.000258
     6  S   -0.008062  -0.201381  -0.094637   0.213880  -0.300692   0.487089
     7  H    0.478591   0.000241  -0.000387   0.000193  -0.000234  -0.000267
     8  C    0.000241   8.538812   0.223785  -1.258022   1.077475  -2.291061
     9  S   -0.000387   0.223785  17.904014  -1.853667   2.308069  -2.824035
    10  C    0.000193  -1.258022  -1.853667  14.897373  -6.733839   3.525026
    11  C   -0.000234   1.077475   2.308069  -6.733839  17.027021  -6.792798
    12  C   -0.000267  -2.291061  -2.824035   3.525026  -6.792798  14.883696
    13  H   -0.000001   0.072304   0.011336  -0.046577   0.057032   0.226696
    14  S    0.000007  -0.202765   0.262669   0.254715  -0.679826  -0.040523
    15  C   -0.000002   0.053201  -0.017699   0.550752  -0.393856  -0.192520
    16  C    0.000023  -0.250954  -0.264194  -2.871302  -0.830521   1.208736
    17  H    0.000000  -0.002240   0.001554  -0.001024   0.006083   0.006901
    18  H    0.000000   0.006544   0.017328   0.027642  -0.025591  -0.012287
    19  O   -0.000198  -0.069447  -0.015490   0.009949   0.011456   0.036536
    20  H   -0.000014   0.016255   0.008754  -0.002739   0.004212  -0.006844
              13         14         15         16         17         18
     1  C    0.002027   0.002770   0.000468   0.010896  -0.000001   0.000007
     2  C    0.001675  -0.003870  -0.002216  -0.181560   0.000038   0.000183
     3  C    0.022016  -0.021828  -0.028576  -0.020924   0.000190  -0.000348
     4  C   -0.000265   0.000578  -0.000888  -0.005432   0.000001  -0.000007
     5  H    0.000001  -0.000006   0.000001  -0.000019  -0.000000   0.000000
     6  S   -0.000983  -0.007189  -0.000319   0.076832  -0.000020  -0.000271
     7  H   -0.000001   0.000007  -0.000002   0.000023   0.000000   0.000000
     8  C    0.072304  -0.202765   0.053201  -0.250954  -0.002240   0.006544
     9  S    0.011336   0.262669  -0.017699  -0.264194   0.001554   0.017328
    10  C   -0.046577   0.254715   0.550752  -2.871302  -0.001024   0.027642
    11  C    0.057032  -0.679826  -0.393856  -0.830521   0.006083  -0.025591
    12  C    0.226696  -0.040523  -0.192520   1.208736   0.006901  -0.012287
    13  H    0.517295   0.008661   0.000541  -0.012720  -0.000002   0.000015
    14  S    0.008661  16.600561   0.294959  -0.317620  -0.019286   0.005149
    15  C    0.000541   0.294959   5.548559   0.090766   0.371946   0.013635
    16  C   -0.012720  -0.317620   0.090766   9.321519  -0.010188   0.315113
    17  H   -0.000002  -0.019286   0.371946  -0.010188   0.475168  -0.003587
    18  H    0.000015   0.005149   0.013635   0.315113  -0.003587   0.514884
    19  O   -0.000219   0.000020   0.000115  -0.001423  -0.000000   0.000001
    20  H   -0.000008   0.000066  -0.000009   0.000074  -0.000000   0.000000
              19         20
     1  C   -0.174776  -0.042296
     2  C    0.562076  -0.037759
     3  C   -0.214473   0.053749
     4  C    0.024187   0.000375
     5  H   -0.003430   0.000089
     6  S    0.014771  -0.010466
     7  H   -0.000198  -0.000014
     8  C   -0.069447   0.016255
     9  S   -0.015490   0.008754
    10  C    0.009949  -0.002739
    11  C    0.011456   0.004212
    12  C    0.036536  -0.006844
    13  H   -0.000219  -0.000008
    14  S    0.000020   0.000066
    15  C    0.000115  -0.000009
    16  C   -0.001423   0.000074
    17  H   -0.000000  -0.000000
    18  H    0.000001   0.000000
    19  O    8.014215   0.201945
    20  H    0.201945   0.519728
 Mulliken charges:
               1
     1  C   -0.164273
     2  C   -0.033997
     3  C    0.132101
     4  C   -0.100642
     5  H    0.139591
     6  S   -0.138156
     7  H    0.170194
     8  C    0.423679
     9  S   -0.286874
    10  C    0.382807
    11  C    0.109396
    12  C   -0.306931
    13  H    0.141177
    14  S   -0.137242
    15  C   -0.288859
    16  C   -0.257104
    17  H    0.174465
    18  H    0.141591
    19  O   -0.395813
    20  H    0.294888
 Sum of Mulliken charges =  -0.00000
 Mulliken charges with hydrogens summed into heavy atoms:
               1
     1  C   -0.024682
     2  C   -0.033997
     3  C    0.132101
     4  C    0.069552
     6  S   -0.138156
     8  C    0.423679
     9  S   -0.286874
    10  C    0.382807
    11  C    0.109396
    12  C   -0.165754
    14  S   -0.137242
    15  C   -0.114393
    16  C   -0.115512
    19  O   -0.100925
 Electronic spatial extent (au):  <R**2>=           4403.4136
 Charge=              0.0000 electrons
 Dipole moment (field-independent basis, Debye):
    X=             -1.9309    Y=             -0.6135    Z=              0.1183  Tot=              2.0294
 Quadrupole moment (field-independent basis, Debye-Ang):
   XX=            -80.8482   YY=            -99.5968   ZZ=           -101.2239
   XY=             -5.6819   XZ=              7.4414   YZ=             -1.8078
 Traceless Quadrupole moment (field-independent basis, Debye-Ang):
   XX=             13.0414   YY=             -5.7072   ZZ=             -7.3343
   XY=             -5.6819   XZ=              7.4414   YZ=             -1.8078
 Octapole moment (field-independent basis, Debye-Ang**2):
  XXX=            -66.2758  YYY=             21.8190  ZZZ=              0.1670  XYY=            -37.2486
  XXY=              1.7944  XXZ=              6.4063  XZZ=              2.2707  YZZ=              7.3319
  YYZ=            -11.9424  XYZ=             25.9294
 Hexadecapole moment (field-independent basis, Debye-Ang**3):
 XXXX=          -4168.8973 YYYY=           -675.6539 ZZZZ=           -575.5190 XXXY=           -154.0327
 XXXZ=            155.9968 YYYX=           -108.3773 YYYZ=            -66.9365 ZZZX=             35.1536
 ZZZY=             -1.1200 XXYY=           -819.3135 XXZZ=           -887.0435 YYZZ=           -195.1824
 XXYZ=            -82.0517 YYXZ=             40.9196 ZZXY=            -27.4113
 N-N= 1.100394972891D+03 E-N=-6.111227200399D+03  KE= 1.649475307358D+03
 Calling FoFJK, ICntrl=      2127 FMM=F ISym2X=0 I1Cent= 0 IOpClX= 0 NMat=1 NMatS=1 NMatT=0.
 ***** Axes restored to original set *****
 -------------------------------------------------------------------
 Center     Atomic                   Forces (Hartrees/Bohr)
 Number     Number              X              Y              Z
 -------------------------------------------------------------------
      1        6           0.015529058   -0.039352176    0.004653913
      2        6           0.027956665    0.020498036    0.013968481
      3        6          -0.037235934    0.029770497   -0.000498696
      4        6           0.011914698    0.051137915   -0.015596033
      5        1          -0.000594565    0.001703290    0.000554773
      6       16          -0.005708508    0.024511560   -0.005199220
      7        1           0.002511662   -0.002950940   -0.000153963
      8        6           0.033188593   -0.007724118   -0.050794713
      9       16          -0.011184874    0.008322264   -0.009008525
     10        6           0.000347820   -0.023921789   -0.023756275
     11        6          -0.020076345    0.000377418    0.035355995
     12        6          -0.009486935    0.014596353    0.053997991
     13        1          -0.005259334    0.004965708   -0.000707272
     14       16           0.016972407    0.004858094    0.007401369
     15        6          -0.025296181    0.025909795    0.046559582
     16        6           0.010807767   -0.031726846   -0.044927495
     17        1           0.001329026    0.003595080   -0.006134073
     18        1           0.003769169    0.006330162   -0.005791785
     19        8          -0.031035697    0.015127800   -0.003796263
     20        1           0.021551509   -0.106028102    0.003872210
 -------------------------------------------------------------------
 Cartesian Forces:  Max     0.106028102 RMS     0.025591146

 GradGradGradGradGradGradGradGradGradGradGradGradGradGradGradGradGradGrad
 Berny optimization.
 FormGI is forming the generalized inverse of G from B-inverse, IUseBI=4.
 Internal  Forces:  Max     0.104434265 RMS     0.019881867
 Search for a local minimum.
 Step number   1 out of a maximum of  116
 All quantities printed in internal units (Hartrees-Bohrs-Radians)
 Mixed Optimization -- RFO/linear search
 Second derivative matrix not updated -- first step.
 ITU=  0
     Eigenvalues ---    0.00230   0.00994   0.01053   0.01220   0.01274
     Eigenvalues ---    0.01299   0.01362   0.01426   0.01458   0.01491
     Eigenvalues ---    0.01500   0.01592   0.01600   0.01776   0.02202
     Eigenvalues ---    0.02654   0.15081   0.15688   0.15736   0.15997
     Eigenvalues ---    0.16000   0.16000   0.17993   0.22443   0.22526
     Eigenvalues ---    0.23317   0.23980   0.24118   0.24633   0.24978
     Eigenvalues ---    0.24995   0.26145   0.26562   0.28307   0.28374
     Eigenvalues ---    0.28663   0.30910   0.31288   0.31450   0.34814
     Eigenvalues ---    0.35125   0.35872   0.35949   0.36006   0.36133
     Eigenvalues ---    0.36185   0.36342   0.37598   0.38350   0.38435
     Eigenvalues ---    0.39456   0.39705   0.406961000.000001000.00000
     Eigenvalues --- 1000.000001000.000001000.000001000.000001000.00000
     Eigenvalues --- 1000.000001000.000001000.000001000.000001000.00000
     Eigenvalues --- 1000.000001000.000001000.000001000.000001000.00000
     Eigenvalues --- 1000.000001000.000001000.000001000.000001000.00000
     Eigenvalues --- 1000.000001000.000001000.000001000.000001000.00000
     Eigenvalues --- 1000.000001000.000001000.000001000.000001000.00000
     Eigenvalues --- 1000.000001000.000001000.000001000.000001000.00000
     Eigenvalues --- 1000.000001000.000001000.000001000.000001000.00000
     Eigenvalues --- 1000.000001000.000001000.000001000.000001000.00000
     Eigenvalues --- 1000.000001000.000001000.000001000.000001000.00000
     Eigenvalues --- 1000.00000
 RFO step:  Lambda=-1.06959639D-01 EMin= 2.30000000D-03
 Linear search not attempted -- first point.
 Maximum step size (   0.300) exceeded in Quadratic search.
    -- Step size scaled by   0.583
 Iteration  1 RMS(Cart)=  0.06480887 RMS(Int)=  0.00171558
 Iteration  2 RMS(Cart)=  0.00189500 RMS(Int)=  0.00013434
 Iteration  3 RMS(Cart)=  0.00001153 RMS(Int)=  0.00013409
 Iteration  4 RMS(Cart)=  0.00000000 RMS(Int)=  0.00013409
 Iteration  1 RMS(Cart)=  0.00000152 RMS(Int)=  0.00000062
 Iteration  2 RMS(Cart)=  0.00000083 RMS(Int)=  0.00000069
 Variable       Old X    -DE/DX   Delta X   Delta X   Delta X     New X
                                 (Linear)    (Quad)   (Total)
    R1        2.71917  -0.02231   0.00000  -0.02713  -0.02703   2.69214
    R2        2.71391  -0.05444   0.00000  -0.06292  -0.06290   2.65101
    R3        2.03793   0.00155   0.00000   0.00192   0.00192   2.03985
    R4        2.75906  -0.06504   0.00000  -0.08023  -0.08017   2.67890
    R5        2.90711  -0.08836   0.00000  -0.13093  -0.13093   2.77618
    R6        3.39578  -0.02191   0.00000  -0.03322  -0.03328   3.36250
    R7        2.74954  -0.00557   0.00000  -0.00673  -0.00673   2.74281
    R8        3.28671  -0.01313   0.00000  -0.01693  -0.01702   3.26969
    R9        2.04073  -0.00074   0.00000  -0.00093  -0.00093   2.03980
   R10        3.38287  -0.01089   0.00000  -0.01541  -0.01553   3.36734
   R11        2.76805  -0.06453   0.00000  -0.08027  -0.08034   2.68771
   R12        3.27201  -0.00196   0.00000  -0.00176  -0.00174   3.27027
   R13        2.72161  -0.03065   0.00000  -0.03657  -0.03632   2.68529
   R14        2.69392  -0.00148   0.00000  -0.00280  -0.00269   2.69123
   R15        2.70718  -0.01214   0.00000  -0.01508  -0.01501   2.69217
   R16        3.27429   0.00196   0.00000   0.00380   0.00378   3.27807
   R17        2.03875   0.00157   0.00000   0.00196   0.00196   2.04071
   R18        3.33603  -0.01224   0.00000  -0.01703  -0.01716   3.31886
   R19        2.72959  -0.05779   0.00000  -0.06845  -0.06849   2.66110
   R20        2.04162  -0.00081   0.00000  -0.00101  -0.00101   2.04061
   R21        2.05472  -0.00430   0.00000  -0.00547  -0.00547   2.04925
   R22        2.18171  -0.10443   0.00000  -0.15616  -0.15616   2.02555
    A1        1.97020  -0.00310   0.00000  -0.00848  -0.00835   1.96185
    A2        2.17330   0.00073   0.00000   0.00245   0.00238   2.17568
    A3        2.13967   0.00238   0.00000   0.00605   0.00598   2.14565
    A4        1.97187   0.01599   0.00000   0.02426   0.02439   1.99627
    A5        2.21760  -0.00440   0.00000  -0.00487  -0.00500   2.21259
    A6        2.06941  -0.01073   0.00000  -0.01546  -0.01562   2.05379
    A7        1.90440  -0.00640   0.00000  -0.01029  -0.01026   1.89413
    A8        2.31891  -0.00453   0.00000  -0.00751  -0.00752   2.31139
    A9        2.05972   0.01092   0.00000   0.01774   0.01773   2.07745
   A10        1.95339  -0.00182   0.00000  -0.00271  -0.00275   1.95064
   A11        2.17580   0.00479   0.00000   0.00982   0.00985   2.18565
   A12        2.15384  -0.00297   0.00000  -0.00714  -0.00711   2.14673
   A13        1.62490  -0.00467   0.00000  -0.00277  -0.00301   1.62188
   A14        2.12859  -0.00319   0.00000  -0.00485  -0.00486   2.12373
   A15        2.24053  -0.00377   0.00000  -0.00582  -0.00582   2.23471
   A16        1.91337   0.00703   0.00000   0.01093   0.01091   1.92428
   A17        1.61874  -0.00616   0.00000  -0.00756  -0.00748   1.61126
   A18        1.96128  -0.01089   0.00000  -0.01524  -0.01548   1.94580
   A19        2.23850   0.00911   0.00000   0.02182   0.02144   2.25994
   A20        1.96612   0.00558   0.00000   0.00902   0.00908   1.97520
   A21        1.96699   0.00742   0.00000   0.01124   0.01128   1.97826
   A22        1.96598  -0.01320   0.00000  -0.01885  -0.01900   1.94699
   A23        2.23661   0.00927   0.00000   0.02156   0.02120   2.25781
   A24        1.96366   0.00264   0.00000   0.00079   0.00091   1.96457
   A25        2.16076  -0.00556   0.00000  -0.00894  -0.00908   2.15168
   A26        2.14708   0.00349   0.00000   0.01086   0.01072   2.15780
   A27        1.59317   0.00045   0.00000   0.00233   0.00236   1.59553
   A28        1.95959   0.00173   0.00000   0.00166   0.00159   1.96119
   A29        2.13554  -0.00473   0.00000  -0.00816  -0.00832   2.12722
   A30        2.17072   0.00405   0.00000   0.01129   0.01118   2.18189
   A31        1.93959   0.00545   0.00000   0.00582   0.00595   1.94554
   A32        2.16555   0.00001   0.00000   0.00533   0.00504   2.17059
   A33        2.14146  -0.00360   0.00000  -0.00278  -0.00308   2.13838
   A34        2.32184  -0.06218   0.00000  -0.13584  -0.13584   2.18600
    D1        0.00683  -0.00060   0.00000  -0.00269  -0.00268   0.00416
    D2       -2.89394  -0.00372   0.00000  -0.02031  -0.02039  -2.91433
    D3       -3.13952   0.00047   0.00000   0.00281   0.00282  -3.13669
    D4        0.24290  -0.00265   0.00000  -0.01480  -0.01489   0.22800
    D5       -0.00671   0.00051   0.00000   0.00161   0.00156  -0.00516
    D6       -3.13020   0.00060   0.00000   0.00286   0.00285  -3.12735
    D7        3.13954  -0.00053   0.00000  -0.00376  -0.00383   3.13571
    D8        0.01605  -0.00044   0.00000  -0.00252  -0.00253   0.01352
    D9       -0.00388   0.00052   0.00000   0.00265   0.00263  -0.00126
   D10        3.11762   0.00030   0.00000  -0.00051  -0.00049   3.11713
   D11        2.91927   0.00390   0.00000   0.01962   0.01959   2.93885
   D12       -0.24242   0.00369   0.00000   0.01646   0.01647  -0.22595
   D13       -0.28016   0.00199   0.00000   0.00480   0.00468  -0.27547
   D14        3.11413  -0.00456   0.00000  -0.01855  -0.01844   3.09569
   D15        0.00006  -0.00021   0.00000  -0.00152  -0.00149  -0.00143
   D16       -3.12486   0.00013   0.00000   0.00138   0.00142  -3.12344
   D17        1.57072  -0.00099   0.00000   0.00000  -0.00000   1.57072
   D18       -1.61523   0.00126   0.00000   0.00843   0.00844  -1.60679
   D19       -1.59238  -0.00139   0.00000  -0.00366  -0.00367  -1.59604
   D20        1.50486   0.00085   0.00000   0.00476   0.00477   1.50963
   D21        0.00376  -0.00013   0.00000   0.00004   0.00004   0.00380
   D22        3.12751  -0.00012   0.00000  -0.00098  -0.00101   3.12650
   D23        3.13736   0.00058   0.00000   0.00215   0.00215   3.13951
   D24        0.03269  -0.00109   0.00000  -0.00455  -0.00462   0.02807
   D25       -3.13917  -0.00141   0.00000  -0.00478  -0.00472   3.13929
   D26       -0.15724   0.00289   0.00000   0.01466   0.01462  -0.14262
   D27       -0.03753   0.00043   0.00000   0.00253   0.00265  -0.03488
   D28        2.94440   0.00474   0.00000   0.02197   0.02200   2.96640
   D29       -0.02017   0.00187   0.00000   0.00605   0.00599  -0.01418
   D30       -2.61634  -0.00692   0.00000  -0.02823  -0.02831  -2.64465
   D31        0.00168  -0.00155   0.00000  -0.00515  -0.00509  -0.00341
   D32       -2.68883  -0.01066   0.00000  -0.03698  -0.03649  -2.72531
   D33        2.68610   0.00796   0.00000   0.02925   0.02892   2.71502
   D34       -0.00440  -0.00114   0.00000  -0.00257  -0.00248  -0.00688
   D35        2.61428   0.00568   0.00000   0.03051   0.03087   2.64515
   D36       -0.24577  -0.00079   0.00000  -0.00044  -0.00026  -0.24603
   D37        0.01933   0.00101   0.00000   0.00224   0.00218   0.02150
   D38       -2.84072  -0.00546   0.00000  -0.02870  -0.02896  -2.86968
   D39        0.02372   0.00077   0.00000   0.00162   0.00155   0.02527
   D40       -2.95966  -0.00254   0.00000  -0.01556  -0.01578  -2.97544
   D41        2.62824   0.00435   0.00000   0.02597   0.02632   2.65456
   D42       -0.35514   0.00103   0.00000   0.00880   0.00899  -0.34615
   D43       -0.00897   0.00100   0.00000   0.00198   0.00193  -0.00704
   D44       -2.61375  -0.00770   0.00000  -0.02984  -0.02979  -2.64354
   D45        0.02006  -0.00031   0.00000  -0.00056  -0.00058   0.01948
   D46        2.97062   0.00591   0.00000   0.02692   0.02673   2.99735
   D47       -0.02598  -0.00024   0.00000  -0.00071  -0.00064  -0.02662
   D48        2.83862   0.00678   0.00000   0.03124   0.03132   2.86994
   D49       -2.97200  -0.00547   0.00000  -0.02631  -0.02641  -2.99841
   D50       -0.10740   0.00154   0.00000   0.00564   0.00555  -0.10185
         Item               Value     Threshold  Converged?
 Maximum Force            0.104434     0.000450     NO 
 RMS     Force            0.019976     0.000300     NO 
 Maximum Displacement     0.452266     0.001800     NO 
 RMS     Displacement     0.064911     0.001200     NO 
 Predicted change in Energy=-4.962632D-02
 GradGradGradGradGradGradGradGradGradGradGradGradGradGradGradGradGradGrad

                          Input orientation:                          
 ---------------------------------------------------------------------
 Center     Atomic      Atomic             Coordinates (Angstroms)
 Number     Number       Type             X           Y           Z
 ---------------------------------------------------------------------
      1          6           0       -4.211892   -1.331415   -0.220929
      2          6           0       -2.887367   -0.976116   -0.606859
      3          6           0       -1.969984   -2.056851   -0.613227
      4          6           0       -4.332778   -2.695850    0.081890
      5          1           0       -5.040350   -0.641816   -0.163411
      6         16           0       -2.831035   -3.532275   -0.115389
      7          1           0       -5.244585   -3.188156    0.384181
      8          6           0       -0.563110   -2.145168   -0.958996
      9         16           0        0.716576   -1.894206    0.255358
     10          6           0        1.969991   -2.161801   -0.907466
     11          6           0        1.435280   -2.455230   -2.190902
     12          6           0        0.010982   -2.465112   -2.220315
     13          1           0       -0.567453   -2.811040   -3.064071
     14         16           0        2.561972   -3.348016   -3.161784
     15          6           0        3.755585   -3.326900   -1.873640
     16          6           0        3.286361   -2.671511   -0.718956
     17          1           0        4.668620   -3.900441   -1.932681
     18          1           0        3.772296   -2.770131    0.245459
     19          8           0       -2.342200    0.382363   -0.731571
     20          1           0       -2.924908    1.280671   -0.780691
 ---------------------------------------------------------------------
                    Distance matrix (angstroms):
                    1          2          3          4          5
     1  C    0.000000
     2  C    1.424621   0.000000
     3  C    2.388788   1.417611   0.000000
     4  C    1.402853   2.349696   2.544465   0.000000
     5  H    1.079443   2.223452   3.410544   2.186295   0.000000
     6  S    2.600325   2.603587   1.779361   1.730248   3.638424
     7  H    2.209095   3.381089   3.605231   1.079416   2.612550
     8  C    3.810583   2.625425   1.451430   3.949315   4.789436
     9  S    4.983310   3.817685   2.828161   5.115535   5.906441
    10  C    6.275074   5.009006   3.952340   6.402259   7.211717
    11  C    6.085582   4.835520   3.774068   6.204351   7.023744
    12  C    4.807856   3.636039   2.583338   4.921548   5.750758
    13  H    4.853317   3.845366   2.922760   4.907953   5.755534
    14  S    7.655099   6.469068   5.357319   7.647503   8.608662
    15  C    8.378192   7.159591   5.998650   8.345294   9.354306
    16  C    7.633327   6.403269   5.293217   7.661150   8.588505
    17  H    9.401781   8.209899   7.015045   9.302403  10.392933
    18  H    8.126173   6.949536   5.849777   8.107064   9.075221
    19  O    2.587187   1.469090   2.470287   3.754932   2.941388
    20  H    2.965241   2.263783   3.475482   4.305678   2.924395
                    6          7          8          9         10
     6  S    0.000000
     7  H    2.488617   0.000000
     8  C    2.789125   4.980779   0.000000
     9  S    3.925081   6.101340   1.781918   0.000000
    10  C    5.055238   7.400802   2.533680   1.730553   0.000000
    11  C    4.865102   7.196446   2.367973   2.610646   1.420994
    12  C    3.694131   5.909922   1.422277   2.636806   2.377664
    13  H    3.786648   5.823077   2.207883   3.675312   3.392798
    14  S    6.196692   8.575649   4.008148   4.146794   2.615243
    15  C    6.820350   9.280090   4.569923   3.977539   2.340789
    16  C    6.207072   8.617475   3.892696   2.856096   1.424139
    17  H    7.725472  10.205236   5.603575   4.942787   3.369946
    18  H    6.656955   9.027632   4.542801   3.178800   2.224322
    19  O    3.992872   4.734696   3.099242   3.938643   5.009861
    20  H    4.859618   5.168002   4.164884   4.941017   5.985543
                   11         12         13         14         15
    11  C    0.000000
    12  C    1.424636   0.000000
    13  H    2.213586   1.079897   0.000000
    14  S    1.734679   2.858921   3.176663   0.000000
    15  C    2.498856   3.858097   4.513523   1.756266   0.000000
    16  C    2.374849   3.608987   4.513415   2.636248   1.408191
    17  H    3.551029   4.882264   5.466562   2.500767   1.079847
    18  H    3.390673   4.507833   5.457846   3.661713   2.191085
    19  O    4.944789   3.982705   4.334525   6.623637   7.228135
    20  H    5.912435   4.972208   5.245333   7.563081   8.188604
                   16         17         18         19         20
    16  C    0.000000
    17  H    2.212248   0.000000
    18  H    1.084415   2.612526   0.000000
    19  O    6.403672   8.302812   6.948372   0.000000
    20  H    7.362297   9.264593   7.893955   1.071876   0.000000
 Stoichiometry    C10H6OS3
 Framework group  C1[X(C10H6OS3)]
 Deg. of freedom    54
 Full point group                 C1      NOp   1
 Largest Abelian subgroup         C1      NOp   1
 Largest concise Abelian subgroup C1      NOp   1
                         Standard orientation:                         
 ---------------------------------------------------------------------
 Center     Atomic      Atomic             Coordinates (Angstroms)
 Number     Number       Type             X           Y           Z
 ---------------------------------------------------------------------
      1          6           0       -4.072969    0.160112   -0.414952
      2          6           0       -2.773817    0.700652   -0.637585
      3          6           0       -1.718960   -0.060330   -0.073842
      4          6           0       -4.037408   -1.027280    0.331260
      5          1           0       -4.990882    0.600864   -0.773240
      6         16           0       -2.418693   -1.475922    0.746279
      7          1           0       -4.899538   -1.615112    0.607528
      8          6           0       -0.277217    0.106811   -0.083332
      9         16           0        0.565491    1.036248    1.182062
     10          6           0        2.112641    0.747137    0.462648
     11          6           0        2.001888   -0.054528   -0.705381
     12          6           0        0.661518   -0.432334   -1.005812
     13          1           0        0.399640   -1.156924   -1.762494
     14         16           0        3.483374   -0.889238   -1.048266
     15          6           0        4.263647   -0.169357    0.350810
     16          6           0        3.396079    0.670709    1.075115
     17          1           0        5.242416   -0.482842    0.682180
     18          1           0        3.613267    1.001839    2.084639
     19          8           0       -2.454266    2.044903   -1.136687
     20          1           0       -3.145946    2.705976   -1.619882
 ---------------------------------------------------------------------
 Rotational constants (GHZ):           1.2119020           0.2601196           0.2512188
 Standard basis: 6-311+G(d,p) (5D, 7F)
 There are   382 symmetry adapted cartesian basis functions of A   symmetry.
 There are   368 symmetry adapted basis functions of A   symmetry.
   368 basis functions,   594 primitive gaussians,   382 cartesian basis functions
    61 alpha electrons       61 beta electrons
       nuclear repulsion energy      1112.3124113425 Hartrees.
 NAtoms=   20 NActive=   20 NUniq=   20 SFac= 1.00D+00 NAtFMM=   60 NAOKFM=F Big=F
 Integral buffers will be    131072 words long.
 Raffenetti 2 integral format.
 Two-electron integral symmetry is turned on.
 One-electron integrals computed using PRISM.
 NBasis=   368 RedAO= T EigKep=  3.01D-06  NBF=   368
 NBsUse=   367 1.00D-06 EigRej=  4.72D-07 NBFU=   367
 Initial guess from the checkpoint file:  "/tmp/pbs.4729018[265].pbs/Gau-2533138.chk"
 B after Tr=    -0.000000    0.000000   -0.000000
         Rot=    0.999660    0.025865    0.000777    0.003282 Ang=   2.99 deg.
 ExpMin= 4.05D-02 ExpMax= 9.34D+04 ExpMxC= 3.17D+03 IAcc=3 IRadAn=         5 AccDes= 0.00D+00
 Harris functional with IExCor=  402 and IRadAn=       5 diagonalized for initial guess.
 HarFok:  IExCor=  402 AccDes= 0.00D+00 IRadAn=         5 IDoV= 1 UseB2=F ITyADJ=14
 ICtDFT=  3500011 ScaDFX=  1.000000  1.000000  1.000000  1.000000
 FoFCou: FMM=F IPFlag=           0 FMFlag=      100000 FMFlg1=           0
         NFxFlg=           0 DoJE=T BraDBF=F KetDBF=T FulRan=T
         wScrn=  0.000000 ICntrl=       500 IOpCl=  0 I1Cent=   200000004 NGrid=           0
         NMat0=    1 NMatS0=      1 NMatT0=    0 NMatD0=    1 NMtDS0=    0 NMtDT0=    0
 Petite list used in FoFCou.
 Requested convergence on RMS density matrix=1.00D-08 within 128 cycles.
 Requested convergence on MAX density matrix=1.00D-06.
 Requested convergence on             energy=1.00D-06.
 No special actions if energy rises.
 SCF Done:  E(RB3LYP) =  -1654.58310741     A.U. after   14 cycles
            NFock= 14  Conv=0.78D-08     -V/T= 2.0027
 Calling FoFJK, ICntrl=      2127 FMM=F ISym2X=0 I1Cent= 0 IOpClX= 0 NMat=1 NMatS=1 NMatT=0.
 ***** Axes restored to original set *****
 -------------------------------------------------------------------
 Center     Atomic                   Forces (Hartrees/Bohr)
 Number     Number              X              Y              Z
 -------------------------------------------------------------------
      1        6           0.004014844   -0.024686164    0.003216243
      2        6           0.029347603    0.031851468    0.009717263
      3        6          -0.028996900    0.013857080   -0.000283970
      4        6           0.006615847    0.030823288   -0.009869316
      5        1          -0.000194055    0.001770916    0.000531609
      6       16          -0.002374137    0.010828336   -0.002906377
      7        1           0.002072088   -0.003167905    0.000074973
      8        6           0.023793301   -0.003258829   -0.032940955
      9       16          -0.008521591    0.008427633   -0.003046175
     10        6          -0.001754076   -0.017852663   -0.015247959
     11        6          -0.009096646   -0.003247086    0.024269685
     12        6          -0.008699745    0.008675745    0.033445106
     13        1          -0.003401635    0.004723363   -0.000873506
     14       16           0.012419203    0.003417066    0.000158484
     15        6          -0.016442268    0.014941816    0.030796368
     16        6           0.007768272   -0.020871576   -0.027083760
     17        1           0.001154040    0.003088886   -0.005458718
     18        1           0.003156692    0.006427601   -0.003330123
     19        8          -0.034309462    0.012168632   -0.005198582
     20        1           0.023448626   -0.077917608    0.004029709
 -------------------------------------------------------------------
 Cartesian Forces:  Max     0.077917608 RMS     0.018332532

 GradGradGradGradGradGradGradGradGradGradGradGradGradGradGradGradGradGrad
 Berny optimization.
 Using GEDIIS/GDIIS optimizer.
 FormGI is forming the generalized inverse of G from B-inverse, IUseBI=4.
 Internal  Forces:  Max     0.078232642 RMS     0.013449571
 Search for a local minimum.
 Step number   2 out of a maximum of  116
 All quantities printed in internal units (Hartrees-Bohrs-Radians)
 Mixed Optimization -- RFO/linear search
 Update second derivatives using D2CorX and points    1    2
 DE= -5.32D-02 DEPred=-4.96D-02 R= 1.07D+00
 TightC=F SS=  1.41D+00  RLast= 3.19D-01 DXNew= 5.0454D-01 9.5632D-01
 Trust test= 1.07D+00 RLast= 3.19D-01 DXMaxT set to 5.05D-01
 ITU=  1  0
 Use linear search instead of GDIIS.
     Eigenvalues ---    0.00230   0.00995   0.01049   0.01218   0.01272
     Eigenvalues ---    0.01295   0.01343   0.01405   0.01460   0.01484
     Eigenvalues ---    0.01498   0.01592   0.01596   0.01743   0.02115
     Eigenvalues ---    0.02491   0.14376   0.15291   0.15764   0.15829
     Eigenvalues ---    0.15999   0.16028   0.18357   0.20982   0.22462
     Eigenvalues ---    0.22539   0.23391   0.24139   0.24335   0.24981
     Eigenvalues ---    0.25010   0.25651   0.26271   0.26614   0.28419
     Eigenvalues ---    0.28542   0.30897   0.31270   0.31425   0.34848
     Eigenvalues ---    0.35130   0.35948   0.36005   0.36085   0.36133
     Eigenvalues ---    0.36184   0.36402   0.37580   0.38204   0.39301
     Eigenvalues ---    0.39571   0.40622   0.424521000.000001000.00000
     Eigenvalues --- 1000.000001000.000001000.000001000.000001000.00000
     Eigenvalues --- 1000.000001000.000001000.000001000.000001000.00000
     Eigenvalues --- 1000.000001000.000001000.000001000.000001000.00000
     Eigenvalues --- 1000.000001000.000001000.000001000.000001000.00000
     Eigenvalues --- 1000.000001000.000001000.000001000.000001000.00000
     Eigenvalues --- 1000.000001000.000001000.000001000.000001000.00000
     Eigenvalues --- 1000.000001000.000001000.000001000.000001000.00000
     Eigenvalues --- 1000.000001000.000001000.000001000.000001000.00000
     Eigenvalues --- 1000.000001000.000001000.000001000.000001000.00000
     Eigenvalues --- 1000.000001000.000001000.000001000.000001000.00000
     Eigenvalues --- 1000.00000
 RFO step:  Lambda=-8.27234139D-03 EMin= 2.30084193D-03
 Quartic linear search produced a step of  1.40227.
 Iteration  1 RMS(Cart)=  0.09697520 RMS(Int)=  0.01532860
 Iteration  2 RMS(Cart)=  0.01817425 RMS(Int)=  0.00092604
 Iteration  3 RMS(Cart)=  0.00026391 RMS(Int)=  0.00089649
 Iteration  4 RMS(Cart)=  0.00000028 RMS(Int)=  0.00089649
 Iteration  1 RMS(Cart)=  0.00002085 RMS(Int)=  0.00000877
 Iteration  2 RMS(Cart)=  0.00001138 RMS(Int)=  0.00000979
 Iteration  3 RMS(Cart)=  0.00000621 RMS(Int)=  0.00001106
 Iteration  4 RMS(Cart)=  0.00000339 RMS(Int)=  0.00001190
 Iteration  5 RMS(Cart)=  0.00000185 RMS(Int)=  0.00001239
 Iteration  6 RMS(Cart)=  0.00000101 RMS(Int)=  0.00001267
 Iteration  7 RMS(Cart)=  0.00000055 RMS(Int)=  0.00001282
 Variable       Old X    -DE/DX   Delta X   Delta X   Delta X     New X
                                 (Linear)    (Quad)   (Total)
    R1        2.69214  -0.00789  -0.03790   0.03625  -0.00130   2.69085
    R2        2.65101  -0.02998  -0.08821   0.02393  -0.06437   2.58664
    R3        2.03985   0.00131   0.00270   0.00215   0.00485   2.04470
    R4        2.67890  -0.03689  -0.11242   0.02558  -0.08645   2.59245
    R5        2.77618  -0.06473  -0.18360  -0.06098  -0.24458   2.53160
    R6        3.36250  -0.01145  -0.04666   0.02405  -0.02270   3.33981
    R7        2.74281  -0.00007  -0.00944   0.02132   0.01189   2.75469
    R8        3.26969  -0.00675  -0.02386   0.01186  -0.01243   3.25726
    R9        2.03980  -0.00028  -0.00130   0.00120  -0.00010   2.03970
   R10        3.36734  -0.00632  -0.02178   0.00803  -0.01459   3.35275
   R11        2.68771  -0.03979  -0.11266   0.00714  -0.10602   2.58170
   R12        3.27027   0.00157  -0.00244   0.01916   0.01691   3.28718
   R13        2.68529  -0.01814  -0.05094   0.00308  -0.04624   2.63905
   R14        2.69123   0.00072  -0.00377   0.00905   0.00576   2.69699
   R15        2.69217  -0.00426  -0.02105   0.01897  -0.00163   2.69055
   R16        3.27807   0.00354   0.00530   0.01513   0.02052   3.29859
   R17        2.04071   0.00099   0.00275  -0.00001   0.00274   2.04345
   R18        3.31886  -0.00691  -0.02407   0.00970  -0.01515   3.30371
   R19        2.66110  -0.03455  -0.09605   0.01135  -0.08510   2.57600
   R20        2.04061  -0.00037  -0.00141   0.00092  -0.00049   2.04013
   R21        2.04925  -0.00213  -0.00767   0.00392  -0.00376   2.04549
   R22        2.02555  -0.07823  -0.21898  -0.08632  -0.30530   1.72025
    A1        1.96185  -0.00122  -0.01171   0.01019  -0.00096   1.96089
    A2        2.17568  -0.00046   0.00334  -0.01212  -0.00908   2.16660
    A3        2.14565   0.00168   0.00839   0.00194   0.01003   2.15568
    A4        1.99627   0.00593   0.03421  -0.03812  -0.00475   1.99151
    A5        2.21259  -0.00384  -0.00702  -0.00482  -0.01440   2.19819
    A6        2.05379  -0.00128  -0.02190   0.05896   0.03483   2.08862
    A7        1.89413  -0.00034  -0.01439   0.03343   0.01965   1.91378
    A8        2.31139  -0.00630  -0.01055  -0.02935  -0.04026   2.27113
    A9        2.07745   0.00664   0.02486  -0.00369   0.02080   2.09825
   A10        1.95064  -0.00006  -0.00386   0.01120   0.00719   1.95782
   A11        2.18565   0.00388   0.01381   0.01073   0.02461   2.21026
   A12        2.14673  -0.00382  -0.00998  -0.02195  -0.03184   2.11489
   A13        1.62188  -0.00430  -0.00423  -0.01675  -0.02146   1.60042
   A14        2.12373  -0.00293  -0.00681  -0.00799  -0.01480   2.10893
   A15        2.23471  -0.00212  -0.00816   0.00311  -0.00505   2.22966
   A16        1.92428   0.00510   0.01530   0.00487   0.02010   1.94438
   A17        1.61126  -0.00427  -0.01049  -0.00681  -0.01667   1.59459
   A18        1.94580  -0.00625  -0.02170   0.00971  -0.01297   1.93283
   A19        2.25994   0.00656   0.03007   0.01256   0.03972   2.29967
   A20        1.97520   0.00283   0.01273  -0.00715   0.00533   1.98053
   A21        1.97826   0.00350   0.01581  -0.00960   0.00580   1.98406
   A22        1.94699  -0.00713  -0.02664   0.01626  -0.01145   1.93554
   A23        2.25781   0.00655   0.02972   0.01286   0.03950   2.29731
   A24        1.96457   0.00195   0.00128   0.00199   0.00404   1.96861
   A25        2.15168  -0.00356  -0.01274   0.00478  -0.00893   2.14275
   A26        2.15780   0.00209   0.01503  -0.00422   0.00985   2.16764
   A27        1.59553  -0.00099   0.00331  -0.01641  -0.01238   1.58315
   A28        1.96119   0.00231   0.00224   0.01460   0.01627   1.97746
   A29        2.12722  -0.00475  -0.01166  -0.01858  -0.03130   2.09593
   A30        2.18189   0.00327   0.01567   0.00830   0.02313   2.20502
   A31        1.94554   0.00298   0.00834  -0.00658   0.00251   1.94805
   A32        2.17059  -0.00025   0.00707  -0.00619  -0.00057   2.17001
   A33        2.13838  -0.00130  -0.00432   0.01515   0.00949   2.14787
   A34        2.18600  -0.04599  -0.19049  -0.03844  -0.22893   1.95707
    D1        0.00416  -0.00018  -0.00375   0.02609   0.02224   0.02640
    D2       -2.91433  -0.00448  -0.02860  -0.06672  -0.09399  -3.00832
    D3       -3.13669   0.00081   0.00396   0.02409   0.02768  -3.10902
    D4        0.22800  -0.00349  -0.02088  -0.06873  -0.08855   0.13945
    D5       -0.00516   0.00016   0.00218  -0.01116  -0.00867  -0.01382
    D6       -3.12735   0.00043   0.00399  -0.00970  -0.00569  -3.13304
    D7        3.13571  -0.00081  -0.00536  -0.00920  -0.01407   3.12164
    D8        0.01352  -0.00054  -0.00355  -0.00775  -0.01110   0.00242
    D9       -0.00126   0.00014   0.00368  -0.02817  -0.02474  -0.02600
   D10        3.11713   0.00024  -0.00069  -0.00725  -0.00848   3.10865
   D11        2.93885   0.00356   0.02746   0.04833   0.07719   3.01605
   D12       -0.22595   0.00366   0.02309   0.06926   0.09346  -0.13249
   D13       -0.27547   0.00163   0.00657   0.08708   0.09391  -0.18156
   D14        3.09569  -0.00359  -0.02585   0.00274  -0.02337   3.07233
   D15       -0.00143  -0.00003  -0.00209   0.01825   0.01662   0.01519
   D16       -3.12344   0.00007   0.00199   0.00107   0.00318  -3.12026
   D17        1.57072  -0.00100  -0.00000   0.00000   0.00000   1.57072
   D18       -1.60679   0.00104   0.01183  -0.00004   0.01194  -1.59485
   D19       -1.59604  -0.00099  -0.00514   0.02303   0.01760  -1.57844
   D20        1.50963   0.00105   0.00669   0.02299   0.02954   1.53917
   D21        0.00380  -0.00006   0.00006  -0.00432  -0.00442  -0.00062
   D22        3.12650  -0.00022  -0.00142  -0.00533  -0.00651   3.11999
   D23        3.13951   0.00057   0.00301  -0.00081   0.00212  -3.14156
   D24        0.02807  -0.00103  -0.00648  -0.00080  -0.00767   0.02040
   D25        3.13929  -0.00109  -0.00663   0.00625  -0.00025   3.13905
   D26       -0.14262   0.00276   0.02050   0.02534   0.04565  -0.09696
   D27       -0.03488   0.00065   0.00372   0.00599   0.01022  -0.02466
   D28        2.96640   0.00449   0.03085   0.02508   0.05612   3.02251
   D29       -0.01418   0.00136   0.00840  -0.00471   0.00359  -0.01059
   D30       -2.64465  -0.00603  -0.03970  -0.03770  -0.07816  -2.72281
   D31       -0.00341  -0.00101  -0.00714   0.00925   0.00221  -0.00120
   D32       -2.72531  -0.00848  -0.05116  -0.03237  -0.08077  -2.80608
   D33        2.71502   0.00681   0.04055   0.04178   0.07999   2.79502
   D34       -0.00688  -0.00066  -0.00347   0.00017  -0.00298  -0.00987
   D35        2.64515   0.00582   0.04329   0.01900   0.06381   2.70897
   D36       -0.24603  -0.00018  -0.00037   0.00654   0.00725  -0.23878
   D37        0.02150   0.00040   0.00305  -0.01845  -0.01578   0.00572
   D38       -2.86968  -0.00561  -0.04061  -0.03091  -0.07235  -2.94203
   D39        0.02527   0.00027   0.00217  -0.00999  -0.00817   0.01710
   D40       -2.97544  -0.00306  -0.02212  -0.03000  -0.05307  -3.02850
   D41        2.65456   0.00508   0.03690   0.04014   0.07848   2.73304
   D42       -0.34615   0.00175   0.01261   0.02013   0.03358  -0.31256
   D43       -0.00704   0.00074   0.00271   0.01346   0.01573   0.00869
   D44       -2.64354  -0.00638  -0.04177  -0.02999  -0.07262  -2.71616
   D45        0.01948  -0.00045  -0.00082  -0.02408  -0.02515  -0.00567
   D46        2.99735   0.00515   0.03749   0.00430   0.04022   3.03757
   D47       -0.02662   0.00017  -0.00090   0.02816   0.02773   0.00111
   D48        2.86994   0.00620   0.04392   0.03686   0.08179   2.95173
   D49       -2.99841  -0.00475  -0.03704   0.00168  -0.03639  -3.03481
   D50       -0.10185   0.00129   0.00778   0.01039   0.01767  -0.08418
         Item               Value     Threshold  Converged?
 Maximum Force            0.078233     0.000450     NO 
 RMS     Force            0.013513     0.000300     NO 
 Maximum Displacement     0.750701     0.001800     NO 
 RMS     Displacement     0.105893     0.001200     NO 
 Predicted change in Energy=-4.976841D-02
 GradGradGradGradGradGradGradGradGradGradGradGradGradGradGradGradGradGrad

                          Input orientation:                          
 ---------------------------------------------------------------------
 Center     Atomic      Atomic             Coordinates (Angstroms)
 Number     Number       Type             X           Y           Z
 ---------------------------------------------------------------------
      1          6           0       -4.159150   -1.270842   -0.233484
      2          6           0       -2.811746   -0.979048   -0.589788
      3          6           0       -1.983780   -2.072879   -0.593678
      4          6           0       -4.343410   -2.593544    0.066665
      5          1           0       -4.952965   -0.536064   -0.207046
      6         16           0       -2.891105   -3.506864   -0.099742
      7          1           0       -5.269846   -3.065160    0.357038
      8          6           0       -0.570818   -2.180392   -0.935629
      9         16           0        0.682840   -1.970748    0.302178
     10          6           0        1.941679   -2.237823   -0.868233
     11          6           0        1.398697   -2.486450   -2.130624
     12          6           0       -0.024679   -2.463628   -2.155442
     13          1           0       -0.621896   -2.731739   -3.016112
     14         16           0        2.563987   -3.272053   -3.165919
     15          6           0        3.746602   -3.262605   -1.878399
     16          6           0        3.288287   -2.689764   -0.729482
     17          1           0        4.693390   -3.764527   -2.009460
     18          1           0        3.818018   -2.750012    0.212539
     19          8           0       -2.298659    0.241726   -0.792656
     20          1           0       -2.943446    0.883417   -0.826726
 ---------------------------------------------------------------------
                    Distance matrix (angstroms):
                    1          2          3          4          5
     1  C    0.000000
     2  C    1.423936   0.000000
     3  C    2.346324   1.371864   0.000000
     4  C    1.368789   2.320242   2.504994   0.000000
     5  H    1.082007   2.219807   3.365612   2.163261   0.000000
     6  S    2.574028   2.576101   1.767349   1.723669   3.617794
     7  H    2.191333   3.360148   3.561841   1.079362   2.610542
     8  C    3.767813   2.566046   1.457721   3.925269   4.736862
     9  S    4.921551   3.740481   2.814933   5.070160   5.837801
    10  C    6.209514   4.925149   3.938504   6.364190   7.132269
    11  C    5.997208   4.730145   3.738234   6.149093   6.917209
    12  C    4.712803   3.524627   2.535719   4.858608   5.639127
    13  H    4.731744   3.708695   2.856049   4.834488   5.609813
    14  S    7.602933   6.386927   5.360656   7.656507   8.529076
    15  C    8.317077   7.063079   5.991931   8.347407   9.268760
    16  C    7.597609   6.336913   5.309772   7.673715   8.534026
    17  H    9.366964   8.130279   7.032120   9.345868  10.330723
    18  H    8.125397   6.908966   5.896554   8.164231   9.055814
    19  O    2.462105   1.339665   2.344384   3.599749   2.827232
    20  H    2.543758   1.882089   3.116883   3.853221   2.537144
                    6          7          8          9         10
     6  S    0.000000
     7  H    2.462145   0.000000
     8  C    2.800351   4.953248   0.000000
     9  S    3.910789   6.052703   1.774197   0.000000
    10  C    5.055377   7.361512   2.514057   1.739502   0.000000
    11  C    4.854701   7.140927   2.323935   2.587842   1.396523
    12  C    3.678402   5.846894   1.366174   2.604498   2.361029
    13  H    3.775625   5.752630   2.152905   3.645888   3.380718
    14  S    6.262156   8.592029   3.999115   4.154493   2.595431
    15  C    6.876222   9.291528   4.549738   3.976236   2.308324
    16  C    6.264911   8.634992   3.898031   2.893037   1.427185
    17  H    7.825469  10.264282   5.601293   4.964457   3.347408
    18  H    6.758895   9.094474   4.572159   3.231815   2.225096
    19  O    3.857855   4.591867   2.978679   3.870792   4.912671
    20  H    4.450372   4.733360   3.876616   4.750855   5.797267
                   11         12         13         14         15
    11  C    0.000000
    12  C    1.423775   0.000000
    13  H    2.219697   1.081345   0.000000
    14  S    1.745540   2.894099   3.234847   0.000000
    15  C    2.485697   3.864929   4.545326   1.748249   0.000000
    16  C    2.361161   3.613895   4.529897   2.607661   1.363161
    17  H    3.535981   4.896307   5.507474   2.472708   1.079588
    18  H    3.378312   4.522794   5.489750   3.641304   2.154036
    19  O    4.785765   3.787758   4.073915   6.451693   7.071375
    20  H    5.648926   4.635450   4.822070   7.285024   7.940545
                   16         17         18         19         20
    16  C    0.000000
[...]
                         Standard orientation:                         
 ---------------------------------------------------------------------
 Center     Atomic      Atomic             Coordinates (Angstroms)
 Number     Number       Type             X           Y           Z
 ---------------------------------------------------------------------
      1          6           0       -3.972461    0.699611    0.054769
      2          6           0       -2.590236    1.006061    0.242256
      3          6           0       -1.740760   -0.016321   -0.108364
      4          6           0       -4.162746   -0.560742   -0.433268
      5          1           0       -4.778801    1.389509    0.272745
      6         16           0       -2.671294   -1.393416   -0.676200
      7          1           0       -5.098148   -1.044651   -0.668910
      8          6           0       -0.282678   -0.044308   -0.037048
      9         16           0        0.525710   -0.617239    1.432788
     10          6           0        2.089773   -0.327158    0.728007
     11          6           0        1.961643    0.180204   -0.559144
     12          6           0        0.618720    0.338455   -0.995120
     13          1           0        0.315223    0.719586   -1.960327
     14         16           0        3.529299    0.473481   -1.265210
     15          6           0        4.315888   -0.094026    0.189806
     16          6           0        3.438591   -0.485280    1.159361
     17          1           0        5.394327   -0.101347    0.233677
     18          1           0        3.743448   -0.863565    2.125157
     19          8           0       -2.114839    2.193799    0.716850
     20          1           0       -2.851182    2.765899    0.953279
 ---------------------------------------------------------------------
 Rotational constants (GHZ):           1.2980029           0.2548874           0.2540014

 **********************************************************************

            Population analysis using the SCF Density.

 **********************************************************************

 Orbital symmetries:
       Occupied  (A) (A) (A) (A) (A) (A) (A) (A) (A) (A) (A) (A)
                 (A) (A) (A) (A) (A) (A) (A) (A) (A) (A) (A) (A)
                 (A) (A) (A) (A) (A) (A) (A) (A) (A) (A) (A) (A)
                 (A) (A) (A) (A) (A) (A) (A) (A) (A) (A) (A) (A)
                 (A) (A) (A) (A) (A) (A) (A) (A) (A) (A) (A) (A)
                 (A)
       Virtual   (A) (A) (A) (A) (A) (A) (A) (A) (A) (A) (A) (A)
                 (A) (A) (A) (A) (A) (A) (A) (A) (A) (A) (A) (A)
                 (A) (A) (A) (A) (A) (A) (A) (A) (A) (A) (A) (A)
                 (A) (A) (A) (A) (A) (A) (A) (A) (A) (A) (A) (A)
                 (A) (A) (A) (A) (A) (A) (A) (A) (A) (A) (A) (A)
                 (A) (A) (A) (A) (A) (A) (A) (A) (A) (A) (A) (A)
                 (A) (A) (A) (A) (A) (A) (A) (A) (A) (A) (A) (A)
                 (A) (A) (A) (A) (A) (A) (A) (A) (A) (A) (A) (A)
                 (A) (A) (A) (A) (A) (A) (A) (A) (A) (A) (A) (A)
                 (A) (A) (A) (A) (A) (A) (A) (A) (A) (A) (A) (A)
                 (A) (A) (A) (A) (A) (A) (A) (A) (A) (A) (A) (A)
                 (A) (A) (A) (A) (A) (A) (A) (A) (A) (A) (A) (A)
                 (A) (A) (A) (A) (A) (A) (A) (A) (A) (A) (A) (A)
                 (A) (A) (A) (A) (A) (A) (A) (A) (A) (A) (A) (A)
                 (A) (A) (A) (A) (A) (A) (A) (A) (A) (A) (A) (A)
                 (A) (A) (A) (A) (A) (A) (A) (A) (A) (A) (A) (A)
                 (A) (A) (A) (A) (A) (A) (A) (A) (A) (A) (A) (A)
                 (A) (A) (A) (A) (A) (A) (A) (A) (A) (A) (A) (A)
                 (A) (A) (A) (A) (A) (A) (A) (A) (A) (A) (A) (A)
                 (A) (A) (A) (A) (A) (A) (A) (A) (A) (A) (A) (A)
                 (A) (A) (A) (A) (A) (A) (A) (A) (A) (A) (A) (A)
                 (A) (A) (A) (A) (A) (A) (A) (A) (A) (A) (A) (A)
                 (A) (A) (A) (A) (A) (A) (A) (A) (A) (A) (A) (A)
                 (A) (A) (A) (A) (A) (A) (A) (A) (A) (A) (A) (A)
                 (A) (A) (A) (A) (A) (A) (A) (A) (A) (A) (A) (A)
                 (A) (A) (A) (A) (A) (A)
 The electronic state is 1-A.
 Alpha  occ. eigenvalues --  -88.88406 -88.88092 -88.87742 -19.16707 -10.24854
 Alpha  occ. eigenvalues --  -10.21797 -10.21370 -10.20928 -10.20756 -10.20744
 Alpha  occ. eigenvalues --  -10.20673 -10.19140 -10.19005 -10.18961  -7.96997
 Alpha  occ. eigenvalues --   -7.96667  -7.96313  -5.93295  -5.92978  -5.92921
 Alpha  occ. eigenvalues --   -5.92628  -5.92615  -5.92579  -5.92265  -5.92216
 Alpha  occ. eigenvalues --   -5.91851  -1.07802  -0.91215  -0.89164  -0.84618
 Alpha  occ. eigenvalues --   -0.76937  -0.76016  -0.74114  -0.71003  -0.70143
 Alpha  occ. eigenvalues --   -0.61695  -0.60785  -0.57146  -0.55784  -0.53819
 Alpha  occ. eigenvalues --   -0.51882  -0.49354  -0.48353  -0.45255  -0.43636
 Alpha  occ. eigenvalues --   -0.43265  -0.41380  -0.40925  -0.39469  -0.39015
 Alpha  occ. eigenvalues --   -0.37741  -0.36849  -0.36036  -0.35654  -0.33874
 Alpha  occ. eigenvalues --   -0.33369  -0.28636  -0.25785  -0.23483  -0.23084
 Alpha  occ. eigenvalues --   -0.22220
 Alpha virt. eigenvalues --   -0.04245  -0.03488  -0.01644  -0.00199   0.00154
 Alpha virt. eigenvalues --    0.00310   0.00726   0.01656   0.02081   0.02810
 Alpha virt. eigenvalues --    0.03050   0.03630   0.03831   0.04297   0.04728
 Alpha virt. eigenvalues --    0.04861   0.05242   0.06098   0.06272   0.06715
 Alpha virt. eigenvalues --    0.07758   0.08139   0.08530   0.09146   0.09421
 Alpha virt. eigenvalues --    0.09670   0.10312   0.10637   0.11664   0.12099
 Alpha virt. eigenvalues --    0.12400   0.12784   0.13184   0.13283   0.13439
 Alpha virt. eigenvalues --    0.14063   0.14703   0.14902   0.15161   0.15570
 Alpha virt. eigenvalues --    0.16166   0.16706   0.17163   0.17259   0.17550
 Alpha virt. eigenvalues --    0.18341   0.18431   0.19099   0.19226   0.19832
 Alpha virt. eigenvalues --    0.19920   0.20753   0.20890   0.21257   0.21431
 Alpha virt. eigenvalues --    0.21862   0.22312   0.22610   0.23042   0.24048
 Alpha virt. eigenvalues --    0.24345   0.24738   0.25345   0.25579   0.26401
 Alpha virt. eigenvalues --    0.26659   0.27699   0.27980   0.29084   0.29496
 Alpha virt. eigenvalues --    0.30408   0.30777   0.31830   0.32703   0.33260
 Alpha virt. eigenvalues --    0.34053   0.34598   0.35298   0.35465   0.36303
 Alpha virt. eigenvalues --    0.37044   0.38657   0.39644   0.41227   0.42008
 Alpha virt. eigenvalues --    0.42760   0.44430   0.45484   0.46317   0.46655
 Alpha virt. eigenvalues --    0.48004   0.49266   0.50152   0.52678   0.53225
 Alpha virt. eigenvalues --    0.55529   0.56200   0.56436   0.56493   0.57636
 Alpha virt. eigenvalues --    0.58954   0.59038   0.59475   0.60857   0.61250
 Alpha virt. eigenvalues --    0.62507   0.63188   0.64171   0.65254   0.66060
 Alpha virt. eigenvalues --    0.66453   0.68835   0.70115   0.70756   0.71667
 Alpha virt. eigenvalues --    0.72390   0.73255   0.73602   0.73723   0.75214
 Alpha virt. eigenvalues --    0.76510   0.77216   0.78499   0.79246   0.79717
 Alpha virt. eigenvalues --    0.81003   0.81506   0.82548   0.82879   0.83231
 Alpha virt. eigenvalues --    0.84045   0.85015   0.85654   0.86338   0.86500
 Alpha virt. eigenvalues --    0.88375   0.89498   0.90496   0.91557   0.93655
 Alpha virt. eigenvalues --    0.93955   0.95730   0.96392   0.96654   0.98629
 Alpha virt. eigenvalues --    1.00768   1.02483   1.03247   1.03930   1.04481
 Alpha virt. eigenvalues --    1.05385   1.06544   1.06764   1.08718   1.09515
 Alpha virt. eigenvalues --    1.10946   1.12411   1.14325   1.16389   1.18161
 Alpha virt. eigenvalues --    1.19512   1.20863   1.24204   1.29439   1.30334
 Alpha virt. eigenvalues --    1.34492   1.34842   1.35980   1.38073   1.40588
 Alpha virt. eigenvalues --    1.43513   1.47691   1.49928   1.51338   1.54196
 Alpha virt. eigenvalues --    1.56107   1.57349   1.59742   1.59887   1.60220
 Alpha virt. eigenvalues --    1.62643   1.63225   1.64567   1.67653   1.68852
 Alpha virt. eigenvalues --    1.70964   1.72145   1.72861   1.73400   1.74754
 Alpha virt. eigenvalues --    1.77351   1.77647   1.78280   1.79344   1.81382
 Alpha virt. eigenvalues --    1.83957   1.85423   1.87533   1.88755   1.89273
 Alpha virt. eigenvalues --    1.91187   1.92191   1.93952   1.96811   1.97174
 Alpha virt. eigenvalues --    1.99465   1.99901   2.01998   2.04174   2.05882
 Alpha virt. eigenvalues --    2.06541   2.07872   2.09082   2.09826   2.10559
 Alpha virt. eigenvalues --    2.11746   2.13912   2.14719   2.16595   2.18075
 Alpha virt. eigenvalues --    2.19208   2.19614   2.28515   2.33541   2.37539
 Alpha virt. eigenvalues --    2.41082   2.42317   2.43917   2.49857   2.53229
 Alpha virt. eigenvalues --    2.56063   2.58581   2.62807   2.63533   2.69093
 Alpha virt. eigenvalues --    2.70286   2.70544   2.71230   2.72966   2.73675
 Alpha virt. eigenvalues --    2.74247   2.77925   2.78732   2.83332   2.87910
 Alpha virt. eigenvalues --    2.90005   2.92045   2.94811   2.96378   2.97478
 Alpha virt. eigenvalues --    3.01988   3.05620   3.08356   3.10901   3.11611
 Alpha virt. eigenvalues --    3.16435   3.17191   3.20307   3.28945   3.29681
 Alpha virt. eigenvalues --    3.30622   3.31730   3.36792   3.44129   3.46878
 Alpha virt. eigenvalues --    3.47427   3.52275   3.58069   3.70022   3.87870
 Alpha virt. eigenvalues --    3.93993   3.98276   4.05764   4.11062   4.19792
 Alpha virt. eigenvalues --    4.35446   4.49334   5.00930   5.46071   5.73766
 Alpha virt. eigenvalues --    7.97156   7.99014   8.00295  17.28606  17.29874
 Alpha virt. eigenvalues --   17.31354  17.45860  17.46432  17.50105  17.51683
 Alpha virt. eigenvalues --   17.54182  17.56953  23.47276  23.62911  23.77409
 Alpha virt. eigenvalues --   23.80705  23.86346  24.02147  24.05929  24.13910
 Alpha virt. eigenvalues --   24.14190  24.15577  49.93728 189.13438 189.15869
 Alpha virt. eigenvalues --  189.17561
          Condensed to atoms (all electrons):
               1          2          3          4          5          6
     1  C    8.163995  -2.717139   0.675339  -0.753479   0.376180   0.449202
     2  C   -2.717139  13.202457  -2.942711   1.800856  -0.029028  -1.551268
     3  C    0.675339  -2.942711  10.117721  -1.252465  -0.029722   0.263718
     4  C   -0.753479   1.800856  -1.252465   6.368966   0.040615  -0.025903
     5  H    0.376180  -0.029028  -0.029722   0.040615   0.537949   0.004864
     6  S    0.449202  -1.551268   0.263718  -0.025903   0.004864  16.736405
     7  H    0.030649  -0.040691   0.025710   0.355288  -0.005303  -0.012251
     8  C    0.269522  -1.197644   1.267587  -0.311402  -0.012013  -0.035146
     9  S   -0.099860   0.360412   0.564819   0.065949  -0.000084  -0.028786
    10  C    0.009893  -0.138888  -1.325026  -0.015631  -0.000395   0.061050
    11  C   -0.192603  -0.185043   1.581858   0.072133   0.000373  -0.016668
    12  C   -0.006643  -0.231855  -3.063678  -0.136728  -0.000819   0.218881
    13  H    0.001866   0.009380   0.045632   0.002331   0.000001  -0.004776
    14  S   -0.010084  -0.012611   0.002515   0.002911  -0.000002  -0.000163
    15  C   -0.002122  -0.006731   0.021303   0.000376   0.000001  -0.003307
    16  C   -0.007185  -0.101980  -0.236719   0.000752  -0.000032   0.022247
    17  H    0.000001  -0.000006  -0.000065  -0.000001   0.000000   0.000011
    18  H   -0.000015  -0.000123  -0.000545   0.000003   0.000000  -0.000017
    19  O    0.103801  -0.024687   0.005268  -0.028828  -0.007452   0.050302
    20  H   -0.212819   0.227808  -0.026834   0.010971   0.004701  -0.023405
               7          8          9         10         11         12
     1  C    0.030649   0.269522  -0.099860   0.009893  -0.192603  -0.006643
     2  C   -0.040691  -1.197644   0.360412  -0.138888  -0.185043  -0.231855
     3  C    0.025710   1.267587   0.564819  -1.325026   1.581858  -3.063678
     4  C    0.355288  -0.311402   0.065949  -0.015631   0.072133  -0.136728
     5  H   -0.005303  -0.012013  -0.000084  -0.000395   0.000373  -0.000819
     6  S   -0.012251  -0.035146  -0.028786   0.061050  -0.016668   0.218881
     7  H    0.484497   0.000544  -0.000336  -0.000006  -0.000569  -0.000891
     8  C    0.000544  11.394451   1.263709  -0.857578   3.283924  -6.351758
     9  S   -0.000336   1.263709  18.315063  -0.132910   2.971624  -5.028528
    10  C   -0.000006  -0.857578  -0.132910  19.936961  -4.159071  -0.101931
    11  C   -0.000569   3.283924   2.971624  -4.159071  22.094375 -15.544297
    12  C   -0.000891  -6.351758  -5.028528  -0.101931 -15.544297  30.324867
    13  H   -0.000001   0.060187   0.022800  -0.080310   0.104849   0.181240
    14  S   -0.000002  -0.671127   0.257562   0.335883  -0.558766  -0.491493
    15  C   -0.000002   0.150505   0.406843   1.825916   0.028718  -1.401298
    16  C    0.000000  -2.488263  -2.471112  -9.579894  -2.999101   7.141485
    17  H    0.000000   0.004196  -0.002059   0.000961   0.022833   0.008634
    18  H    0.000000  -0.007316   0.020100   0.029843  -0.063168  -0.010515
    19  O   -0.000371  -0.036654  -0.018856   0.011340   0.028845  -0.043384
    20  H   -0.000062   0.008235   0.007102   0.004164   0.002394   0.016761
              13         14         15         16         17         18
     1  C    0.001866  -0.010084  -0.002122  -0.007185   0.000001  -0.000015
     2  C    0.009380  -0.012611  -0.006731  -0.101980  -0.000006  -0.000123
     3  C    0.045632   0.002515   0.021303  -0.236719  -0.000065  -0.000545
     4  C    0.002331   0.002911   0.000376   0.000752  -0.000001   0.000003
     5  H    0.000001  -0.000002   0.000001  -0.000032   0.000000   0.000000
     6  S   -0.004776  -0.000163  -0.003307   0.022247   0.000011  -0.000017
     7  H   -0.000001  -0.000002  -0.000002   0.000000   0.000000   0.000000
     8  C    0.060187  -0.671127   0.150505  -2.488263   0.004196  -0.007316
     9  S    0.022800   0.257562   0.406843  -2.471112  -0.002059   0.020100
    10  C   -0.080310   0.335883   1.825916  -9.579894   0.000961   0.029843
    11  C    0.104849  -0.558766   0.028718  -2.999101   0.022833  -0.063168
    12  C    0.181240  -0.491493  -1.401298   7.141485   0.008634  -0.010515
    13  H    0.523005   0.010371   0.001609  -0.010368  -0.000006   0.000008
    14  S    0.010371  17.243208   0.474443  -0.170271  -0.042492   0.013628
    15  C    0.001609   0.474443   5.984679  -1.668527   0.370556   0.035103
    16  C   -0.010368  -0.170271  -1.668527  17.905596  -0.003494   0.332284
    17  H   -0.000006  -0.042492   0.370556  -0.003494   0.479518  -0.005016
    18  H    0.000008   0.013628   0.035103   0.332284  -0.005016   0.521015
    19  O    0.000061  -0.000699   0.000372  -0.000179  -0.000000   0.000002
    20  H    0.000006   0.000130   0.000064   0.000423  -0.000000   0.000000
              19         20
     1  C    0.103801  -0.212819
     2  C   -0.024687   0.227808
     3  C    0.005268  -0.026834
     4  C   -0.028828   0.010971
     5  H   -0.007452   0.004701
     6  S    0.050302  -0.023405
     7  H   -0.000371  -0.000062
     8  C   -0.036654   0.008235
     9  S   -0.018856   0.007102
    10  C    0.011340   0.004164
    11  C    0.028845   0.002394
    12  C   -0.043384   0.016761
    13  H    0.000061   0.000006
    14  S   -0.000699   0.000130
    15  C    0.000372   0.000064
    16  C   -0.000179   0.000423
    17  H   -0.000000  -0.000000
    18  H    0.000002   0.000000
    19  O    8.028486   0.165001
    20  H    0.165001   0.556254
 Mulliken charges:
               1
     1  C   -0.078499
     2  C   -0.420506
     3  C    0.306294
     4  C   -0.196714
     5  H    0.120165
     6  S   -0.104987
     7  H    0.163799
     8  C    0.266043
     9  S   -0.473452
    10  C    0.175629
    11  C   -0.472639
    12  C    0.521951
    13  H    0.132115
    14  S   -0.382938
    15  C   -0.218500
    16  C    0.334338
    17  H    0.166430
    18  H    0.134730
    19  O   -0.232366
    20  H    0.259106
 Sum of Mulliken charges =  -0.00000
 Mulliken charges with hydrogens summed into heavy atoms:
               1
     1  C    0.041666
     2  C   -0.420506
     3  C    0.306294
     4  C   -0.032916
     6  S   -0.104987
     8  C    0.266043
     9  S   -0.473452
    10  C    0.175629
    11  C   -0.472639
    12  C    0.654066
    14  S   -0.382938
    15  C   -0.052070
    16  C    0.469067
    19  O    0.026740
 Electronic spatial extent (au):  <R**2>=           4321.1237
 Charge=             -0.0000 electrons
 Dipole moment (field-independent basis, Debye):
    X=             -1.9361    Y=              0.9161    Z=              0.2881  Tot=              2.1612
 Quadrupole moment (field-independent basis, Debye-Ang):
   XX=            -79.0519   YY=           -101.1125   ZZ=           -101.5728
   XY=             -6.8880   XZ=              1.6387   YZ=              0.1616
 Traceless Quadrupole moment (field-independent basis, Debye-Ang):
   XX=             14.8605   YY=             -7.2001   ZZ=             -7.6604
   XY=             -6.8880   XZ=              1.6387   YZ=              0.1616
 Octapole moment (field-independent basis, Debye-Ang**2):
  XXX=            -40.1050  YYY=             23.9553  ZZZ=              5.0760  XYY=            -35.1480
  XXY=             18.4288  XXZ=             18.2257  XZZ=              6.0285  YZZ=              3.6867
  YYZ=              6.0888  XYZ=            -18.4865
 Hexadecapole moment (field-independent basis, Debye-Ang**3):
 XXXX=          -4078.9138 YYYY=           -555.7926 ZZZZ=           -602.0985 XXXY=            -87.7823
 XXXZ=             38.6762 YYYX=            -80.1027 YYYZ=             35.4244 ZZZX=              2.4876
 ZZZY=             -8.6466 XXYY=           -833.3402 XXZZ=           -914.7270 YYZZ=           -196.3578
 XXYZ=             35.9904 YYXZ=            -22.2164 ZZXY=            -20.0512
 N-N= 1.122030547161D+03 E-N=-6.155831274625D+03  KE= 1.651062349876D+03
 Unable to Open any file for archive entry.
 1\1\GINC-CX3-6-14\FOpt\RB3LYP\6-311+G(d,p)\C10H6O1S3\NS5018\17-Oct-202
 1\0\\# opt=modredundant b3lyp/6-311+g(d,p)\\pBTTT_90.pdb\\0,1\C,-4.123
 9827882,-1.1703673462,-0.2247327004\C,-2.7547478512,-1.0193810413,-0.6
 015713631\C,-2.0396703568,-2.1933291344,-0.5836928153\C,-4.4376910084,
 -2.4624614262,0.083417603\H,-4.8341481993,-0.3530051914,-0.1894834179\
 S,-3.0809974629,-3.515531743,-0.0815571917\H,-5.3938982698,-2.85513368
 38,0.3934953229\C,-0.6293115116,-2.3972443483,-0.9017778557\S,0.597050
 7108,-2.2757603587,0.3723629811\C,1.8669516064,-2.6092540195,-0.769254
 2392\C,1.344933524,-2.7964843756,-2.043237507\C,-0.0689401395,-2.67951
 39945,-2.1196591193\H,-0.6578718122,-2.7886929357,-3.0197899782\S,2.61
 78199384,-3.1284159915,-3.1885183656\C,3.8188275007,-3.0064412418,-1.9
 233853745\C,3.2850230074,-2.729283228,-0.6982313484\H,4.8590805388,-3.
 1502378625,-2.172795702\H,3.8753929448,-2.617578218,0.2005369968\O,-2.
 1727437298,0.161818463,-0.9593461\H,-2.8090766418,0.8772976773,-0.8667
 798258\\Version=ES64L-G16RevC.01\State=1-A\HF=-1654.6292283\RMSD=6.387
 e-09\RMSF=1.582e-05\Dipole=-0.6953037,0.4770717,0.1091766\Quadrupole=1
 0.318265,-3.8625595,-6.4557055,-5.9855192,-0.9352596,1.0352113\PG=C01 
 [X(C10H6O1S3)]\\@
 The archive entry for this job was punched.


 THE TRULY SUCCESSFUL PERFORMANCE OF RESEARCHES IN
 INORGANIC CHEMISTRY IS POSSIBLE ONLY TO ONE WHO IS NOT
 ONLY A THEORETICAL CHEMIST, BUT ALSO AN ACCOMPLISHED
 ANALYST AND, MOREOVER, NOT MERELY A PRACTICALLY TRAINED,
 MECHANICAL WORKER, BUT A THINKING CREATIVE ARTIST.
   --  CLEMENS WINKLER, BER. 33, 1697(1900)
 Job cpu time:       0 days  2 hours 34 minutes 58.2 seconds.
 Elapsed time:       0 days  0 hours 19 minutes 31.5 seconds.
 File lengths (MBytes):  RWF=     86 Int=      0 D2E=      0 Chk=     11 Scr=      1
 Normal termination of Gaussian 16 at Sun Oct 17 02:25:07 2021.
