 Entering Gaussian System, Link 0=g16
 Input=pBTTT_-135.gjf
 Output=pBTTT_-135.log
 Initial command:
 /apps/gaussian/g16-c01-avx/g16/l1.exe "/tmp/pbs.4729018[40].pbs/Gau-3063064.inp" -scrdir="/tmp/pbs.4729018[40].pbs/"
 Entering Link 1 = /apps/gaussian/g16-c01-avx/g16/l1.exe PID=   3063067.
  
 Copyright (c) 1988-2019, Gaussian, Inc.  All Rights Reserved.
  
 This is part of the Gaussian(R) 16 program.  It is based on
 the Gaussian(R) 09 system (copyright 2009, Gaussian, Inc.),
 the Gaussian(R) 03 system (copyright 2003, Gaussian, Inc.),
 the Gaussian(R) 98 system (copyright 1998, Gaussian, Inc.),
 the Gaussian(R) 94 system (copyright 1995, Gaussian, Inc.),
 the Gaussian 92(TM) system (copyright 1992, Gaussian, Inc.),
 the Gaussian 90(TM) system (copyright 1990, Gaussian, Inc.),
 the Gaussian 88(TM) system (copyright 1988, Gaussian, Inc.),
 the Gaussian 86(TM) system (copyright 1986, Carnegie Mellon
 University), and the Gaussian 82(TM) system (copyright 1983,
 Carnegie Mellon University). Gaussian is a federally registered
 trademark of Gaussian, Inc.
  
 This software contains proprietary and confidential information,
 including trade secrets, belonging to Gaussian, Inc.
  
 This software is provided under written license and may be
 used, copied, transmitted, or stored only in accord with that
 written license.
  
 The following legend is applicable only to US Government
 contracts under FAR:
  
                    RESTRICTED RIGHTS LEGEND
  
 Use, reproduction and disclosure by the US Government is
 subject to restrictions as set forth in subparagraphs (a)
 and (c) of the Commercial Computer Software - Restricted
 Rights clause in FAR 52.227-19.
  
 Gaussian, Inc.
 340 Quinnipiac St., Bldg. 40, Wallingford CT 06492
  
  
 ---------------------------------------------------------------
 Warning -- This program may not be used in any manner that
 competes with the business of Gaussian, Inc. or will provide
 assistance to any competitor of Gaussian, Inc.  The licensee
 of this program is prohibited from giving any competitor of
 Gaussian, Inc. access to this program.  By using this program,
 the user acknowledges that Gaussian, Inc. is engaged in the
 business of creating and licensing software in the field of
 computational chemistry and represents and warrants to the
 licensee that it is not a competitor of Gaussian, Inc. and that
 it will not use this program in any manner prohibited above.
 ---------------------------------------------------------------
  

 Cite this work as:
 Gaussian 16, Revision C.01,
 M. J. Frisch, G. W. Trucks, H. B. Schlegel, G. E. Scuseria, 
 M. A. Robb, J. R. Cheeseman, G. Scalmani, V. Barone, 
 G. A. Petersson, H. Nakatsuji, X. Li, M. Caricato, A. V. Marenich, 
 J. Bloino, B. G. Janesko, R. Gomperts, B. Mennucci, H. P. Hratchian, 
 J. V. Ortiz, A. F. Izmaylov, J. L. Sonnenberg, D. Williams-Young, 
 F. Ding, F. Lipparini, F. Egidi, J. Goings, B. Peng, A. Petrone, 
 T. Henderson, D. Ranasinghe, V. G. Zakrzewski, J. Gao, N. Rega, 
 G. Zheng, W. Liang, M. Hada, M. Ehara, K. Toyota, R. Fukuda, 
 J. Hasegawa, M. Ishida, T. Nakajima, Y. Honda, O. Kitao, H. Nakai, 
 T. Vreven, K. Throssell, J. A. Montgomery, Jr., J. E. Peralta, 
 F. Ogliaro, M. J. Bearpark, J. J. Heyd, E. N. Brothers, K. N. Kudin, 
 V. N. Staroverov, T. A. Keith, R. Kobayashi, J. Normand, 
 K. Raghavachari, A. P. Rendell, J. C. Burant, S. S. Iyengar, 
 J. Tomasi, M. Cossi, J. M. Millam, M. Klene, C. Adamo, R. Cammi, 
 J. W. Ochterski, R. L. Martin, K. Morokuma, O. Farkas, 
 J. B. Foresman, and D. J. Fox, Gaussian, Inc., Wallingford CT, 2019.
 
 ******************************************
 Gaussian 16:  ES64L-G16RevC.01  3-Jul-2019
                17-Oct-2021 
 ******************************************
 %mem=10GB
 %nprocshared=8
 Will use up to    8 processors via shared memory.
 -------------------------------------
 # opt=modredundant b3lyp/6-311+g(d,p)
 -------------------------------------
 1/18=120,19=15,26=3,38=1/1,3;
 2/9=110,12=2,17=6,18=5,40=1/2;
 3/5=4,6=6,7=111,11=2,25=1,30=1,71=1,74=-5/1,2,3;
 4//1;
 5/5=2,38=5/2;
 6/7=2,8=2,9=2,10=2,28=1/1;
 7//1,2,3,16;
 1/18=20,19=15,26=3/3(2);
 2/9=110/2;
 99//99;
 2/9=110/2;
 3/5=4,6=6,7=111,11=2,25=1,30=1,71=1,74=-5/1,2,3;
 4/5=5,16=3,69=1/1;
 5/5=2,38=5/2;
 7//1,2,3,16;
 1/18=20,19=15,26=3/3(-5);
 2/9=110/2;
 6/7=2,8=2,9=2,10=2,19=2,28=1/1;
 99/9=1/99;
 --------------
 pBTTT_-135.pdb
 --------------
 Symbolic Z-matrix:
 Charge =  0 Multiplicity = 1
 C                    -4.25     -1.36     -0.21 
 C                    -2.93     -0.95     -0.61 
 C                    -1.97     -2.05     -0.62 
 C                    -4.33     -2.76      0.1 
 H                    -5.1      -0.7      -0.14 
 S                    -2.8      -3.56     -0.11 
 H                    -5.23     -3.27      0.41 
 C                    -0.56     -2.13     -0.97 
 S                     0.091    -3.453    -1.985 
 C                     1.702    -2.826    -1.916 
 C                     1.783    -1.603    -1.159 
 C                     0.514    -1.192    -0.636 
 H                     0.349    -0.226    -0.186 
 S                     3.116    -0.606    -1.64 
 C                     3.615    -1.789    -2.851 
 C                     2.734    -2.934    -2.894 
 H                     4.375    -1.577    -3.589 
 H                     2.707    -3.623    -3.735 
 O                    -2.4       0.49     -0.72 
 H                    -2.92      1.52     -0.76 
 
 Add virtual bond connecting atoms H20        and O19        Dist= 2.18D+00.
 The following ModRedundant input section has been read:
 D       2       3       8       9 F                                           
 

 GradGradGradGradGradGradGradGradGradGradGradGradGradGradGradGradGradGrad
 Berny optimization.
 Initialization pass.
                           ----------------------------
                           !    Initial Parameters    !
                           ! (Angstroms and Degrees)  !
 --------------------------                            --------------------------
 ! Name  Definition              Value          Derivative Info.                !
 --------------------------------------------------------------------------------
 ! R1    R(1,2)                  1.4389         estimate D2E/DX2                !
 ! R2    R(1,4)                  1.4361         estimate D2E/DX2                !
 ! R3    R(1,5)                  1.0784         estimate D2E/DX2                !
 ! R4    R(2,3)                  1.46           estimate D2E/DX2                !
 ! R5    R(2,19)                 1.5384         estimate D2E/DX2                !
 ! R6    R(3,6)                  1.797          estimate D2E/DX2                !
 ! R7    R(3,8)                  1.455          estimate D2E/DX2                !
 ! R8    R(4,6)                  1.7393         estimate D2E/DX2                !
 ! R9    R(4,7)                  1.0799         estimate D2E/DX2                !
 ! R10   R(8,9)                  1.7901         estimate D2E/DX2                !
 ! R11   R(8,12)                 1.4645         estimate D2E/DX2                !
 ! R12   R(9,10)                 1.7301         estimate D2E/DX2                !
 ! R13   R(10,11)                1.4406         estimate D2E/DX2                !
 ! R14   R(10,16)                1.4259         estimate D2E/DX2                !
 ! R15   R(11,12)                1.4328         estimate D2E/DX2                !
 ! R16   R(11,14)                1.7327         estimate D2E/DX2                !
 ! R17   R(12,13)                1.0784         estimate D2E/DX2                !
 ! R18   R(14,15)                1.7649         estimate D2E/DX2                !
 ! R19   R(15,16)                1.4453         estimate D2E/DX2                !
 ! R20   R(15,17)                1.0804         estimate D2E/DX2                !
 ! R21   R(16,18)                1.0875         estimate D2E/DX2                !
 ! R22   R(19,20)                1.1545         estimate D2E/DX2                !
 ! A1    A(2,1,4)              112.8843         estimate D2E/DX2                !
 ! A2    A(2,1,5)              124.5209         estimate D2E/DX2                !
 ! A3    A(4,1,5)              122.5942         estimate D2E/DX2                !
 ! A4    A(1,2,3)              112.9799         estimate D2E/DX2                !
 ! A5    A(1,2,19)             127.059          estimate D2E/DX2                !
 ! A6    A(3,2,19)             118.5686         estimate D2E/DX2                !
 ! A7    A(2,3,6)              109.1138         estimate D2E/DX2                !
 ! A8    A(2,3,8)              132.8639         estimate D2E/DX2                !
 ! A9    A(6,3,8)              118.0132         estimate D2E/DX2                !
 ! A10   A(1,4,6)              111.9209         estimate D2E/DX2                !
 ! A11   A(1,4,7)              124.6643         estimate D2E/DX2                !
 ! A12   A(6,4,7)              123.4062         estimate D2E/DX2                !
 ! A13   A(3,6,4)               93.0997         estimate D2E/DX2                !
 ! A14   A(3,8,9)              121.969          estimate D2E/DX2                !
 ! A15   A(3,8,12)             128.3589         estimate D2E/DX2                !
 ! A16   A(9,8,12)             109.632          estimate D2E/DX2                !
 ! A17   A(8,9,10)              92.7614         estimate D2E/DX2                !
 ! A18   A(9,10,11)            112.3944         estimate D2E/DX2                !
 ! A19   A(9,10,16)            128.2529         estimate D2E/DX2                !
 ! A20   A(11,10,16)           112.583          estimate D2E/DX2                !
 ! A21   A(10,11,12)           112.6774         estimate D2E/DX2                !
 ! A22   A(10,11,14)           112.6978         estimate D2E/DX2                !
 ! A23   A(12,11,14)           128.1454         estimate D2E/DX2                !
 ! A24   A(8,12,11)            112.4913         estimate D2E/DX2                !
 ! A25   A(8,12,13)            123.8276         estimate D2E/DX2                !
 ! A26   A(11,12,13)           123.0118         estimate D2E/DX2                !
 ! A27   A(11,14,15)            91.278          estimate D2E/DX2                !
 ! A28   A(14,15,16)           112.2761         estimate D2E/DX2                !
 ! A29   A(14,15,17)           122.4163         estimate D2E/DX2                !
 ! A30   A(16,15,17)           124.3274         estimate D2E/DX2                !
 ! A31   A(10,16,15)           111.1464         estimate D2E/DX2                !
 ! A32   A(10,16,18)           124.0848         estimate D2E/DX2                !
 ! A33   A(15,16,18)           122.6857         estimate D2E/DX2                !
 ! A34   A(2,19,20)            133.0318         estimate D2E/DX2                !
 ! D1    D(4,1,2,3)              0.3915         estimate D2E/DX2                !
 ! D2    D(4,1,2,19)          -165.8104         estimate D2E/DX2                !
 ! D3    D(5,1,2,3)           -179.8811         estimate D2E/DX2                !
 ! D4    D(5,1,2,19)            13.9169         estimate D2E/DX2                !
 ! D5    D(2,1,4,6)             -0.3845         estimate D2E/DX2                !
 ! D6    D(2,1,4,7)           -179.3471         estimate D2E/DX2                !
 ! D7    D(5,1,4,6)            179.8822         estimate D2E/DX2                !
 ! D8    D(5,1,4,7)              0.9196         estimate D2E/DX2                !
 ! D9    D(1,2,3,6)             -0.2224         estimate D2E/DX2                !
 ! D10   D(1,2,3,8)            178.6265         estimate D2E/DX2                !
 ! D11   D(19,2,3,6)           167.2616         estimate D2E/DX2                !
 ! D12   D(19,2,3,8)           -13.8895         estimate D2E/DX2                !
 ! D13   D(1,2,19,20)          -16.0519         estimate D2E/DX2                !
 ! D14   D(3,2,19,20)          178.4264         estimate D2E/DX2                !
 ! D15   D(2,3,6,4)              0.0033         estimate D2E/DX2                !
 ! D16   D(8,3,6,4)           -179.041          estimate D2E/DX2                !
 ! D17   D(2,3,8,9)           -134.9971         Frozen                          !
 ! D18   D(2,3,8,12)            42.4521         estimate D2E/DX2                !
 ! D19   D(6,3,8,9)             43.7709         estimate D2E/DX2                !
 ! D20   D(6,3,8,12)          -138.78           estimate D2E/DX2                !
 ! D21   D(1,4,6,3)              0.2153         estimate D2E/DX2                !
 ! D22   D(7,4,6,3)            179.1932         estimate D2E/DX2                !
 ! D23   D(3,8,9,10)           179.7871         estimate D2E/DX2                !
 ! D24   D(12,8,9,10)            1.9105         estimate D2E/DX2                !
 ! D25   D(3,8,12,11)         -179.8475         estimate D2E/DX2                !
 ! D26   D(3,8,12,13)           -8.9933         estimate D2E/DX2                !
 ! D27   D(9,8,12,11)           -2.1448         estimate D2E/DX2                !
 ! D28   D(9,8,12,13)          168.7094         estimate D2E/DX2                !
 ! D29   D(8,9,10,11)           -1.2261         estimate D2E/DX2                !
 ! D30   D(8,9,10,16)         -149.8516         estimate D2E/DX2                !
 ! D31   D(9,10,11,12)           0.1829         estimate D2E/DX2                !
 ! D32   D(9,10,11,14)        -154.0249         estimate D2E/DX2                !
 ! D33   D(16,10,11,12)        153.9005         estimate D2E/DX2                !
 ! D34   D(16,10,11,14)         -0.3072         estimate D2E/DX2                !
 ! D35   D(9,10,16,15)         149.7247         estimate D2E/DX2                !
 ! D36   D(9,10,16,18)         -14.1908         estimate D2E/DX2                !
 ! D37   D(11,10,16,15)          1.1469         estimate D2E/DX2                !
 ! D38   D(11,10,16,18)       -162.7687         estimate D2E/DX2                !
 ! D39   D(10,11,12,8)           1.3011         estimate D2E/DX2                !
 ! D40   D(10,11,12,13)       -169.6393         estimate D2E/DX2                !
 ! D41   D(14,11,12,8)         150.6098         estimate D2E/DX2                !
 ! D42   D(14,11,12,13)        -20.3306         estimate D2E/DX2                !
 ! D43   D(10,11,14,15)         -0.4729         estimate D2E/DX2                !
 ! D44   D(12,11,14,15)       -149.7766         estimate D2E/DX2                !
 ! D45   D(11,14,15,16)          1.1307         estimate D2E/DX2                !
 ! D46   D(11,14,15,17)        170.2497         estimate D2E/DX2                !
 ! D47   D(14,15,16,10)         -1.498          estimate D2E/DX2                !
 ! D48   D(14,15,16,18)        162.6811         estimate D2E/DX2                !
 ! D49   D(17,15,16,10)       -170.3723         estimate D2E/DX2                !
 ! D50   D(17,15,16,18)         -6.1931         estimate D2E/DX2                !
 --------------------------------------------------------------------------------
 Trust Radius=3.00D-01 FncErr=1.00D-07 GrdErr=1.00D-06 EigMax=2.50D+02 EigMin=1.00D-04
 Number of steps in this run=    116 maximum allowed number of steps=    120.
 GradGradGradGradGradGradGradGradGradGradGradGradGradGradGradGradGradGrad

                          Input orientation:                          
 ---------------------------------------------------------------------
 Center     Atomic      Atomic             Coordinates (Angstroms)
 Number     Number       Type             X           Y           Z
 ---------------------------------------------------------------------
      1          6           0       -4.250000   -1.360000   -0.210000
      2          6           0       -2.930000   -0.950000   -0.610000
      3          6           0       -1.970000   -2.050000   -0.620000
      4          6           0       -4.330000   -2.760000    0.100000
      5          1           0       -5.100000   -0.700000   -0.140000
      6         16           0       -2.800000   -3.560000   -0.110000
      7          1           0       -5.230000   -3.270000    0.410000
      8          6           0       -0.560000   -2.130000   -0.970000
      9         16           0        0.091000   -3.453000   -1.985000
     10          6           0        1.702000   -2.826000   -1.916000
     11          6           0        1.783000   -1.603000   -1.159000
     12          6           0        0.514000   -1.192000   -0.636000
     13          1           0        0.349000   -0.226000   -0.186000
     14         16           0        3.116000   -0.606000   -1.640000
     15          6           0        3.615000   -1.789000   -2.851000
     16          6           0        2.734000   -2.934000   -2.894000
     17          1           0        4.375000   -1.577000   -3.589000
     18          1           0        2.707000   -3.623000   -3.735000
     19          8           0       -2.400000    0.490000   -0.720000
     20          1           0       -2.920000    1.520000   -0.760000
 ---------------------------------------------------------------------
                    Distance matrix (angstroms):
                    1          2          3          4          5
     1  C    0.000000
     2  C    1.438923   0.000000
     3  C    2.417147   1.460034   0.000000
     4  C    1.436141   2.395871   2.567509   0.000000
     5  H    1.078425   2.234346   3.442354   2.212261   0.000000
     6  S    2.636759   2.660639   1.796970   1.739253   3.670218
     7  H    2.234480   3.422397   3.630000   1.079907   2.631406
     8  C    3.845335   2.671872   1.454991   3.969219   4.831708
     9  S    5.135714   4.157172   2.842421   4.936873   6.158694
    10  C    6.362853   5.165311   3.970564   6.360317   7.344471
    11  C    6.112016   4.789591   3.817766   6.347637   7.016371
    12  C    4.785958   3.452590   2.628056   5.144381   5.657303
    13  H    4.736806   3.384641   2.982129   5.328789   5.469771
    14  S    7.541311   6.142748   5.384509   7.944195   8.352335
    15  C    8.307656   6.968718   6.019776   8.530783   9.191663
    16  C    7.645756   6.421356   5.299070   7.674269   8.599234
    17  H    9.265816   7.913949   7.021233   9.528129  10.121282
    18  H    8.120754   6.977559   5.835399   8.060482   9.078392
    19  O    2.665539   1.538376   2.578081   3.867790   3.007075
    20  H    3.219596   2.474571   3.696891   4.587603   3.172570
                    6          7          8          9         10
     6  S    0.000000
     7  H    2.501879   0.000000
     8  C    2.793224   5.001290   0.000000
     9  S    3.447456   5.838027   1.790071   0.000000
    10  C    4.905955   7.325301   2.548720   1.730090   0.000000
    11  C    5.092557   7.377182   2.408962   2.639629   1.440604
    12  C    4.106908   6.197236   1.464540   2.666618   2.391589
    13  H    4.586669   6.383290   2.250812   3.703579   3.403455
    14  S    6.787199   8.997506   4.035400   4.168340   2.646502
    15  C    7.197343   9.542615   4.591848   3.992171   2.368367
    16  C    6.226370   8.628708   3.898542   2.842726   1.425893
    17  H    8.216834  10.541076   5.614196   4.944173   3.391734
    18  H    6.593303   8.961116   4.532942   3.151961   2.225757
    19  O    4.115167   4.839773   3.211308   4.832448   5.408574
    20  H    5.122821   5.445099   4.351574   5.941168   6.448793
                   11         12         13         14         15
    11  C    0.000000
    12  C    1.432763   0.000000
    13  H    2.213417   1.078370   0.000000
    14  S    1.732703   2.849880   3.148778   0.000000
    15  C    2.500737   3.857309   4.495770   1.764939   0.000000
    16  C    2.384573   3.614074   4.511624   2.671708   1.445349
    17  H    3.553033   4.876039   5.441901   2.515258   1.080365
    18  H    3.401463   4.508083   5.449328   3.695754   2.229232
    19  O    4.697963   3.365646   2.890469   5.698585   6.776078
    20  H    5.659553   4.377519   3.750247   6.459688   7.617610
                   16         17         18         19         20
    16  C    0.000000
    17  H    2.239945   0.000000
    18  H    1.087534   2.643796   0.000000
    19  O    6.542783   7.642269   7.217232   0.000000
    20  H    7.507316   8.414967   8.183166   1.154513   0.000000
 Stoichiometry    C10H6OS3
 Framework group  C1[X(C10H6OS3)]
 Deg. of freedom    54
 Full point group                 C1      NOp   1
 Largest Abelian subgroup         C1      NOp   1
 Largest concise Abelian subgroup C1      NOp   1
                         Standard orientation:                         
 ---------------------------------------------------------------------
 Center     Atomic      Atomic             Coordinates (Angstroms)
 Number     Number       Type             X           Y           Z
 ---------------------------------------------------------------------
      1          6           0        3.982687    0.836227    0.355888
      2          6           0        2.580985    1.158753    0.397212
      3          6           0        1.729584    0.058300   -0.045303
      4          6           0        4.235680   -0.494830   -0.120328
      5          1           0        4.773692    1.510502    0.643404
      6         16           0        2.763466   -1.339022   -0.501020
      7          1           0        5.216421   -0.936224   -0.217888
      8          6           0        0.286665   -0.096028   -0.150985
      9         16           0       -0.552343   -1.573293    0.413026
     10          6           0       -2.106725   -0.965467   -0.042666
     11          6           0       -2.035704    0.361751   -0.598351
     12          6           0       -0.696517    0.868550   -0.648797
     13          1           0       -0.465594    1.896316   -0.879561
     14         16           0       -3.509469    1.250496   -0.397332
     15          6           0       -4.269765   -0.117895    0.417818
     16          6           0       -3.372338   -1.242824    0.552708
     17          1           0       -5.224824   -0.037250    0.916362
     18          1           0       -3.552174   -2.057177    1.250719
     19          8           0        1.955266    2.555154    0.555772
     20          1           0        2.376580    3.572481    0.902817
 ---------------------------------------------------------------------
 Rotational constants (GHZ):           1.1764304           0.2748122           0.2323879
 Standard basis: 6-311+G(d,p) (5D, 7F)
 There are   382 symmetry adapted cartesian basis functions of A   symmetry.
 There are   368 symmetry adapted basis functions of A   symmetry.
   368 basis functions,   594 primitive gaussians,   382 cartesian basis functions
    61 alpha electrons       61 beta electrons
       nuclear repulsion energy      1103.1913202388 Hartrees.
 NAtoms=   20 NActive=   20 NUniq=   20 SFac= 1.00D+00 NAtFMM=   60 NAOKFM=F Big=F
 Integral buffers will be    131072 words long.
 Raffenetti 2 integral format.
 Two-electron integral symmetry is turned on.
 One-electron integrals computed using PRISM.
 NBasis=   368 RedAO= T EigKep=  3.05D-06  NBF=   368
 NBsUse=   367 1.00D-06 EigRej=  5.82D-07 NBFU=   367
 ExpMin= 4.05D-02 ExpMax= 9.34D+04 ExpMxC= 3.17D+03 IAcc=3 IRadAn=         5 AccDes= 0.00D+00
 Harris functional with IExCor=  402 and IRadAn=       5 diagonalized for initial guess.
 HarFok:  IExCor=  402 AccDes= 0.00D+00 IRadAn=         5 IDoV= 1 UseB2=F ITyADJ=14
 ICtDFT=  3500011 ScaDFX=  1.000000  1.000000  1.000000  1.000000
 FoFCou: FMM=F IPFlag=           0 FMFlag=      100000 FMFlg1=           0
         NFxFlg=           0 DoJE=T BraDBF=F KetDBF=T FulRan=T
         wScrn=  0.000000 ICntrl=       500 IOpCl=  0 I1Cent=   200000004 NGrid=           0
         NMat0=    1 NMatS0=      1 NMatT0=    0 NMatD0=    1 NMtDS0=    0 NMtDT0=    0
 Petite list used in FoFCou.
 Requested convergence on RMS density matrix=1.00D-08 within 128 cycles.
 Requested convergence on MAX density matrix=1.00D-06.
 Requested convergence on             energy=1.00D-06.
 No special actions if energy rises.
 SCF Done:  E(RB3LYP) =  -1654.53310180     A.U. after   16 cycles
            NFock= 16  Conv=0.89D-08     -V/T= 2.0031

 **********************************************************************

            Population analysis using the SCF Density.

 **********************************************************************

 Orbital symmetries:
       Occupied  (A) (A) (A) (A) (A) (A) (A) (A) (A) (A) (A) (A)
                 (A) (A) (A) (A) (A) (A) (A) (A) (A) (A) (A) (A)
                 (A) (A) (A) (A) (A) (A) (A) (A) (A) (A) (A) (A)
                 (A) (A) (A) (A) (A) (A) (A) (A) (A) (A) (A) (A)
                 (A) (A) (A) (A) (A) (A) (A) (A) (A) (A) (A) (A)
                 (A)
       Virtual   (A) (A) (A) (A) (A) (A) (A) (A) (A) (A) (A) (A)
                 (A) (A) (A) (A) (A) (A) (A) (A) (A) (A) (A) (A)
                 (A) (A) (A) (A) (A) (A) (A) (A) (A) (A) (A) (A)
                 (A) (A) (A) (A) (A) (A) (A) (A) (A) (A) (A) (A)
                 (A) (A) (A) (A) (A) (A) (A) (A) (A) (A) (A) (A)
                 (A) (A) (A) (A) (A) (A) (A) (A) (A) (A) (A) (A)
                 (A) (A) (A) (A) (A) (A) (A) (A) (A) (A) (A) (A)
                 (A) (A) (A) (A) (A) (A) (A) (A) (A) (A) (A) (A)
                 (A) (A) (A) (A) (A) (A) (A) (A) (A) (A) (A) (A)
                 (A) (A) (A) (A) (A) (A) (A) (A) (A) (A) (A) (A)
                 (A) (A) (A) (A) (A) (A) (A) (A) (A) (A) (A) (A)
                 (A) (A) (A) (A) (A) (A) (A) (A) (A) (A) (A) (A)
                 (A) (A) (A) (A) (A) (A) (A) (A) (A) (A) (A) (A)
                 (A) (A) (A) (A) (A) (A) (A) (A) (A) (A) (A) (A)
                 (A) (A) (A) (A) (A) (A) (A) (A) (A) (A) (A) (A)
                 (A) (A) (A) (A) (A) (A) (A) (A) (A) (A) (A) (A)
                 (A) (A) (A) (A) (A) (A) (A) (A) (A) (A) (A) (A)
                 (A) (A) (A) (A) (A) (A) (A) (A) (A) (A) (A) (A)
                 (A) (A) (A) (A) (A) (A) (A) (A) (A) (A) (A) (A)
                 (A) (A) (A) (A) (A) (A) (A) (A) (A) (A) (A) (A)
                 (A) (A) (A) (A) (A) (A) (A) (A) (A) (A) (A) (A)
                 (A) (A) (A) (A) (A) (A) (A) (A) (A) (A) (A) (A)
                 (A) (A) (A) (A) (A) (A) (A) (A) (A) (A) (A) (A)
                 (A) (A) (A) (A) (A) (A) (A) (A) (A) (A) (A) (A)
                 (A) (A) (A) (A) (A) (A) (A) (A) (A) (A) (A) (A)
                 (A) (A) (A) (A) (A) (A)
 The electronic state is 1-A.
 Alpha  occ. eigenvalues --  -88.89610 -88.88885 -88.88681 -19.16051 -10.27288
 Alpha  occ. eigenvalues --  -10.23684 -10.23437 -10.22263 -10.21894 -10.21760
 Alpha  occ. eigenvalues --  -10.21687 -10.20423 -10.20178 -10.19982  -7.98061
 Alpha  occ. eigenvalues --   -7.97407  -7.97213  -5.94366  -5.94001  -5.93718
 Alpha  occ. eigenvalues --   -5.93648  -5.93534  -5.93361  -5.93173  -5.92962
 Alpha  occ. eigenvalues --   -5.92745  -0.98214  -0.90411  -0.87737  -0.83500
 Alpha  occ. eigenvalues --   -0.77197  -0.75292  -0.73888  -0.70870  -0.68605
 Alpha  occ. eigenvalues --   -0.61662  -0.58130  -0.57377  -0.54049  -0.53276
 Alpha  occ. eigenvalues --   -0.51325  -0.48797  -0.45785  -0.44661  -0.43002
 Alpha  occ. eigenvalues --   -0.41914  -0.40315  -0.39795  -0.39383  -0.38666
 Alpha  occ. eigenvalues --   -0.37297  -0.36261  -0.34517  -0.34225  -0.33682
 Alpha  occ. eigenvalues --   -0.33067  -0.29064  -0.25991  -0.24977  -0.23440
 Alpha  occ. eigenvalues --   -0.19954
 Alpha virt. eigenvalues --   -0.06945  -0.05459  -0.03788  -0.01656  -0.00778
 Alpha virt. eigenvalues --   -0.00091   0.00661   0.00942   0.01262   0.02126
 Alpha virt. eigenvalues --    0.02621   0.02810   0.03434   0.04276   0.04548
 Alpha virt. eigenvalues --    0.04859   0.05000   0.05830   0.05935   0.06735
 Alpha virt. eigenvalues --    0.06889   0.07662   0.08137   0.08483   0.08918
 Alpha virt. eigenvalues --    0.09664   0.10097   0.10334   0.11119   0.11271
 Alpha virt. eigenvalues --    0.11368   0.12050   0.12838   0.13139   0.13328
 Alpha virt. eigenvalues --    0.13931   0.14225   0.14619   0.14868   0.15598
 Alpha virt. eigenvalues --    0.15938   0.16425   0.16994   0.17367   0.17493
 Alpha virt. eigenvalues --    0.18209   0.18500   0.18693   0.19285   0.19739
 Alpha virt. eigenvalues --    0.19997   0.20137   0.20379   0.20696   0.20973
 Alpha virt. eigenvalues --    0.21295   0.21676   0.22566   0.22647   0.22720
 Alpha virt. eigenvalues --    0.23606   0.24165   0.24569   0.25147   0.25366
 Alpha virt. eigenvalues --    0.25891   0.26145   0.26473   0.27674   0.28777
 Alpha virt. eigenvalues --    0.29072   0.29965   0.30755   0.31011   0.31354
 Alpha virt. eigenvalues --    0.31915   0.32859   0.33820   0.34722   0.35014
 Alpha virt. eigenvalues --    0.35108   0.36799   0.37421   0.38213   0.38769
 Alpha virt. eigenvalues --    0.40405   0.41073   0.42195   0.42676   0.43843
 Alpha virt. eigenvalues --    0.45303   0.46721   0.47405   0.49884   0.51541
 Alpha virt. eigenvalues --    0.53054   0.55044   0.55353   0.55833   0.57000
 Alpha virt. eigenvalues --    0.57340   0.57954   0.59219   0.60313   0.61355
 Alpha virt. eigenvalues --    0.61594   0.62089   0.63316   0.64068   0.65038
 Alpha virt. eigenvalues --    0.66723   0.67225   0.68548   0.69534   0.69835
 Alpha virt. eigenvalues --    0.70676   0.71136   0.71802   0.72936   0.73282
 Alpha virt. eigenvalues --    0.73624   0.74805   0.75591   0.76597   0.77000
 Alpha virt. eigenvalues --    0.77648   0.78436   0.79671   0.80790   0.81313
 Alpha virt. eigenvalues --    0.81616   0.82528   0.83657   0.84374   0.85861
 Alpha virt. eigenvalues --    0.86584   0.87523   0.88829   0.89515   0.91590
 Alpha virt. eigenvalues --    0.92812   0.93408   0.94290   0.95003   0.97049
 Alpha virt. eigenvalues --    0.97431   0.98954   0.99132   0.99991   1.00852
 Alpha virt. eigenvalues --    1.01451   1.03220   1.04504   1.05603   1.09184
 Alpha virt. eigenvalues --    1.10343   1.11858   1.14057   1.15290   1.17830
 Alpha virt. eigenvalues --    1.21272   1.24607   1.27123   1.28943   1.30752
 Alpha virt. eigenvalues --    1.33318   1.35136   1.38330   1.38692   1.40266
 Alpha virt. eigenvalues --    1.44350   1.45991   1.49557   1.50805   1.52411
 Alpha virt. eigenvalues --    1.53351   1.53375   1.54583   1.55675   1.58039
 Alpha virt. eigenvalues --    1.60980   1.61461   1.63576   1.64957   1.65910
 Alpha virt. eigenvalues --    1.66698   1.68923   1.69083   1.69971   1.71750
 Alpha virt. eigenvalues --    1.73697   1.74637   1.75906   1.76871   1.78945
 Alpha virt. eigenvalues --    1.79705   1.80725   1.81431   1.84325   1.84931
 Alpha virt. eigenvalues --    1.86832   1.87582   1.89139   1.91063   1.93076
 Alpha virt. eigenvalues --    1.94300   1.94676   1.97445   1.99383   2.00163
 Alpha virt. eigenvalues --    2.01579   2.02580   2.04128   2.05307   2.06525
 Alpha virt. eigenvalues --    2.09123   2.10129   2.11396   2.12638   2.14025
 Alpha virt. eigenvalues --    2.15191   2.19811   2.23779   2.28794   2.29892
 Alpha virt. eigenvalues --    2.35824   2.36206   2.40278   2.45813   2.47197
 Alpha virt. eigenvalues --    2.51825   2.53078   2.55580   2.59321   2.65478
 Alpha virt. eigenvalues --    2.67352   2.68194   2.69283   2.71292   2.71750
 Alpha virt. eigenvalues --    2.72862   2.74451   2.75311   2.76679   2.79696
 Alpha virt. eigenvalues --    2.82354   2.84638   2.88694   2.91364   2.92869
 Alpha virt. eigenvalues --    2.94445   2.97160   2.98574   3.01731   3.03353
 Alpha virt. eigenvalues --    3.04146   3.05939   3.07605   3.13221   3.20102
 Alpha virt. eigenvalues --    3.20336   3.24713   3.27197   3.33218   3.36496
 Alpha virt. eigenvalues --    3.39879   3.46531   3.54389   3.63496   3.71482
 Alpha virt. eigenvalues --    3.88310   3.93791   4.01049   4.04789   4.12629
 Alpha virt. eigenvalues --    4.30457   4.46909   5.02280   5.19469   5.43941
 Alpha virt. eigenvalues --    7.93958   7.95955   7.96882  17.28110  17.28932
 Alpha virt. eigenvalues --   17.30352  17.42249  17.43177  17.46256  17.48039
 Alpha virt. eigenvalues --   17.50169  17.53272  23.44471  23.58284  23.70703
 Alpha virt. eigenvalues --   23.76851  23.79311  23.85002  23.86860  23.94438
 Alpha virt. eigenvalues --   23.95396  23.96197  49.85606 189.10286 189.12442
 Alpha virt. eigenvalues --  189.13374
          Condensed to atoms (all electrons):
               1          2          3          4          5          6
     1  C    7.286804  -2.261148   0.757744  -0.393480   0.431019   0.503327
     2  C   -2.261148  14.130156  -4.527588   1.784822  -0.102306  -2.244089
     3  C    0.757744  -4.527588  10.590800  -1.264264   0.039473   0.602614
     4  C   -0.393480   1.784822  -1.264264   6.076908  -0.023127  -0.401088
     5  H    0.431019  -0.102306   0.039473  -0.023127   0.518134   0.008410
     6  S    0.503327  -2.244089   0.602614  -0.401088   0.008410  17.490930
     7  H    0.033315  -0.053680   0.033980   0.361899  -0.004270  -0.014031
     8  C    0.121625  -1.449326  -0.055035  -0.165389  -0.004280   0.470564
     9  S   -0.038195   0.179399   0.434118   0.034200  -0.000119   0.030949
    10  C   -0.038668   0.451685  -0.443772   0.048062  -0.000159  -0.142712
    11  C   -0.042395  -1.102692   0.657502  -0.050922   0.000394   0.290867
    12  C    0.138562   0.382490  -0.898584  -0.021153   0.000900  -0.165632
    13  H    0.004653   0.018065   0.003796   0.000416   0.000002  -0.005326
    14  S   -0.014965  -0.034499   0.023959   0.001000  -0.000003   0.013972
    15  C    0.001090   0.001850  -0.017959  -0.000382   0.000001  -0.004718
    16  C   -0.004315   0.167108   0.082257   0.008389  -0.000013  -0.074324
    17  H   -0.000002  -0.000123  -0.000041   0.000000   0.000000   0.000046
    18  H   -0.000005  -0.000212  -0.000981  -0.000013   0.000000   0.000119
    19  O   -0.188275   0.565705  -0.240551   0.021278  -0.002641   0.018583
    20  H   -0.058306  -0.025956   0.058011  -0.003085  -0.000051  -0.004957
               7          8          9         10         11         12
     1  C    0.033315   0.121625  -0.038195  -0.038668  -0.042395   0.138562
     2  C   -0.053680  -1.449326   0.179399   0.451685  -1.102692   0.382490
     3  C    0.033980  -0.055035   0.434118  -0.443772   0.657502  -0.898584
     4  C    0.361899  -0.165389   0.034200   0.048062  -0.050922  -0.021153
     5  H   -0.004270  -0.004280  -0.000119  -0.000159   0.000394   0.000900
     6  S   -0.014031   0.470564   0.030949  -0.142712   0.290867  -0.165632
     7  H    0.476808  -0.002011  -0.000773  -0.000282   0.000042   0.000438
     8  C   -0.002011   9.459852   0.131875  -1.079583   0.765169  -2.149995
     9  S   -0.000773   0.131875  17.644973  -1.020851   0.968249  -2.097405
    10  C   -0.000282  -1.079583  -1.020851  14.506116  -5.615289   0.823427
    11  C    0.000042   0.765169   0.968249  -5.615289  14.624589  -3.130029
    12  C    0.000438  -2.149995  -2.097405   0.823427  -3.130029  12.279598
    13  H    0.000000   0.047158   0.010510  -0.048663   0.050947   0.274027
    14  S    0.000001  -0.338422   0.175629   0.780216  -0.499285  -0.237381
    15  C   -0.000000   0.079044  -0.013631   0.875133  -0.639555  -0.315936
    16  C   -0.000023  -0.091635   0.023674  -3.301409  -0.304385   0.804815
    17  H   -0.000000  -0.001139  -0.000140  -0.007573   0.007647   0.013627
    18  H    0.000000   0.005711   0.016933   0.024492  -0.026423  -0.005471
    19  O   -0.000145  -0.014551  -0.014937  -0.011465   0.000244   0.021401
    20  H   -0.000010   0.020115   0.000395  -0.000239   0.003318   0.000255
              13         14         15         16         17         18
     1  C    0.004653  -0.014965   0.001090  -0.004315  -0.000002  -0.000005
     2  C    0.018065  -0.034499   0.001850   0.167108  -0.000123  -0.000212
     3  C    0.003796   0.023959  -0.017959   0.082257  -0.000041  -0.000981
     4  C    0.000416   0.001000  -0.000382   0.008389   0.000000  -0.000013
     5  H    0.000002  -0.000003   0.000001  -0.000013   0.000000   0.000000
     6  S   -0.005326   0.013972  -0.004718  -0.074324   0.000046   0.000119
     7  H    0.000000   0.000001  -0.000000  -0.000023  -0.000000   0.000000
     8  C    0.047158  -0.338422   0.079044  -0.091635  -0.001139   0.005711
     9  S    0.010510   0.175629  -0.013631   0.023674  -0.000140   0.016933
    10  C   -0.048663   0.780216   0.875133  -3.301409  -0.007573   0.024492
    11  C    0.050947  -0.499285  -0.639555  -0.304385   0.007647  -0.026423
    12  C    0.274027  -0.237381  -0.315936   0.804815   0.013627  -0.005471
    13  H    0.497999   0.003814   0.001016  -0.011414  -0.000006   0.000012
    14  S    0.003814  16.555351   0.400002  -0.674419  -0.021975   0.003248
    15  C    0.001016   0.400002   5.812191  -0.219874   0.366879   0.010075
    16  C   -0.011414  -0.674419  -0.219874   9.441385  -0.002891   0.319395
    17  H   -0.000006  -0.021975   0.366879  -0.002891   0.474851  -0.003637
    18  H    0.000012   0.003248   0.010075   0.319395  -0.003637   0.515652
    19  O   -0.001404   0.000216  -0.000305  -0.001639  -0.000000   0.000001
    20  H   -0.000203   0.000115   0.000003   0.000062  -0.000000   0.000000
              19         20
     1  C   -0.188275  -0.058306
     2  C    0.565705  -0.025956
     3  C   -0.240551   0.058011
     4  C    0.021278  -0.003085
     5  H   -0.002641  -0.000051
     6  S    0.018583  -0.004957
     7  H   -0.000145  -0.000010
     8  C   -0.014551   0.020115
     9  S   -0.014937   0.000395
    10  C   -0.011465  -0.000239
    11  C    0.000244   0.003318
    12  C    0.021401   0.000255
    13  H   -0.001404  -0.000203
    14  S    0.000216   0.000115
    15  C   -0.000305   0.000003
    16  C   -0.001639   0.000062
    17  H   -0.000000  -0.000000
    18  H    0.000001   0.000000
    19  O    8.052131   0.207575
    20  H    0.207575   0.506954
 Mulliken charges:
               1
     1  C   -0.238387
     2  C    0.120339
     3  C    0.164521
     4  C   -0.014070
     5  H    0.138636
     6  S   -0.373503
     7  H    0.168743
     8  C    0.250255
     9  S   -0.464852
    10  C    0.201536
    11  C    0.042009
    12  C    0.282045
    13  H    0.154601
    14  S   -0.136572
    15  C   -0.334922
    16  C   -0.160745
    17  H    0.174477
    18  H    0.141104
    19  O   -0.411220
    20  H    0.296005
 Sum of Mulliken charges =  -0.00000
 Mulliken charges with hydrogens summed into heavy atoms:
               1
     1  C   -0.099751
     2  C    0.120339
     3  C    0.164521
     4  C    0.154673
     6  S   -0.373503
     8  C    0.250255
     9  S   -0.464852
    10  C    0.201536
    11  C    0.042009
    12  C    0.436646
    14  S   -0.136572
    15  C   -0.160445
    16  C   -0.019642
    19  O   -0.115215
 Electronic spatial extent (au):  <R**2>=           4398.3688
 Charge=             -0.0000 electrons
 Dipole moment (field-independent basis, Debye):
    X=              1.6363    Y=              1.3424    Z=              1.3829  Tot=              2.5283
 Quadrupole moment (field-independent basis, Debye-Ang):
   XX=            -83.4933   YY=            -92.4494   ZZ=           -106.8196
   XY=              5.2392   XZ=             -2.9032   YZ=              0.8328
 Traceless Quadrupole moment (field-independent basis, Debye-Ang):
   XX=             10.7608   YY=              1.8047   ZZ=            -12.5655
   XY=              5.2392   XZ=             -2.9032   YZ=              0.8328
 Octapole moment (field-independent basis, Debye-Ang**2):
  XXX=             51.7423  YYY=             52.5949  ZZZ=              4.5266  XYY=             30.6062
  XXY=             15.3833  XXZ=             33.5807  XZZ=             -2.3373  YZZ=              3.7478
  YYZ=             15.7941  XYZ=             20.9358
 Hexadecapole moment (field-independent basis, Debye-Ang**3):
 XXXX=          -4233.3140 YYYY=           -867.6193 ZZZZ=           -269.3175 XXXY=             10.2115
 XXXZ=           -105.0946 YYYX=            130.9487 YYYZ=             47.5789 ZZZX=             -5.6094
 ZZZY=              3.9383 XXYY=           -877.1241 XXZZ=           -886.6833 YYZZ=           -207.7875
 XXYZ=             31.9553 YYXZ=             22.9186 ZZXY=             16.5875
 N-N= 1.103191320239D+03 E-N=-6.116714612044D+03  KE= 1.649478831471D+03
 Calling FoFJK, ICntrl=      2127 FMM=F ISym2X=0 I1Cent= 0 IOpClX= 0 NMat=1 NMatS=1 NMatT=0.
 ***** Axes restored to original set *****
 -------------------------------------------------------------------
 Center     Atomic                   Forces (Hartrees/Bohr)
 Number     Number              X              Y              Z
 -------------------------------------------------------------------
      1        6           0.017151217   -0.039649605    0.005372176
      2        6           0.025882701    0.021033629    0.014412395
      3        6          -0.029238293    0.023307087   -0.001341320
      4        6           0.009703913    0.052250519   -0.016165652
      5        1          -0.000480258    0.001789668    0.000535262
      6       16          -0.005113747    0.023767964   -0.005246032
      7        1           0.002792555   -0.003149393   -0.000463754
      8        6           0.043912419    0.040919211    0.012251398
      9       16          -0.007724956    0.002666524    0.014326864
     10        6           0.012722671    0.033244653   -0.001778207
     11        6          -0.035201436   -0.018306633   -0.014884063
     12        6          -0.028578662   -0.040118938   -0.018763445
     13        1          -0.004853541   -0.001680945    0.005217588
     14       16           0.011935006   -0.012975730   -0.007121048
     15        6          -0.040622860   -0.042625346   -0.000886228
     16        6           0.025438592    0.048422075    0.001601976
     17        1           0.004112416    0.001184789    0.005818578
     18        1           0.006418835   -0.001436297    0.006685908
     19        8          -0.029853496    0.017524874   -0.003099739
     20        1           0.021596923   -0.106168104    0.003527342
 -------------------------------------------------------------------
 Cartesian Forces:  Max     0.106168104 RMS     0.025227691

 GradGradGradGradGradGradGradGradGradGradGradGradGradGradGradGradGradGrad
 Berny optimization.
 FormGI is forming the generalized inverse of G from B-inverse, IUseBI=4.
 Internal  Forces:  Max     0.104567587 RMS     0.019767133
 Search for a local minimum.
 Step number   1 out of a maximum of  116
 All quantities printed in internal units (Hartrees-Bohrs-Radians)
 Mixed Optimization -- RFO/linear search
 Second derivative matrix not updated -- first step.
 ITU=  0
     Eigenvalues ---    0.00230   0.00994   0.01056   0.01221   0.01273
     Eigenvalues ---    0.01297   0.01362   0.01420   0.01458   0.01491
     Eigenvalues ---    0.01500   0.01592   0.01596   0.01767   0.02201
     Eigenvalues ---    0.02655   0.15085   0.15688   0.15738   0.15997
     Eigenvalues ---    0.16000   0.16000   0.17987   0.22442   0.22526
     Eigenvalues ---    0.23319   0.23976   0.24118   0.24633   0.24978
     Eigenvalues ---    0.24995   0.26145   0.26567   0.28307   0.28405
     Eigenvalues ---    0.28663   0.30910   0.31285   0.31567   0.34823
     Eigenvalues ---    0.35099   0.35872   0.35950   0.36006   0.36185
     Eigenvalues ---    0.36192   0.36319   0.37598   0.38257   0.38435
     Eigenvalues ---    0.39456   0.39681   0.406471000.000001000.00000
     Eigenvalues --- 1000.000001000.000001000.000001000.000001000.00000
     Eigenvalues --- 1000.000001000.000001000.000001000.000001000.00000
     Eigenvalues --- 1000.000001000.000001000.000001000.000001000.00000
     Eigenvalues --- 1000.000001000.000001000.000001000.000001000.00000
     Eigenvalues --- 1000.000001000.000001000.000001000.000001000.00000
     Eigenvalues --- 1000.000001000.000001000.000001000.000001000.00000
     Eigenvalues --- 1000.000001000.000001000.000001000.000001000.00000
     Eigenvalues --- 1000.000001000.000001000.000001000.000001000.00000
     Eigenvalues --- 1000.000001000.000001000.000001000.000001000.00000
     Eigenvalues --- 1000.000001000.000001000.000001000.000001000.00000
     Eigenvalues --- 1000.00000
 RFO step:  Lambda=-1.06098662D-01 EMin= 2.30000000D-03
 Linear search not attempted -- first point.
 Maximum step size (   0.300) exceeded in Quadratic search.
    -- Step size scaled by   0.584
 Iteration  1 RMS(Cart)=  0.06049986 RMS(Int)=  0.00181966
 Iteration  2 RMS(Cart)=  0.00199272 RMS(Int)=  0.00013473
 Iteration  3 RMS(Cart)=  0.00001316 RMS(Int)=  0.00013441
 Iteration  4 RMS(Cart)=  0.00000000 RMS(Int)=  0.00013441
 Iteration  1 RMS(Cart)=  0.00000080 RMS(Int)=  0.00000032
 Variable       Old X    -DE/DX   Delta X   Delta X   Delta X     New X
                                 (Linear)    (Quad)   (Total)
    R1        2.71917  -0.02340   0.00000  -0.02852  -0.02842   2.69075
    R2        2.71391  -0.05448   0.00000  -0.06325  -0.06323   2.65068
    R3        2.03793   0.00151   0.00000   0.00188   0.00188   2.03981
    R4        2.75906  -0.06344   0.00000  -0.07854  -0.07848   2.68059
    R5        2.90711  -0.08585   0.00000  -0.12774  -0.12774   2.77937
    R6        3.39578  -0.02178   0.00000  -0.03309  -0.03315   3.36263
    R7        2.74954  -0.01316   0.00000  -0.01595  -0.01595   2.73358
    R8        3.28671  -0.01140   0.00000  -0.01460  -0.01469   3.27202
    R9        2.04073  -0.00097   0.00000  -0.00122  -0.00122   2.03951
   R10        3.38274  -0.01129   0.00000  -0.01606  -0.01618   3.36657
   R11        2.76758  -0.06263   0.00000  -0.07813  -0.07819   2.68938
   R12        3.26940  -0.00013   0.00000   0.00071   0.00073   3.27012
   R13        2.72235  -0.03049   0.00000  -0.03660  -0.03636   2.68598
   R14        2.69455  -0.00286   0.00000  -0.00437  -0.00426   2.69028
   R15        2.70753  -0.01272   0.00000  -0.01582  -0.01574   2.69179
   R16        3.27433   0.00163   0.00000   0.00336   0.00336   3.27769
   R17        2.03782   0.00141   0.00000   0.00177   0.00177   2.03959
   R18        3.33525  -0.01208   0.00000  -0.01682  -0.01696   3.31829
   R19        2.73131  -0.05784   0.00000  -0.06893  -0.06898   2.66234
   R20        2.04159  -0.00085   0.00000  -0.00107  -0.00107   2.04053
   R21        2.05514  -0.00442   0.00000  -0.00565  -0.00565   2.04949
   R22        2.18171  -0.10457   0.00000  -0.15701  -0.15701   2.02470
    A1        1.97020  -0.00262   0.00000  -0.00777  -0.00764   1.96256
    A2        2.17330   0.00035   0.00000   0.00178   0.00171   2.17501
    A3        2.13967   0.00227   0.00000   0.00601   0.00594   2.14561
    A4        1.97187   0.01570   0.00000   0.02381   0.02394   1.99582
    A5        2.21760  -0.00384   0.00000  -0.00393  -0.00406   2.21354
    A6        2.06941  -0.01103   0.00000  -0.01612  -0.01628   2.05313
    A7        1.90440  -0.00607   0.00000  -0.00973  -0.00971   1.89469
    A8        2.31891  -0.00861   0.00000  -0.01429  -0.01431   2.30460
    A9        2.05972   0.01467   0.00000   0.02393   0.02391   2.08363
   A10        1.95339  -0.00175   0.00000  -0.00265  -0.00270   1.95069
   A11        2.17580   0.00506   0.00000   0.01051   0.01054   2.18634
   A12        2.15384  -0.00331   0.00000  -0.00786  -0.00784   2.14601
   A13        1.62490  -0.00525   0.00000  -0.00363  -0.00387   1.62102
   A14        2.12876  -0.00314   0.00000  -0.00486  -0.00486   2.12390
   A15        2.24028  -0.00472   0.00000  -0.00747  -0.00747   2.23281
   A16        1.91344   0.00791   0.00000   0.01241   0.01241   1.92585
   A17        1.61899  -0.00681   0.00000  -0.00862  -0.00855   1.61044
   A18        1.96165  -0.01088   0.00000  -0.01537  -0.01557   1.94608
   A19        2.23843   0.00812   0.00000   0.01984   0.01944   2.25788
   A20        1.96494   0.00639   0.00000   0.01034   0.01044   1.97539
   A21        1.96659   0.00810   0.00000   0.01244   0.01244   1.97904
   A22        1.96695  -0.01386   0.00000  -0.02004  -0.02022   1.94673
   A23        2.23656   0.00939   0.00000   0.02227   0.02192   2.25848
   A24        1.96334   0.00168   0.00000  -0.00091  -0.00078   1.96256
   A25        2.16120  -0.00592   0.00000  -0.00990  -0.01004   2.15115
   A26        2.14696   0.00479   0.00000   0.01353   0.01339   2.16035
   A27        1.59310   0.00064   0.00000   0.00277   0.00281   1.59591
   A28        1.95959   0.00156   0.00000   0.00138   0.00131   1.96090
   A29        2.13657  -0.00465   0.00000  -0.00813  -0.00827   2.12830
   A30        2.16992   0.00411   0.00000   0.01139   0.01129   2.18121
   A31        1.93987   0.00527   0.00000   0.00552   0.00563   1.94550
   A32        2.16569   0.00016   0.00000   0.00570   0.00542   2.17111
   A33        2.14127  -0.00358   0.00000  -0.00286  -0.00317   2.13810
   A34        2.32184  -0.06218   0.00000  -0.13655  -0.13655   2.18529
    D1        0.00683  -0.00084   0.00000  -0.00457  -0.00456   0.00227
    D2       -2.89394  -0.00370   0.00000  -0.02118  -0.02126  -2.91520
    D3       -3.13952   0.00049   0.00000   0.00263   0.00263  -3.13689
    D4        0.24290  -0.00238   0.00000  -0.01397  -0.01407   0.22882
    D5       -0.00671   0.00111   0.00000   0.00438   0.00430  -0.00241
    D6       -3.13020   0.00083   0.00000   0.00432   0.00430  -3.12590
    D7        3.13954  -0.00018   0.00000  -0.00265  -0.00274   3.13680
    D8        0.01605  -0.00046   0.00000  -0.00271  -0.00274   0.01331
    D9       -0.00388   0.00031   0.00000   0.00283   0.00280  -0.00108
   D10        3.11762   0.00018   0.00000  -0.00308  -0.00302   3.11460
   D11        2.91927   0.00359   0.00000   0.01913   0.01907   2.93833
   D12       -0.24242   0.00345   0.00000   0.01322   0.01325  -0.22917
   D13       -0.28016   0.00157   0.00000   0.00271   0.00260  -0.27756
   D14        3.11413  -0.00471   0.00000  -0.01962  -0.01951   3.09462
   D15        0.00006   0.00025   0.00000  -0.00033  -0.00032  -0.00026
   D16       -3.12486   0.00063   0.00000   0.00501   0.00509  -3.11977
   D17       -2.35614  -0.00244   0.00000   0.00000  -0.00000  -2.35615
   D18        0.74093  -0.00069   0.00000   0.00285   0.00287   0.74380
   D19        0.76395  -0.00280   0.00000  -0.00667  -0.00669   0.75725
   D20       -2.42217  -0.00105   0.00000  -0.00382  -0.00381  -2.42598
   D21        0.00376  -0.00074   0.00000  -0.00222  -0.00223   0.00153
   D22        3.12751  -0.00036   0.00000  -0.00195  -0.00200   3.12551
   D23        3.13788   0.00106   0.00000   0.00299   0.00298   3.14086
   D24        0.03335  -0.00015   0.00000   0.00099   0.00095   0.03429
   D25       -3.13893  -0.00160   0.00000  -0.00415  -0.00409   3.14016
   D26       -0.15696   0.00267   0.00000   0.01563   0.01560  -0.14137
   D27       -0.03743  -0.00022   0.00000  -0.00188  -0.00178  -0.03922
   D28        2.94453   0.00406   0.00000   0.01791   0.01790   2.96244
   D29       -0.02140   0.00088   0.00000   0.00073   0.00074  -0.02066
   D30       -2.61540  -0.00783   0.00000  -0.03223  -0.03223  -2.64764
   D31        0.00319  -0.00075   0.00000  -0.00145  -0.00140   0.00179
   D32       -2.68824  -0.01016   0.00000  -0.03485  -0.03437  -2.72261
   D33        2.68607   0.00815   0.00000   0.03084   0.03053   2.71660
   D34       -0.00536  -0.00126   0.00000  -0.00256  -0.00244  -0.00780
   D35        2.61319   0.00554   0.00000   0.02927   0.02961   2.64280
   D36       -0.24768  -0.00093   0.00000  -0.00168  -0.00152  -0.24919
   D37        0.02002   0.00118   0.00000   0.00275   0.00267   0.02269
   D38       -2.84085  -0.00528   0.00000  -0.02820  -0.02846  -2.86930
   D39        0.02271   0.00066   0.00000   0.00216   0.00208   0.02479
   D40       -2.96076  -0.00245   0.00000  -0.01498  -0.01524  -2.97601
   D41        2.62864   0.00439   0.00000   0.02783   0.02823   2.65686
   D42       -0.35484   0.00128   0.00000   0.01069   0.01090  -0.34393
   D43       -0.00825   0.00104   0.00000   0.00159   0.00152  -0.00673
   D44       -2.61409  -0.00815   0.00000  -0.03215  -0.03211  -2.64621
   D45        0.01973  -0.00026   0.00000   0.00011   0.00010   0.01984
   D46        2.97142   0.00586   0.00000   0.02700   0.02683   2.99825
   D47       -0.02615  -0.00036   0.00000  -0.00148  -0.00141  -0.02756
   D48        2.83932   0.00667   0.00000   0.03054   0.03061   2.86993
   D49       -2.97356  -0.00549   0.00000  -0.02646  -0.02654  -3.00010
   D50       -0.10809   0.00154   0.00000   0.00557   0.00547  -0.10262
         Item               Value     Threshold  Converged?
 Maximum Force            0.104568     0.000450     NO 
 RMS     Force            0.019858     0.000300     NO 
 Maximum Displacement     0.439103     0.001800     NO 
 RMS     Displacement     0.060609     0.001200     NO 
 Predicted change in Energy=-4.928019D-02
 GradGradGradGradGradGradGradGradGradGradGradGradGradGradGradGradGradGrad

                          Input orientation:                          
 ---------------------------------------------------------------------
 Center     Atomic      Atomic             Coordinates (Angstroms)
 Number     Number       Type             X           Y           Z
 ---------------------------------------------------------------------
      1          6           0       -4.204675   -1.334193   -0.197720
      2          6           0       -2.887487   -0.969940   -0.597438
      3          6           0       -1.963167   -2.045797   -0.615491
      4          6           0       -4.314953   -2.700023    0.102043
      5          1           0       -5.036385   -0.649486   -0.130008
      6         16           0       -2.809102   -3.527730   -0.110883
      7          1           0       -5.220458   -3.198896    0.411867
      8          6           0       -0.565092   -2.115816   -0.980162
      9         16           0        0.070620   -3.428351   -2.003346
     10          6           0        1.677932   -2.790037   -1.942945
     11          6           0        1.733287   -1.588724   -1.185284
     12          6           0        0.470632   -1.195031   -0.656403
     13          1           0        0.288683   -0.241693   -0.184241
     14         16           0        3.088882   -0.608615   -1.643723
     15          6           0        3.598011   -1.792611   -2.836349
     16          6           0        2.729813   -2.900557   -2.895873
     17          1           0        4.392475   -1.590358   -3.539121
     18          1           0        2.735970   -3.602015   -3.723011
     19          8           0       -2.350292    0.393237   -0.725345
     20          1           0       -2.938694    1.287636   -0.767565
 ---------------------------------------------------------------------
                    Distance matrix (angstroms):
                    1          2          3          4          5
     1  C    0.000000
     2  C    1.423882   0.000000
     3  C    2.388570   1.418506   0.000000
     4  C    1.402680   2.349494   2.544358   0.000000
     5  H    1.079422   2.222374   3.410285   2.186096   0.000000
     6  S    2.601302   2.604836   1.779427   1.731480   3.639429
     7  H    2.209192   3.380784   3.604864   1.079262   2.612853
     8  C    3.803908   2.617829   1.446549   3.946381   4.781773
     9  S    5.091555   4.095211   2.823808   4.918981   6.108436
    10  C    6.306374   5.095703   3.946345   6.332831   7.276727
    11  C    6.024903   4.698937   3.767938   6.282786   6.915507
    12  C    4.699814   3.366170   2.578537   5.073663   5.558952
    13  H    4.624284   3.284681   2.917464   5.226740   5.340935
    14  S    7.470834   6.078014   5.352192   7.889135   8.265166
    15  C    8.249509   6.910223   5.993581   8.489554   9.120516
    16  C    7.603989   6.368999   5.287233   7.658749   8.545828
    17  H    9.227219   7.876310   7.010652   9.503090  10.070288
    18  H    8.108220   6.951279   5.844689   8.072182   9.057406
    19  O    2.588656   1.470779   2.472007   3.756690   2.942244
    20  H    2.966719   2.264557   3.476572   4.307173   2.925616
                    6          7          8          9         10
     6  S    0.000000
     7  H    2.489185   0.000000
     8  C    2.790113   4.978277   0.000000
     9  S    3.447331   5.820775   1.781512   0.000000
    10  C    4.902460   7.300692   2.532327   1.730475   0.000000
    11  C    5.054441   7.314241   2.366949   2.611114   1.421361
    12  C    4.061493   6.127412   1.423161   2.638556   2.378404
    13  H    4.516602   6.281006   2.207886   3.675797   3.393687
    14  S    6.756999   8.943162   4.007928   4.146099   2.615132
    15  C    7.175646   9.502312   4.569607   3.976433   2.340882
    16  C    6.231300   8.616088   3.891294   2.854204   1.423637
    17  H    8.207858  10.516948   5.603735   4.941179   3.369830
    18  H    6.618217   8.975771   4.541917   3.176711   2.224272
    19  O    3.995253   4.736510   3.089857   4.700918   5.276587
    20  H    4.861664   5.169766   4.154837   5.729194   6.270740
                   11         12         13         14         15
    11  C    0.000000
    12  C    1.424432   0.000000
    13  H    2.214376   1.079304   0.000000
    14  S    1.734479   2.859006   3.178967   0.000000
    15  C    2.498956   3.858725   4.515603   1.755966   0.000000
    16  C    2.374887   3.609425   4.514602   2.636249   1.408848
    17  H    3.551315   4.883360   5.469482   2.501141   1.079801
    18  H    3.390984   4.508814   5.459292   3.661752   2.191626
    19  O    4.562381   3.238048   2.767692   5.606401   6.679563
    20  H    5.502304   4.218945   3.618712   6.379271   7.516402
                   16         17         18         19         20
    16  C    0.000000
    17  H    2.212427   0.000000
    18  H    1.084544   2.612392   0.000000
    19  O    6.431776   7.570792   7.128681   0.000000
    20  H    7.362244   8.349277   8.052649   1.071425   0.000000
 Stoichiometry    C10H6OS3
 Framework group  C1[X(C10H6OS3)]
 Deg. of freedom    54
 Full point group                 C1      NOp   1
 Largest Abelian subgroup         C1      NOp   1
 Largest concise Abelian subgroup C1      NOp   1
                         Standard orientation:                         
 ---------------------------------------------------------------------
 Center     Atomic      Atomic             Coordinates (Angstroms)
 Number     Number       Type             X           Y           Z
 ---------------------------------------------------------------------
      1          6           0        3.936682    0.852745    0.352561
      2          6           0        2.540346    1.129460    0.385929
      3          6           0        1.720967    0.057202   -0.051153
      4          6           0        4.215454   -0.440009   -0.114970
      5          1           0        4.706813    1.547299    0.651965
      6         16           0        2.768721   -1.307234   -0.506002
      7          1           0        5.201166   -0.868965   -0.210755
      8          6           0        0.284861   -0.088659   -0.145108
      9         16           0       -0.544391   -1.563961    0.411318
     10          6           0       -2.096968   -0.941108   -0.031515
     11          6           0       -1.998248    0.371968   -0.566637
     12          6           0       -0.662231    0.863525   -0.616011
     13          1           0       -0.407179    1.885649   -0.850764
     14         16           0       -3.486729    1.244847   -0.390795
     15          6           0       -4.253820   -0.131689    0.383891
     16          6           0       -3.376029   -1.224502    0.525650
     17          1           0       -5.232479   -0.061359    0.834724
     18          1           0       -3.584938   -2.057763    1.187670
     19          8           0        1.906254    2.444819    0.561849
     20          1           0        2.398902    3.324560    0.924208
 ---------------------------------------------------------------------
 Rotational constants (GHZ):           1.2304894           0.2783541           0.2365447
 Standard basis: 6-311+G(d,p) (5D, 7F)
 There are   382 symmetry adapted cartesian basis functions of A   symmetry.
 There are   368 symmetry adapted basis functions of A   symmetry.
   368 basis functions,   594 primitive gaussians,   382 cartesian basis functions
    61 alpha electrons       61 beta electrons
       nuclear repulsion energy      1115.4951824066 Hartrees.
 NAtoms=   20 NActive=   20 NUniq=   20 SFac= 1.00D+00 NAtFMM=   60 NAOKFM=F Big=F
 Integral buffers will be    131072 words long.
 Raffenetti 2 integral format.
 Two-electron integral symmetry is turned on.
 One-electron integrals computed using PRISM.
 NBasis=   368 RedAO= T EigKep=  2.40D-06  NBF=   368
 NBsUse=   367 1.00D-06 EigRej=  5.13D-07 NBFU=   367
 Initial guess from the checkpoint file:  "/tmp/pbs.4729018[40].pbs/Gau-3063067.chk"
 B after Tr=    -0.000000    0.000000   -0.000000
         Rot=    0.999990   -0.004276    0.000914   -0.000798 Ang=  -0.51 deg.
 ExpMin= 4.05D-02 ExpMax= 9.34D+04 ExpMxC= 3.17D+03 IAcc=3 IRadAn=         5 AccDes= 0.00D+00
 Harris functional with IExCor=  402 and IRadAn=       5 diagonalized for initial guess.
 HarFok:  IExCor=  402 AccDes= 0.00D+00 IRadAn=         5 IDoV= 1 UseB2=F ITyADJ=14
 ICtDFT=  3500011 ScaDFX=  1.000000  1.000000  1.000000  1.000000
 FoFCou: FMM=F IPFlag=           0 FMFlag=      100000 FMFlg1=           0
         NFxFlg=           0 DoJE=T BraDBF=F KetDBF=T FulRan=T
         wScrn=  0.000000 ICntrl=       500 IOpCl=  0 I1Cent=   200000004 NGrid=           0
         NMat0=    1 NMatS0=      1 NMatT0=    0 NMatD0=    1 NMtDS0=    0 NMtDT0=    0
 Petite list used in FoFCou.
 Requested convergence on RMS density matrix=1.00D-08 within 128 cycles.
 Requested convergence on MAX density matrix=1.00D-06.
 Requested convergence on             energy=1.00D-06.
 No special actions if energy rises.
 SCF Done:  E(RB3LYP) =  -1654.58588483     A.U. after   14 cycles
            NFock= 14  Conv=0.77D-08     -V/T= 2.0027
 Calling FoFJK, ICntrl=      2127 FMM=F ISym2X=0 I1Cent= 0 IOpClX= 0 NMat=1 NMatS=1 NMatT=0.
 ***** Axes restored to original set *****
 -------------------------------------------------------------------
 Center     Atomic                   Forces (Hartrees/Bohr)
 Number     Number              X              Y              Z
 -------------------------------------------------------------------
      1        6           0.005265301   -0.024631029    0.003628488
      2        6           0.027662589    0.031987305    0.010301633
      3        6          -0.024806655    0.008314155   -0.001437453
      4        6           0.004913272    0.031448166   -0.010272685
      5        1          -0.000180680    0.001802189    0.000544330
      6       16          -0.002386938    0.010901923   -0.003278486
      7        1           0.002268439   -0.003313633   -0.000097913
      8        6           0.031377027    0.027306014    0.008250838
      9       16          -0.006907530   -0.001940075    0.010522986
     10        6           0.006145590    0.023509598   -0.001999553
     11        6          -0.020471384   -0.011420785   -0.014585893
     12        6          -0.019515624   -0.023710107   -0.010685621
     13        1          -0.002774121   -0.001969489    0.004598790
     14       16           0.011112658   -0.005806756   -0.002107291
     15        6          -0.026547187   -0.026836524   -0.002041127
     16        6           0.016124295    0.030081208   -0.001022574
     17        1           0.003675108    0.001202847    0.005089781
     18        1           0.004842298   -0.002988895    0.005445705
     19        8          -0.033633667    0.013681381   -0.004126893
     20        1           0.023837209   -0.077617496    0.003272937
 -------------------------------------------------------------------
 Cartesian Forces:  Max     0.077617496 RMS     0.018123575

 GradGradGradGradGradGradGradGradGradGradGradGradGradGradGradGradGradGrad
 Berny optimization.
 Using GEDIIS/GDIIS optimizer.
 FormGI is forming the generalized inverse of G from B-inverse, IUseBI=4.
 Internal  Forces:  Max     0.078012990 RMS     0.013300395
 Search for a local minimum.
 Step number   2 out of a maximum of  116
 All quantities printed in internal units (Hartrees-Bohrs-Radians)
 Mixed Optimization -- RFO/linear search
 Update second derivatives using D2CorX and points    1    2
 DE= -5.28D-02 DEPred=-4.93D-02 R= 1.07D+00
 TightC=F SS=  1.41D+00  RLast= 3.19D-01 DXNew= 5.0454D-01 9.5659D-01
 Trust test= 1.07D+00 RLast= 3.19D-01 DXMaxT set to 5.05D-01
 ITU=  1  0
 Use linear search instead of GDIIS.
     Eigenvalues ---    0.00230   0.00996   0.01053   0.01219   0.01272
     Eigenvalues ---    0.01292   0.01343   0.01399   0.01460   0.01485
     Eigenvalues ---    0.01499   0.01592   0.01592   0.01735   0.02113
     Eigenvalues ---    0.02491   0.14370   0.15294   0.15765   0.15832
     Eigenvalues ---    0.15999   0.16026   0.18361   0.21092   0.22460
     Eigenvalues ---    0.22537   0.23405   0.24130   0.24353   0.24967
     Eigenvalues ---    0.25042   0.25555   0.26238   0.26618   0.28449
     Eigenvalues ---    0.28543   0.30891   0.31269   0.31534   0.34873
     Eigenvalues ---    0.35104   0.35950   0.36005   0.36093   0.36183
     Eigenvalues ---    0.36193   0.36389   0.37585   0.38154   0.39303
     Eigenvalues ---    0.39557   0.40567   0.426071000.000001000.00000
     Eigenvalues --- 1000.000001000.000001000.000001000.000001000.00000
     Eigenvalues --- 1000.000001000.000001000.000001000.000001000.00000
     Eigenvalues --- 1000.000001000.000001000.000001000.000001000.00000
     Eigenvalues --- 1000.000001000.000001000.000001000.000001000.00000
     Eigenvalues --- 1000.000001000.000001000.000001000.000001000.00000
     Eigenvalues --- 1000.000001000.000001000.000001000.000001000.00000
     Eigenvalues --- 1000.000001000.000001000.000001000.000001000.00000
     Eigenvalues --- 1000.000001000.000001000.000001000.000001000.00000
     Eigenvalues --- 1000.000001000.000001000.000001000.000001000.00000
     Eigenvalues --- 1000.000001000.000001000.000001000.000001000.00000
     Eigenvalues --- 1000.00000
 RFO step:  Lambda=-8.42317069D-03 EMin= 2.30085612D-03
 Quartic linear search produced a step of  1.39388.
 Iteration  1 RMS(Cart)=  0.08655307 RMS(Int)=  0.01606981
 Iteration  2 RMS(Cart)=  0.01848547 RMS(Int)=  0.00100607
 Iteration  3 RMS(Cart)=  0.00032114 RMS(Int)=  0.00096988
 Iteration  4 RMS(Cart)=  0.00000040 RMS(Int)=  0.00096988
 Iteration  1 RMS(Cart)=  0.00001426 RMS(Int)=  0.00000583
 Iteration  2 RMS(Cart)=  0.00000777 RMS(Int)=  0.00000651
 Iteration  3 RMS(Cart)=  0.00000424 RMS(Int)=  0.00000736
 Iteration  4 RMS(Cart)=  0.00000231 RMS(Int)=  0.00000791
 Iteration  5 RMS(Cart)=  0.00000126 RMS(Int)=  0.00000824
 Iteration  6 RMS(Cart)=  0.00000069 RMS(Int)=  0.00000842
 Variable       Old X    -DE/DX   Delta X   Delta X   Delta X     New X
                                 (Linear)    (Quad)   (Total)
    R1        2.69075  -0.00856  -0.03962   0.03569  -0.00354   2.68721
    R2        2.65068  -0.03005  -0.08814   0.02244  -0.06579   2.58489
    R3        2.03981   0.00132   0.00263   0.00238   0.00500   2.04482
    R4        2.68059  -0.03528  -0.10939   0.02786  -0.08111   2.59948
    R5        2.77937  -0.06276  -0.17805  -0.06062  -0.23868   2.54069
    R6        3.36263  -0.01162  -0.04621   0.02097  -0.02534   3.33729
    R7        2.73358  -0.00357  -0.02224   0.02882   0.00658   2.74017
    R8        3.27202  -0.00582  -0.02047   0.01018  -0.01077   3.26125
    R9        2.03951  -0.00040  -0.00170   0.00136  -0.00034   2.03917
   R10        3.36657  -0.00654  -0.02255   0.00832  -0.01514   3.35143
   R11        2.68938  -0.03806  -0.10899   0.00929  -0.10027   2.58911
   R12        3.27012   0.00273   0.00101   0.01873   0.01998   3.29010
   R13        2.68598  -0.01817  -0.05069   0.00126  -0.04768   2.63830
   R14        2.69028  -0.00002  -0.00594   0.00955   0.00412   2.69440
   R15        2.69179  -0.00466  -0.02195   0.01835  -0.00311   2.68867
   R16        3.27769   0.00342   0.00468   0.01574   0.02051   3.29820
   R17        2.03959   0.00074   0.00246  -0.00095   0.00152   2.04110
   R18        3.31829  -0.00676  -0.02364   0.00986  -0.01460   3.30369
   R19        2.66234  -0.03448  -0.09615   0.01087  -0.08569   2.57664
   R20        2.04053  -0.00038  -0.00149   0.00097  -0.00052   2.04001
   R21        2.04949  -0.00219  -0.00788   0.00390  -0.00398   2.04552
   R22        2.02470  -0.07801  -0.21886  -0.08675  -0.30561   1.71909
    A1        1.96256  -0.00097  -0.01065   0.00928  -0.00076   1.96180
    A2        2.17501  -0.00061   0.00239  -0.01079  -0.00873   2.16629
    A3        2.14561   0.00158   0.00828   0.00152   0.00948   2.15509
    A4        1.99582   0.00598   0.03338  -0.03458  -0.00207   1.99374
    A5        2.21354  -0.00393  -0.00566  -0.00888  -0.01729   2.19625
    A6        2.05313  -0.00128  -0.02269   0.06052   0.03545   2.08859
    A7        1.89469  -0.00064  -0.01353   0.02831   0.01548   1.91017
    A8        2.30460  -0.00840  -0.01995  -0.02424  -0.04455   2.26005
    A9        2.08363   0.00904   0.03332  -0.00382   0.02912   2.11275
   A10        1.95069  -0.00016  -0.00376   0.00946   0.00553   1.95622
   A11        2.18634   0.00415   0.01469   0.01189   0.02665   2.21299
   A12        2.14601  -0.00400  -0.01092  -0.02149  -0.03233   2.11367
   A13        1.62102  -0.00422  -0.00540  -0.01253  -0.01846   1.60257
   A14        2.12390  -0.00311  -0.00677  -0.01021  -0.01690   2.10700
   A15        2.23281  -0.00217  -0.01042   0.00798  -0.00235   2.23046
   A16        1.92585   0.00533   0.01730   0.00238   0.01949   1.94535
   A17        1.61044  -0.00445  -0.01192  -0.00471  -0.01606   1.59438
   A18        1.94608  -0.00630  -0.02170   0.00879  -0.01385   1.93223
   A19        2.25788   0.00591   0.02710   0.01492   0.03888   2.29676
   A20        1.97539   0.00341   0.01456  -0.00649   0.00794   1.98333
   A21        1.97904   0.00398   0.01735  -0.00866   0.00806   1.98710
   A22        1.94673  -0.00759  -0.02819   0.01573  -0.01373   1.93300
   A23        2.25848   0.00665   0.03056   0.01413   0.04139   2.29987
   A24        1.96256   0.00145  -0.00109   0.00331   0.00306   1.96562
   A25        2.15115  -0.00385  -0.01400   0.00399  -0.01086   2.14030
   A26        2.16035   0.00285   0.01866  -0.00578   0.01204   2.17239
   A27        1.59591  -0.00080   0.00391  -0.01600  -0.01129   1.58462
   A28        1.96090   0.00212   0.00182   0.01403   0.01519   1.97609
   A29        2.12830  -0.00468  -0.01153  -0.01824  -0.03098   2.09731
   A30        2.18121   0.00337   0.01573   0.00972   0.02446   2.20567
   A31        1.94550   0.00287   0.00784  -0.00648   0.00212   1.94762
   A32        2.17111  -0.00015   0.00756  -0.00545   0.00052   2.17163
   A33        2.13810  -0.00129  -0.00441   0.01560   0.00967   2.14778
   A34        2.18529  -0.04594  -0.19034  -0.04165  -0.23198   1.95331
    D1        0.00227  -0.00034  -0.00636   0.02843   0.02204   0.02432
    D2       -2.91520  -0.00451  -0.02964  -0.06996  -0.09801  -3.01321
    D3       -3.13689   0.00082   0.00366   0.02134   0.02460  -3.11229
    D4        0.22882  -0.00335  -0.01962  -0.07705  -0.09545   0.13337
    D5       -0.00241   0.00055   0.00600  -0.02532  -0.01909  -0.02150
    D6       -3.12590   0.00055   0.00599  -0.01681  -0.01084  -3.13674
    D7        3.13680  -0.00059  -0.00381  -0.01838  -0.02166   3.11514
    D8        0.01331  -0.00059  -0.00382  -0.00987  -0.01341  -0.00009
    D9       -0.00108  -0.00000   0.00391  -0.01812  -0.01440  -0.01548
   D10        3.11460   0.00019  -0.00420  -0.00643  -0.01102   3.10359
   D11        2.93833   0.00328   0.02658   0.06250   0.09071   3.02904
   D12       -0.22917   0.00348   0.01846   0.07419   0.09409  -0.13508
   D13       -0.27756   0.00123   0.00362   0.06881   0.07259  -0.20498
   D14        3.09462  -0.00386  -0.02719  -0.02141  -0.04877   3.04585
   D15       -0.00026   0.00027  -0.00044   0.00299   0.00299   0.00274
   D16       -3.11977   0.00038   0.00709  -0.00653   0.00120  -3.11856
   D17       -2.35615  -0.00248  -0.00000   0.00000   0.00000  -2.35614
   D18        0.74380  -0.00073   0.00401   0.00517   0.00941   0.75321
   D19        0.75725  -0.00242  -0.00933   0.01305   0.00340   0.76065
   D20       -2.42598  -0.00067  -0.00532   0.01822   0.01280  -2.41318
   D21        0.00153  -0.00047  -0.00310   0.01275   0.00938   0.01092
   D22        3.12551  -0.00037  -0.00279   0.00486   0.00235   3.12786
   D23        3.14086   0.00092   0.00415  -0.01763  -0.01363   3.12723
   D24        0.03429  -0.00042   0.00132  -0.02216  -0.02128   0.01301
   D25        3.14016  -0.00116  -0.00570   0.02364   0.01810  -3.12492
   D26       -0.14137   0.00258   0.02174   0.03474   0.05634  -0.08503
   D27       -0.03922   0.00028  -0.00249   0.02806   0.02611  -0.01311
   D28        2.96244   0.00402   0.02496   0.03916   0.06435   3.02679
   D29       -0.02066   0.00069   0.00103   0.01041   0.01129  -0.00938
   D30       -2.64764  -0.00659  -0.04493  -0.02710  -0.07272  -2.72036
   D31        0.00179  -0.00038  -0.00195   0.00402   0.00206   0.00386
   D32       -2.72261  -0.00814  -0.04791  -0.04145  -0.08643  -2.80904
   D33        2.71660   0.00701   0.04256   0.04101   0.08112   2.79772
   D34       -0.00780  -0.00075  -0.00339  -0.00446  -0.00738  -0.01518
   D35        2.64280   0.00566   0.04127   0.02488   0.06764   2.71043
   D36       -0.24919  -0.00034  -0.00212   0.00682   0.00575  -0.24344
   D37        0.02269   0.00053   0.00372  -0.01682  -0.01355   0.00914
   D38       -2.86930  -0.00547  -0.03966  -0.03488  -0.07543  -2.94474
   D39        0.02479   0.00008   0.00290  -0.02120  -0.01864   0.00615
   D40       -2.97601  -0.00306  -0.02125  -0.03328  -0.05555  -3.03156
   D41        2.65686   0.00514   0.03935   0.03311   0.07417   2.73103
   D42       -0.34393   0.00200   0.01520   0.02103   0.03726  -0.30667
   D43       -0.00673   0.00077   0.00212   0.01830   0.01985   0.01312
   D44       -2.64621  -0.00679  -0.04476  -0.02959  -0.07526  -2.72146
   D45        0.01984  -0.00041   0.00014  -0.02806  -0.02813  -0.00829
   D46        2.99825   0.00512   0.03740   0.00807   0.04375   3.04200
   D47       -0.02756   0.00008  -0.00196   0.03022   0.02875   0.00120
   D48        2.86993   0.00611   0.04267   0.04446   0.08814   2.95808
   D49       -3.00010  -0.00476  -0.03700  -0.00413  -0.04223  -3.04233
   D50       -0.10262   0.00128   0.00763   0.01011   0.01716  -0.08546
         Item               Value     Threshold  Converged?
 Maximum Force            0.078013     0.000450     NO 
 RMS     Force            0.013359     0.000300     NO 
 Maximum Displacement     0.735698     0.001800     NO 
 RMS     Displacement     0.095648     0.001200     NO 
 Predicted change in Energy=-4.907098D-02
 GradGradGradGradGradGradGradGradGradGradGradGradGradGradGradGradGradGrad

                          Input orientation:                          
 ---------------------------------------------------------------------
 Center     Atomic      Atomic             Coordinates (Angstroms)
 Number     Number       Type             X           Y           Z
 ---------------------------------------------------------------------
      1          6           0       -4.149150   -1.281086   -0.176754
      2          6           0       -2.820373   -0.959466   -0.567938
      3          6           0       -1.964779   -2.036133   -0.599289
      4          6           0       -4.298263   -2.607796    0.121006
      5          1           0       -4.956794   -0.562937   -0.123382
      6         16           0       -2.832988   -3.491650   -0.102801
      7          1           0       -5.204239   -3.101359    0.437271
      8          6           0       -0.568676   -2.093603   -0.986834
      9         16           0        0.026199   -3.389217   -2.041734
     10          6           0        1.637273   -2.729820   -2.012107
     11          6           0        1.681869   -1.570109   -1.236056
     12          6           0        0.429727   -1.213195   -0.662413
     13          1           0        0.246165   -0.300467   -0.114818
     14         16           0        3.097246   -0.623542   -1.619340
     15          6           0        3.582383   -1.792673   -2.825206
     16          6           0        2.725576   -2.848580   -2.925590
     17          1           0        4.434210   -1.596901   -3.458801
     18          1           0        2.777001   -3.576804   -3.724791
     19          8           0       -2.340937    0.278016   -0.783329
     20          1           0       -3.005449    0.898322   -0.818096
 ---------------------------------------------------------------------
                    Distance matrix (angstroms):
                    1          2          3          4          5
     1  C    0.000000
     2  C    1.422010   0.000000
     3  C    2.349491   1.375586   0.000000
     4  C    1.367865   2.318575   2.508141   0.000000
     5  H    1.082070   2.217918   3.368820   2.162137   0.000000
     6  S    2.573780   2.574580   1.766017   1.725780   3.617780
     7  H    2.191719   3.358715   3.564165   1.079084   2.611350
     8  C    3.759815   2.555754   1.450033   3.924477   4.726951
     9  S    5.035465   4.022280   2.806328   4.897860   6.041370
    10  C    6.240997   5.009031   3.930908   6.308380   7.193357
    11  C    5.933501   4.592325   3.731044   6.219356   6.806194
    12  C    4.605061   3.261357   2.532759   4.991246   5.452338
    13  H    4.503804   3.169109   2.852284   5.102079   5.209582
    14  S    7.417794   6.019676   5.353504   7.852364   8.192015
    15  C    8.188567   6.839940   5.982055   8.452761   9.040445
    16  C    7.568024   6.315443   5.298223   7.659898   8.490897
    17  H    9.194871   7.835330   7.022592   9.491734  10.019235
    18  H    8.113597   6.938788   5.884463   8.111011   9.047935
    19  O    2.463406   1.344476   2.351734   3.602340   2.825852
    20  H    2.543460   1.883669   3.121201   3.853069   2.534887
                    6          7          8          9         10
     6  S    0.000000
     7  H    2.463095   0.000000
     8  C    2.804132   4.952988   0.000000
     9  S    3.456140   5.795327   1.773501   0.000000
    10  C    4.920272   7.276249   2.514393   1.741047   0.000000
    11  C    5.035923   7.250051   2.324029   2.588342   1.396128
    12  C    4.018685   6.042850   1.370100   2.607764   2.362201
    13  H    4.434521   6.152781   2.154000   3.647159   3.381811
    14  S    6.759705   8.904150   4.000016   4.154360   2.592719
    15  C    7.173214   9.463676   4.549886   3.976082   2.307125
    16  C    6.267321   8.617117   3.896262   2.891388   1.425818
    17  H    8.225873  10.504404   5.602340   4.964982   3.346533
    18  H    6.678177   9.013824   4.570542   3.230292   2.224780
    19  O    3.862074   4.594403   2.967643   4.542633   5.136451
    20  H    4.451207   4.733717   3.862376   5.391768   6.011984
                   11         12         13         14         15
    11  C    0.000000
    12  C    1.422784   0.000000
    13  H    2.220453   1.080106   0.000000
    14  S    1.745333   2.894660   3.239849   0.000000
    15  C    2.487346   3.866874   4.550081   1.748239   0.000000
    16  C    2.361850   3.614882   4.532195   2.606764   1.363501
    17  H    3.537895   4.899276   5.513864   2.473565   1.079527
    18  H    3.379341   4.524876   5.492852   3.641049   2.154302
    19  O    4.450112   3.148795   2.733981   5.575442   6.598692
    20  H    5.314018   4.035241   3.536197   6.340421   7.393881
                   16         17         18         19         20
    16  C    0.000000
    17  H    2.184135   0.000000
    18  H    1.082441   2.595594   0.000000
    19  O    6.327277   7.521708   7.050186   0.000000
[...]
 Stoichiometry    C10H6OS3
 Framework group  C1[X(C10H6OS3)]
 Deg. of freedom    54
 Full point group                 C1      NOp   1
 Largest Abelian subgroup         C1      NOp   1
 Largest concise Abelian subgroup C1      NOp   1
                         Standard orientation:                         
 ---------------------------------------------------------------------
 Center     Atomic      Atomic             Coordinates (Angstroms)
 Number     Number       Type             X           Y           Z
 ---------------------------------------------------------------------
      1          6           0        3.925689    0.840405    0.213585
      2          6           0        2.526422    1.101641    0.297705
      3          6           0        1.735759    0.043335   -0.095860
      4          6           0        4.194660   -0.420162   -0.234857
      5          1           0        4.689883    1.560511    0.480178
      6         16           0        2.751859   -1.302656   -0.585579
      7          1           0        5.158724   -0.878534   -0.391135
      8          6           0        0.288984   -0.045686   -0.083058
      9         16           0       -0.515047   -1.503725    0.530318
     10          6           0       -2.082235   -0.789249    0.270482
     11          6           0       -1.955543    0.502145   -0.225230
     12          6           0       -0.616578    0.927085   -0.428717
     13          1           0       -0.317818    1.892494   -0.810295
     14         16           0       -3.525400    1.218191   -0.479745
     15          6           0       -4.309184   -0.239836    0.085743
     16          6           0       -3.427945   -1.218314    0.447184
     17          1           0       -5.387354   -0.277762    0.116140
     18          1           0       -3.729610   -2.187059    0.820540
     19          8           0        1.981850    2.282413    0.719481
     20          1           0        2.668611    2.833884    1.106949
 ---------------------------------------------------------------------
 Rotational constants (GHZ):           1.3005330           0.2755787           0.2374827

 **********************************************************************

            Population analysis using the SCF Density.

 **********************************************************************

 Orbital symmetries:
       Occupied  (A) (A) (A) (A) (A) (A) (A) (A) (A) (A) (A) (A)
                 (A) (A) (A) (A) (A) (A) (A) (A) (A) (A) (A) (A)
                 (A) (A) (A) (A) (A) (A) (A) (A) (A) (A) (A) (A)
                 (A) (A) (A) (A) (A) (A) (A) (A) (A) (A) (A) (A)
                 (A) (A) (A) (A) (A) (A) (A) (A) (A) (A) (A) (A)
                 (A)
       Virtual   (A) (A) (A) (A) (A) (A) (A) (A) (A) (A) (A) (A)
                 (A) (A) (A) (A) (A) (A) (A) (A) (A) (A) (A) (A)
                 (A) (A) (A) (A) (A) (A) (A) (A) (A) (A) (A) (A)
                 (A) (A) (A) (A) (A) (A) (A) (A) (A) (A) (A) (A)
                 (A) (A) (A) (A) (A) (A) (A) (A) (A) (A) (A) (A)
                 (A) (A) (A) (A) (A) (A) (A) (A) (A) (A) (A) (A)
                 (A) (A) (A) (A) (A) (A) (A) (A) (A) (A) (A) (A)
                 (A) (A) (A) (A) (A) (A) (A) (A) (A) (A) (A) (A)
                 (A) (A) (A) (A) (A) (A) (A) (A) (A) (A) (A) (A)
                 (A) (A) (A) (A) (A) (A) (A) (A) (A) (A) (A) (A)
                 (A) (A) (A) (A) (A) (A) (A) (A) (A) (A) (A) (A)
                 (A) (A) (A) (A) (A) (A) (A) (A) (A) (A) (A) (A)
                 (A) (A) (A) (A) (A) (A) (A) (A) (A) (A) (A) (A)
                 (A) (A) (A) (A) (A) (A) (A) (A) (A) (A) (A) (A)
                 (A) (A) (A) (A) (A) (A) (A) (A) (A) (A) (A) (A)
                 (A) (A) (A) (A) (A) (A) (A) (A) (A) (A) (A) (A)
                 (A) (A) (A) (A) (A) (A) (A) (A) (A) (A) (A) (A)
                 (A) (A) (A) (A) (A) (A) (A) (A) (A) (A) (A) (A)
                 (A) (A) (A) (A) (A) (A) (A) (A) (A) (A) (A) (A)
                 (A) (A) (A) (A) (A) (A) (A) (A) (A) (A) (A) (A)
                 (A) (A) (A) (A) (A) (A) (A) (A) (A) (A) (A) (A)
                 (A) (A) (A) (A) (A) (A) (A) (A) (A) (A) (A) (A)
                 (A) (A) (A) (A) (A) (A) (A) (A) (A) (A) (A) (A)
                 (A) (A) (A) (A) (A) (A) (A) (A) (A) (A) (A) (A)
                 (A) (A) (A) (A) (A) (A) (A) (A) (A) (A) (A) (A)
                 (A) (A) (A) (A) (A)
 The electronic state is 1-A.
 Alpha  occ. eigenvalues --  -88.88579 -88.88016 -88.87873 -19.16969 -10.24921
 Alpha  occ. eigenvalues --  -10.21976 -10.21433 -10.21348 -10.20711 -10.20655
 Alpha  occ. eigenvalues --  -10.20625 -10.19292 -10.18967 -10.18654  -7.97178
 Alpha  occ. eigenvalues --   -7.96590  -7.96451  -5.93481  -5.93106  -5.92902
 Alpha  occ. eigenvalues --   -5.92771  -5.92749  -5.92538  -5.92411  -5.92139
 Alpha  occ. eigenvalues --   -5.91974  -1.07983  -0.91241  -0.89332  -0.84635
 Alpha  occ. eigenvalues --   -0.77047  -0.76140  -0.74313  -0.70977  -0.70094
 Alpha  occ. eigenvalues --   -0.61881  -0.60980  -0.57068  -0.55984  -0.53859
 Alpha  occ. eigenvalues --   -0.51822  -0.49281  -0.48493  -0.45383  -0.43672
 Alpha  occ. eigenvalues --   -0.43484  -0.41258  -0.40840  -0.39723  -0.39018
 Alpha  occ. eigenvalues --   -0.37817  -0.36760  -0.36022  -0.35874  -0.33941
 Alpha  occ. eigenvalues --   -0.33688  -0.28744  -0.26469  -0.24678  -0.23322
 Alpha  occ. eigenvalues --   -0.20499
 Alpha virt. eigenvalues --   -0.05391  -0.02519  -0.01505  -0.00331   0.00269
 Alpha virt. eigenvalues --    0.00471   0.01053   0.01611   0.02110   0.02712
 Alpha virt. eigenvalues --    0.03206   0.03771   0.03874   0.04680   0.04724
 Alpha virt. eigenvalues --    0.05306   0.05546   0.05978   0.06514   0.06860
 Alpha virt. eigenvalues --    0.07163   0.07918   0.08488   0.09117   0.09761
 Alpha virt. eigenvalues --    0.09963   0.10584   0.10841   0.11408   0.11888
 Alpha virt. eigenvalues --    0.12436   0.12807   0.13276   0.13477   0.14025
 Alpha virt. eigenvalues --    0.14294   0.14512   0.15012   0.15184   0.15742
 Alpha virt. eigenvalues --    0.16097   0.16890   0.17369   0.17639   0.18122
 Alpha virt. eigenvalues --    0.18430   0.18820   0.19296   0.19446   0.19869
 Alpha virt. eigenvalues --    0.19962   0.20499   0.20765   0.21000   0.21964
 Alpha virt. eigenvalues --    0.22571   0.22967   0.23076   0.23466   0.23877
 Alpha virt. eigenvalues --    0.24869   0.25032   0.25541   0.26335   0.26715
 Alpha virt. eigenvalues --    0.27243   0.27322   0.27557   0.29068   0.30380
 Alpha virt. eigenvalues --    0.30833   0.31585   0.32636   0.33287   0.33680
 Alpha virt. eigenvalues --    0.34061   0.34974   0.35205   0.35966   0.36844
 Alpha virt. eigenvalues --    0.37573   0.38837   0.39950   0.40877   0.42107
 Alpha virt. eigenvalues --    0.44019   0.44465   0.44699   0.46259   0.47234
 Alpha virt. eigenvalues --    0.49466   0.50821   0.52071   0.53490   0.54171
 Alpha virt. eigenvalues --    0.55629   0.55746   0.56233   0.56871   0.58385
 Alpha virt. eigenvalues --    0.58976   0.59355   0.60714   0.61142   0.62915
 Alpha virt. eigenvalues --    0.63181   0.64162   0.64854   0.66102   0.66933
 Alpha virt. eigenvalues --    0.69818   0.70604   0.71090   0.71706   0.72513
 Alpha virt. eigenvalues --    0.73346   0.73755   0.74203   0.74897   0.76406
 Alpha virt. eigenvalues --    0.76793   0.78181   0.78941   0.79492   0.80024
 Alpha virt. eigenvalues --    0.81678   0.82462   0.82743   0.83282   0.84437
 Alpha virt. eigenvalues --    0.84831   0.85628   0.86313   0.86916   0.87486
 Alpha virt. eigenvalues --    0.88436   0.89424   0.90013   0.92544   0.93732
 Alpha virt. eigenvalues --    0.94812   0.96231   0.97147   0.97922   1.00037
 Alpha virt. eigenvalues --    1.01921   1.02077   1.03779   1.04169   1.05110
 Alpha virt. eigenvalues --    1.05952   1.07298   1.07922   1.09731   1.11853
 Alpha virt. eigenvalues --    1.12010   1.14147   1.15868   1.16972   1.18457
 Alpha virt. eigenvalues --    1.21605   1.27137   1.27945   1.31257   1.34505
 Alpha virt. eigenvalues --    1.34974   1.35714   1.37994   1.40370   1.42136
 Alpha virt. eigenvalues --    1.45040   1.49763   1.53006   1.54439   1.56592
 Alpha virt. eigenvalues --    1.57222   1.58292   1.59865   1.60590   1.60911
 Alpha virt. eigenvalues --    1.63347   1.64744   1.66915   1.69139   1.70003
 Alpha virt. eigenvalues --    1.72410   1.73035   1.73694   1.74435   1.76078
 Alpha virt. eigenvalues --    1.77536   1.78624   1.79841   1.81806   1.84706
 Alpha virt. eigenvalues --    1.84891   1.85468   1.88635   1.89063   1.91057
 Alpha virt. eigenvalues --    1.92746   1.93218   1.95673   1.96643   1.99459
 Alpha virt. eigenvalues --    2.01155   2.01798   2.03461   2.05878   2.06878
 Alpha virt. eigenvalues --    2.07747   2.08838   2.09030   2.10580   2.12242
 Alpha virt. eigenvalues --    2.14144   2.15058   2.17686   2.18347   2.19803
 Alpha virt. eigenvalues --    2.21412   2.28355   2.30659   2.37225   2.40910
 Alpha virt. eigenvalues --    2.41404   2.46616   2.50565   2.52941   2.57443
 Alpha virt. eigenvalues --    2.61029   2.62514   2.64545   2.69318   2.69760
 Alpha virt. eigenvalues --    2.70826   2.71316   2.72364   2.72920   2.74150
 Alpha virt. eigenvalues --    2.76593   2.79312   2.81657   2.85687   2.89717
 Alpha virt. eigenvalues --    2.93033   2.95171   2.95941   2.97470   3.02074
 Alpha virt. eigenvalues --    3.05791   3.08005   3.11646   3.11662   3.16677
 Alpha virt. eigenvalues --    3.17285   3.20134   3.25842   3.28362   3.29816
 Alpha virt. eigenvalues --    3.34238   3.37001   3.44172   3.46587   3.48118
 Alpha virt. eigenvalues --    3.52356   3.57444   3.68582   3.87606   3.92388
 Alpha virt. eigenvalues --    3.97144   4.05114   4.10487   4.20340   4.36448
 Alpha virt. eigenvalues --    4.55542   5.00563   5.44859   5.73333   7.97645
 Alpha virt. eigenvalues --    7.99038   8.00248  17.28567  17.29154  17.30740
 Alpha virt. eigenvalues --   17.45145  17.46125  17.50071  17.51997  17.54837
 Alpha virt. eigenvalues --   17.57263  23.46943  23.63014  23.77725  23.81120
 Alpha virt. eigenvalues --   23.86162  24.02446  24.04650  24.12252  24.14374
 Alpha virt. eigenvalues --   24.15386  49.93315 189.14499 189.15702 189.17250
          Condensed to atoms (all electrons):
               1          2          3          4          5          6
     1  C    8.446577  -3.302884   0.850450  -0.991898   0.385220   0.588064
     2  C   -3.302884  15.219806  -3.868335   2.284189  -0.058529  -2.331880
     3  C    0.850450  -3.868335  10.349047  -1.239878  -0.019587   0.389600
     4  C   -0.991898   2.284189  -1.239878   6.358449   0.038714  -0.308372
     5  H    0.385220  -0.058529  -0.019587   0.038714   0.537073   0.009244
     6  S    0.588064  -2.331880   0.389600  -0.308372   0.009244  17.363208
     7  H    0.035991  -0.030896   0.028341   0.358654  -0.005196  -0.027317
     8  C    0.166024  -1.578185   0.129430  -0.279618  -0.007572   0.508129
     9  S   -0.073217   0.508506   0.240857   0.088479  -0.000390  -0.043919
    10  C    0.042598  -0.353012  -0.335621  -0.017340  -0.000266  -0.004259
    11  C   -0.116453   0.323937  -0.091737   0.055593   0.000185  -0.025368
    12  C    0.252237  -0.598505  -1.169020  -0.164588   0.003064   0.178495
    13  H    0.003813   0.067066  -0.016336   0.004195  -0.000001  -0.007916
    14  S   -0.009745  -0.011706  -0.027545   0.002999   0.000004   0.001392
    15  C    0.001655  -0.005245  -0.029492  -0.000531  -0.000001  -0.000538
    16  C   -0.009660  -0.089344   0.302562   0.002128  -0.000017  -0.001228
    17  H   -0.000001  -0.000020  -0.000051  -0.000000   0.000000   0.000001
    18  H    0.000005  -0.000120  -0.001291  -0.000001   0.000000   0.000097
    19  O    0.062337  -0.016151  -0.074578  -0.022894  -0.006409   0.047878
    20  H   -0.159701   0.135416   0.034644   0.001216   0.003940  -0.009366
               7          8          9         10         11         12
     1  C    0.035991   0.166024  -0.073217   0.042598  -0.116453   0.252237
     2  C   -0.030896  -1.578185   0.508506  -0.353012   0.323937  -0.598505
     3  C    0.028341   0.129430   0.240857  -0.335621  -0.091737  -1.169020
     4  C    0.358654  -0.279618   0.088479  -0.017340   0.055593  -0.164588
     5  H   -0.005196  -0.007572  -0.000390  -0.000266   0.000185   0.003064
     6  S   -0.027317   0.508129  -0.043919  -0.004259  -0.025368   0.178495
     7  H    0.480839  -0.003273  -0.000630  -0.000040  -0.000184   0.000178
     8  C   -0.003273  11.332722   0.015674  -0.631217  -2.567024  -0.800705
     9  S   -0.000630   0.015674  17.771643  -0.427833  -0.332809  -0.985979
    10  C   -0.000040  -0.631217  -0.427833  14.415332  -4.916357   0.554442
    11  C   -0.000184  -2.567024  -0.332809  -4.916357  12.377832   0.605830
    12  C    0.000178  -0.800705  -0.985979   0.554442   0.605830   8.862421
    13  H   -0.000000  -0.051979   0.011356  -0.069709   0.020435   0.370456
    14  S   -0.000002  -1.025401   0.167909   0.293645  -0.345313  -0.228572
    15  C   -0.000000  -0.127254  -0.029835   0.407536  -0.742338   0.003417
    16  C   -0.000002   0.388081  -0.405552  -3.376158   1.653630  -0.900008
    17  H    0.000000   0.005462  -0.001080   0.026379   0.021837   0.000716
    18  H    0.000000  -0.009454   0.019305   0.018717  -0.070034   0.000936
    19  O   -0.000352  -0.005953  -0.028681   0.000888  -0.007016   0.057780
    20  H   -0.000019   0.019765  -0.000011   0.000335   0.001018  -0.001043
              13         14         15         16         17         18
     1  C    0.003813  -0.009745   0.001655  -0.009660  -0.000001   0.000005
     2  C    0.067066  -0.011706  -0.005245  -0.089344  -0.000020  -0.000120
     3  C   -0.016336  -0.027545  -0.029492   0.302562  -0.000051  -0.001291
     4  C    0.004195   0.002999  -0.000531   0.002128  -0.000000  -0.000001
     5  H   -0.000001   0.000004  -0.000001  -0.000017   0.000000   0.000000
     6  S   -0.007916   0.001392  -0.000538  -0.001228   0.000001   0.000097
     7  H   -0.000000  -0.000002  -0.000000  -0.000002   0.000000   0.000000
     8  C   -0.051979  -1.025401  -0.127254   0.388081   0.005462  -0.009454
     9  S    0.011356   0.167909  -0.029835  -0.405552  -0.001080   0.019305
    10  C   -0.069709   0.293645   0.407536  -3.376158   0.026379   0.018717
    11  C    0.020435  -0.345313  -0.742338   1.653630   0.021837  -0.070034
    12  C    0.370456  -0.228572   0.003417  -0.900008   0.000716   0.000936
    13  H    0.516153   0.015203  -0.001433   0.005301  -0.000005   0.000005
    14  S    0.015203  17.442313   0.379380  -0.221787  -0.042093   0.012861
    15  C   -0.001433   0.379380   5.609330   0.258309   0.383999   0.024646
    16  C    0.005301  -0.221787   0.258309   8.373441  -0.035716   0.352408
    17  H   -0.000005  -0.042093   0.383999  -0.035716   0.479462  -0.004921
    18  H    0.000005   0.012861   0.024646   0.352408  -0.004921   0.522659
    19  O   -0.005668   0.000024   0.000259  -0.001759  -0.000000   0.000000
    20  H   -0.000146  -0.000115   0.000007   0.000045  -0.000000   0.000000
              19         20
     1  C    0.062337  -0.159701
     2  C   -0.016151   0.135416
     3  C   -0.074578   0.034644
     4  C   -0.022894   0.001216
     5  H   -0.006409   0.003940
     6  S    0.047878  -0.009366
     7  H   -0.000352  -0.000019
     8  C   -0.005953   0.019765
     9  S   -0.028681  -0.000011
    10  C    0.000888   0.000335
    11  C   -0.007016   0.001018
    12  C    0.057780  -0.001043
    13  H   -0.005668  -0.000146
    14  S    0.000024  -0.000115
    15  C    0.000259   0.000007
    16  C   -0.001759   0.000045
    17  H   -0.000000  -0.000000
    18  H    0.000000   0.000000
    19  O    8.044050   0.204592
    20  H    0.204592   0.515798
 Mulliken charges:
               1
     1  C   -0.171409
     2  C   -0.294108
     3  C    0.548541
     4  C   -0.169494
     5  H    0.120523
     6  S   -0.325945
     7  H    0.163910
     8  C    0.522348
     9  S   -0.493795
    10  C    0.371939
    11  C    0.154336
    12  C   -0.041556
    13  H    0.139208
    14  S   -0.403450
    15  C   -0.131871
    16  C   -0.294673
    17  H    0.166033
    18  H    0.134184
    19  O   -0.248347
    20  H    0.253626
 Sum of Mulliken charges =  -0.00000
 Mulliken charges with hydrogens summed into heavy atoms:
               1
     1  C   -0.050887
     2  C   -0.294108
     3  C    0.548541
     4  C   -0.005584
     6  S   -0.325945
     8  C    0.522348
     9  S   -0.493795
    10  C    0.371939
    11  C    0.154336
    12  C    0.097653
    14  S   -0.403450
    15  C    0.034162
    16  C   -0.160489
    19  O    0.005279
 Electronic spatial extent (au):  <R**2>=           4310.4342
 Charge=              0.0000 electrons
 Dipole moment (field-independent basis, Debye):
    X=              2.0010    Y=              0.9554    Z=              0.6390  Tot=              2.3076
 Quadrupole moment (field-independent basis, Debye-Ang):
   XX=            -79.9413   YY=            -95.8487   ZZ=           -106.3984
   XY=              8.6644   XZ=              1.4043   YZ=              0.8961
 Traceless Quadrupole moment (field-independent basis, Debye-Ang):
   XX=             14.1215   YY=             -1.7859   ZZ=            -12.3356
   XY=              8.6644   XZ=              1.4043   YZ=              0.8961
 Octapole moment (field-independent basis, Debye-Ang**2):
  XXX=             38.7452  YYY=             23.2603  ZZZ=              4.7029  XYY=             21.6922
  XXY=              7.8008  XXZ=             15.1049  XZZ=              7.1134  YZZ=              6.8626
  YYZ=             10.2603  XYZ=             20.0666
 Hexadecapole moment (field-independent basis, Debye-Ang**3):
 XXXX=          -4085.1637 YYYY=           -894.2398 ZZZZ=           -257.8470 XXXY=            100.3955
 XXXZ=              4.3470 YYYX=             97.8989 YYYZ=             24.8364 ZZZX=             14.9655
 ZZZY=             13.1629 XXYY=           -854.8932 XXZZ=           -895.7436 YYZZ=           -190.3199
 XXYZ=             37.6408 YYXZ=             23.2995 ZZXY=             18.0422
 N-N= 1.124974288382D+03 E-N=-6.161634989284D+03  KE= 1.651068747662D+03
 Unable to Open any file for archive entry.
 1\1\GINC-CX3-4-4\FOpt\RB3LYP\6-311+G(d,p)\C10H6O1S3\NS5018\17-Oct-2021
 \0\\# opt=modredundant b3lyp/6-311+g(d,p)\\pBTTT_-135.pdb\\0,1\C,-4.14
 19605559,-1.3079397275,-0.0428585918\C,-2.8353966935,-0.9550852817,-0.
 4919176723\C,-1.9764705161,-2.0267820292,-0.6092420845\C,-4.2752851814
 ,-2.6492392012,0.1707206867\H,-4.9408893464,-0.5919166634,0.1076078272
 \S,-2.8077948557,-3.5030223755,-0.1470870965\H,-5.1487228815,-3.185011
 818,0.5083626584\C,-0.6074773823,-2.028003818,-1.0857953413\S,-0.05600
 30044,-3.2687057094,-2.2282086394\C,1.5239175263,-2.5397215661,-2.3088
 482284\C,1.5767170749,-1.3969777452,-1.5209209807\C,0.3744502466,-1.10
 392531,-0.8255928048\H,0.2235358609,-0.2637086444,-0.1636748296\S,3.15
 75330274,-0.6651504643,-1.6069474836\C,3.7047315566,-1.9174459785,-2.6
 988576153\C,2.7408983459,-2.8422498915,-2.9824134349\H,4.7188257217,-1
 .8861242814,-3.0668844228\H,2.8970917695,-3.6873446989,-3.6383720922\O
 ,-2.4330898593,0.3184136015,-0.7835115694\H,-3.1986108531,0.9009416027
 ,-0.8065582848\\Version=ES64L-G16RevC.01\State=1-A\HF=-1654.6315568\RM
 SD=5.810e-09\RMSF=4.891e-04\Dipole=-0.8209805,0.3760257,0.0941384\Quad
 rupole=9.0179117,-2.1228411,-6.8950705,-5.1881511,-6.3056718,2.7780542
 \PG=C01 [X(C10H6O1S3)]\\@
 The archive entry for this job was punched.


 There are more things in heaven and earth, Horatio,
 than are dreamt of in your philosophy.
                   -- Hamlet, Act I, Scene 5
 Job cpu time:       0 days  2 hours  3 minutes 44.7 seconds.
 Elapsed time:       0 days  0 hours 15 minutes 34.9 seconds.
 File lengths (MBytes):  RWF=     86 Int=      0 D2E=      0 Chk=     11 Scr=      1
 Normal termination of Gaussian 16 at Sun Oct 17 01:43:56 2021.
