 Entering Gaussian System, Link 0=g16
 Input=pBTTT_-155.gjf
 Output=pBTTT_-155.log
 Initial command:
 /apps/gaussian/g16-c01-avx/g16/l1.exe "/tmp/pbs.4729018[20].pbs/Gau-3226144.inp" -scrdir="/tmp/pbs.4729018[20].pbs/"
 Entering Link 1 = /apps/gaussian/g16-c01-avx/g16/l1.exe PID=   3226146.
  
 Copyright (c) 1988-2019, Gaussian, Inc.  All Rights Reserved.
  
 This is part of the Gaussian(R) 16 program.  It is based on
 the Gaussian(R) 09 system (copyright 2009, Gaussian, Inc.),
 the Gaussian(R) 03 system (copyright 2003, Gaussian, Inc.),
 the Gaussian(R) 98 system (copyright 1998, Gaussian, Inc.),
 the Gaussian(R) 94 system (copyright 1995, Gaussian, Inc.),
 the Gaussian 92(TM) system (copyright 1992, Gaussian, Inc.),
 the Gaussian 90(TM) system (copyright 1990, Gaussian, Inc.),
 the Gaussian 88(TM) system (copyright 1988, Gaussian, Inc.),
 the Gaussian 86(TM) system (copyright 1986, Carnegie Mellon
 University), and the Gaussian 82(TM) system (copyright 1983,
 Carnegie Mellon University). Gaussian is a federally registered
 trademark of Gaussian, Inc.
  
 This software contains proprietary and confidential information,
 including trade secrets, belonging to Gaussian, Inc.
  
 This software is provided under written license and may be
 used, copied, transmitted, or stored only in accord with that
 written license.
  
 The following legend is applicable only to US Government
 contracts under FAR:
  
                    RESTRICTED RIGHTS LEGEND
  
 Use, reproduction and disclosure by the US Government is
 subject to restrictions as set forth in subparagraphs (a)
 and (c) of the Commercial Computer Software - Restricted
 Rights clause in FAR 52.227-19.
  
 Gaussian, Inc.
 340 Quinnipiac St., Bldg. 40, Wallingford CT 06492
  
  
 ---------------------------------------------------------------
 Warning -- This program may not be used in any manner that
 competes with the business of Gaussian, Inc. or will provide
 assistance to any competitor of Gaussian, Inc.  The licensee
 of this program is prohibited from giving any competitor of
 Gaussian, Inc. access to this program.  By using this program,
 the user acknowledges that Gaussian, Inc. is engaged in the
 business of creating and licensing software in the field of
 computational chemistry and represents and warrants to the
 licensee that it is not a competitor of Gaussian, Inc. and that
 it will not use this program in any manner prohibited above.
 ---------------------------------------------------------------
  

 Cite this work as:
 Gaussian 16, Revision C.01,
 M. J. Frisch, G. W. Trucks, H. B. Schlegel, G. E. Scuseria, 
 M. A. Robb, J. R. Cheeseman, G. Scalmani, V. Barone, 
 G. A. Petersson, H. Nakatsuji, X. Li, M. Caricato, A. V. Marenich, 
 J. Bloino, B. G. Janesko, R. Gomperts, B. Mennucci, H. P. Hratchian, 
 J. V. Ortiz, A. F. Izmaylov, J. L. Sonnenberg, D. Williams-Young, 
 F. Ding, F. Lipparini, F. Egidi, J. Goings, B. Peng, A. Petrone, 
 T. Henderson, D. Ranasinghe, V. G. Zakrzewski, J. Gao, N. Rega, 
 G. Zheng, W. Liang, M. Hada, M. Ehara, K. Toyota, R. Fukuda, 
 J. Hasegawa, M. Ishida, T. Nakajima, Y. Honda, O. Kitao, H. Nakai, 
 T. Vreven, K. Throssell, J. A. Montgomery, Jr., J. E. Peralta, 
 F. Ogliaro, M. J. Bearpark, J. J. Heyd, E. N. Brothers, K. N. Kudin, 
 V. N. Staroverov, T. A. Keith, R. Kobayashi, J. Normand, 
 K. Raghavachari, A. P. Rendell, J. C. Burant, S. S. Iyengar, 
 J. Tomasi, M. Cossi, J. M. Millam, M. Klene, C. Adamo, R. Cammi, 
 J. W. Ochterski, R. L. Martin, K. Morokuma, O. Farkas, 
 J. B. Foresman, and D. J. Fox, Gaussian, Inc., Wallingford CT, 2019.
 
 ******************************************
 Gaussian 16:  ES64L-G16RevC.01  3-Jul-2019
                17-Oct-2021 
 ******************************************
 %mem=10GB
 %nprocshared=8
 Will use up to    8 processors via shared memory.
 -------------------------------------
 # opt=modredundant b3lyp/6-311+g(d,p)
 -------------------------------------
 1/18=120,19=15,26=3,38=1/1,3;
 2/9=110,12=2,17=6,18=5,40=1/2;
 3/5=4,6=6,7=111,11=2,25=1,30=1,71=1,74=-5/1,2,3;
 4//1;
 5/5=2,38=5/2;
 6/7=2,8=2,9=2,10=2,28=1/1;
 7//1,2,3,16;
 1/18=20,19=15,26=3/3(2);
 2/9=110/2;
 99//99;
 2/9=110/2;
 3/5=4,6=6,7=111,11=2,25=1,30=1,71=1,74=-5/1,2,3;
 4/5=5,16=3,69=1/1;
 5/5=2,38=5/2;
 7//1,2,3,16;
 1/18=20,19=15,26=3/3(-5);
 2/9=110/2;
 6/7=2,8=2,9=2,10=2,19=2,28=1/1;
 99/9=1/99;
 --------------
 pBTTT_-155.pdb
 --------------
 Symbolic Z-matrix:
 Charge =  0 Multiplicity = 1
 C                    -4.25     -1.36     -0.21 
 C                    -2.93     -0.95     -0.61 
 C                    -1.97     -2.05     -0.62 
 C                    -4.33     -2.76      0.1 
 H                    -5.1      -0.7      -0.14 
 S                    -2.8      -3.56     -0.11 
 H                    -5.23     -3.27      0.41 
 C                    -0.56     -2.13     -0.97 
 S                     0.197    -3.659    -1.511 
 C                     1.749    -2.919    -1.707 
 C                     1.729    -1.512    -1.4 
 C                     0.432    -1.053    -1. 
 H                     0.186    -0.008    -0.89 
 S                     2.969    -0.629    -2.227 
 C                     3.562    -2.105    -2.994 
 C                     2.782    -3.265    -2.627 
 H                     4.297    -2.09     -3.786 
 H                     2.81     -4.193    -3.191 
 O                    -2.4       0.49     -0.72 
 H                    -2.92      1.52     -0.76 
 
 Add virtual bond connecting atoms H20        and O19        Dist= 2.18D+00.
 The following ModRedundant input section has been read:
 D       2       3       8       9 F                                           
 

 GradGradGradGradGradGradGradGradGradGradGradGradGradGradGradGradGradGrad
 Berny optimization.
 Initialization pass.
                           ----------------------------
                           !    Initial Parameters    !
                           ! (Angstroms and Degrees)  !
 --------------------------                            --------------------------
 ! Name  Definition              Value          Derivative Info.                !
 --------------------------------------------------------------------------------
 ! R1    R(1,2)                  1.4389         estimate D2E/DX2                !
 ! R2    R(1,4)                  1.4361         estimate D2E/DX2                !
 ! R3    R(1,5)                  1.0784         estimate D2E/DX2                !
 ! R4    R(2,3)                  1.46           estimate D2E/DX2                !
 ! R5    R(2,19)                 1.5384         estimate D2E/DX2                !
 ! R6    R(3,6)                  1.797          estimate D2E/DX2                !
 ! R7    R(3,8)                  1.455          estimate D2E/DX2                !
 ! R8    R(4,6)                  1.7393         estimate D2E/DX2                !
 ! R9    R(4,7)                  1.0799         estimate D2E/DX2                !
 ! R10   R(8,9)                  1.7899         estimate D2E/DX2                !
 ! R11   R(8,12)                 1.4645         estimate D2E/DX2                !
 ! R12   R(9,10)                 1.7305         estimate D2E/DX2                !
 ! R13   R(10,11)                1.4402         estimate D2E/DX2                !
 ! R14   R(10,16)                1.4259         estimate D2E/DX2                !
 ! R15   R(11,12)                1.4328         estimate D2E/DX2                !
 ! R16   R(11,14)                1.7324         estimate D2E/DX2                !
 ! R17   R(12,13)                1.0792         estimate D2E/DX2                !
 ! R18   R(14,15)                1.7659         estimate D2E/DX2                !
 ! R19   R(15,16)                1.4452         estimate D2E/DX2                !
 ! R20   R(15,17)                1.0806         estimate D2E/DX2                !
 ! R21   R(16,18)                1.0863         estimate D2E/DX2                !
 ! R22   R(19,20)                1.1545         estimate D2E/DX2                !
 ! A1    A(2,1,4)              112.8843         estimate D2E/DX2                !
 ! A2    A(2,1,5)              124.5209         estimate D2E/DX2                !
 ! A3    A(4,1,5)              122.5942         estimate D2E/DX2                !
 ! A4    A(1,2,3)              112.9799         estimate D2E/DX2                !
 ! A5    A(1,2,19)             127.059          estimate D2E/DX2                !
 ! A6    A(3,2,19)             118.5686         estimate D2E/DX2                !
 ! A7    A(2,3,6)              109.1138         estimate D2E/DX2                !
 ! A8    A(2,3,8)              132.8639         estimate D2E/DX2                !
 ! A9    A(6,3,8)              118.0132         estimate D2E/DX2                !
 ! A10   A(1,4,6)              111.9209         estimate D2E/DX2                !
 ! A11   A(1,4,7)              124.6643         estimate D2E/DX2                !
 ! A12   A(6,4,7)              123.4062         estimate D2E/DX2                !
 ! A13   A(3,6,4)               93.0997         estimate D2E/DX2                !
 ! A14   A(3,8,9)              121.9744         estimate D2E/DX2                !
 ! A15   A(3,8,12)             128.3813         estimate D2E/DX2                !
 ! A16   A(9,8,12)             109.6054         estimate D2E/DX2                !
 ! A17   A(8,9,10)              92.7654         estimate D2E/DX2                !
 ! A18   A(9,10,11)            112.4049         estimate D2E/DX2                !
 ! A19   A(9,10,16)            128.2453         estimate D2E/DX2                !
 ! A20   A(11,10,16)           112.6216         estimate D2E/DX2                !
 ! A21   A(10,11,12)           112.6461         estimate D2E/DX2                !
 ! A22   A(10,11,14)           112.7206         estimate D2E/DX2                !
 ! A23   A(12,11,14)           128.1644         estimate D2E/DX2                !
 ! A24   A(8,12,11)            112.5373         estimate D2E/DX2                !
 ! A25   A(8,12,13)            123.752          estimate D2E/DX2                !
 ! A26   A(11,12,13)           123.0252         estimate D2E/DX2                !
 ! A27   A(11,14,15)            91.2422         estimate D2E/DX2                !
 ! A28   A(14,15,16)           112.2925         estimate D2E/DX2                !
 ! A29   A(14,15,17)           122.3528         estimate D2E/DX2                !
 ! A30   A(16,15,17)           124.3573         estimate D2E/DX2                !
 ! A31   A(10,16,15)           111.1046         estimate D2E/DX2                !
 ! A32   A(10,16,18)           124.1214         estimate D2E/DX2                !
 ! A33   A(15,16,18)           122.6781         estimate D2E/DX2                !
 ! A34   A(2,19,20)            133.0318         estimate D2E/DX2                !
 ! D1    D(4,1,2,3)              0.3915         estimate D2E/DX2                !
 ! D2    D(4,1,2,19)          -165.8104         estimate D2E/DX2                !
 ! D3    D(5,1,2,3)           -179.8811         estimate D2E/DX2                !
 ! D4    D(5,1,2,19)            13.9169         estimate D2E/DX2                !
 ! D5    D(2,1,4,6)             -0.3845         estimate D2E/DX2                !
 ! D6    D(2,1,4,7)           -179.3471         estimate D2E/DX2                !
 ! D7    D(5,1,4,6)            179.8822         estimate D2E/DX2                !
 ! D8    D(5,1,4,7)              0.9196         estimate D2E/DX2                !
 ! D9    D(1,2,3,6)             -0.2224         estimate D2E/DX2                !
 ! D10   D(1,2,3,8)            178.6265         estimate D2E/DX2                !
 ! D11   D(19,2,3,6)           167.2616         estimate D2E/DX2                !
 ! D12   D(19,2,3,8)           -13.8895         estimate D2E/DX2                !
 ! D13   D(1,2,19,20)          -16.0519         estimate D2E/DX2                !
 ! D14   D(3,2,19,20)          178.4264         estimate D2E/DX2                !
 ! D15   D(2,3,6,4)              0.0033         estimate D2E/DX2                !
 ! D16   D(8,3,6,4)           -179.041          estimate D2E/DX2                !
 ! D17   D(2,3,8,9)           -155.0062         Frozen                          !
 ! D18   D(2,3,8,12)            22.4826         estimate D2E/DX2                !
 ! D19   D(6,3,8,9)             23.7618         estimate D2E/DX2                !
 ! D20   D(6,3,8,12)          -158.7494         estimate D2E/DX2                !
 ! D21   D(1,4,6,3)              0.2153         estimate D2E/DX2                !
 ! D22   D(7,4,6,3)            179.1932         estimate D2E/DX2                !
 ! D23   D(3,8,9,10)           179.7641         estimate D2E/DX2                !
 ! D24   D(12,8,9,10)            1.8536         estimate D2E/DX2                !
 ! D25   D(3,8,12,11)         -179.8132         estimate D2E/DX2                !
 ! D26   D(3,8,12,13)           -9.0658         estimate D2E/DX2                !
 ! D27   D(9,8,12,11)           -2.0744         estimate D2E/DX2                !
 ! D28   D(9,8,12,13)          168.6731         estimate D2E/DX2                !
 ! D29   D(8,9,10,11)           -1.1978         estimate D2E/DX2                !
 ! D30   D(8,9,10,16)         -149.9249         estimate D2E/DX2                !
 ! D31   D(9,10,11,12)           0.191          estimate D2E/DX2                !
 ! D32   D(9,10,11,14)        -154.0415         estimate D2E/DX2                !
 ! D33   D(16,10,11,12)        153.9801         estimate D2E/DX2                !
 ! D34   D(16,10,11,14)         -0.2524         estimate D2E/DX2                !
 ! D35   D(9,10,16,15)         149.7802         estimate D2E/DX2                !
 ! D36   D(9,10,16,18)         -14.0844         estimate D2E/DX2                !
 ! D37   D(11,10,16,15)          1.1078         estimate D2E/DX2                !
 ! D38   D(11,10,16,18)       -162.7568         estimate D2E/DX2                !
 ! D39   D(10,11,12,8)           1.2496         estimate D2E/DX2                !
 ! D40   D(10,11,12,13)       -169.5756         estimate D2E/DX2                !
 ! D41   D(14,11,12,8)         150.5856         estimate D2E/DX2                !
 ! D42   D(14,11,12,13)        -20.2396         estimate D2E/DX2                !
 ! D43   D(10,11,14,15)         -0.5149         estimate D2E/DX2                !
 ! D44   D(12,11,14,15)       -149.8324         estimate D2E/DX2                !
 ! D45   D(11,14,15,16)          1.1506         estimate D2E/DX2                !
 ! D46   D(11,14,15,17)        170.1799         estimate D2E/DX2                !
 ! D47   D(14,15,16,10)         -1.49           estimate D2E/DX2                !
 ! D48   D(14,15,16,18)        162.6474         estimate D2E/DX2                !
 ! D49   D(17,15,16,10)       -170.2604         estimate D2E/DX2                !
 ! D50   D(17,15,16,18)         -6.123          estimate D2E/DX2                !
 --------------------------------------------------------------------------------
 Trust Radius=3.00D-01 FncErr=1.00D-07 GrdErr=1.00D-06 EigMax=2.50D+02 EigMin=1.00D-04
 Number of steps in this run=    116 maximum allowed number of steps=    120.
 GradGradGradGradGradGradGradGradGradGradGradGradGradGradGradGradGradGrad

                          Input orientation:                          
 ---------------------------------------------------------------------
 Center     Atomic      Atomic             Coordinates (Angstroms)
 Number     Number       Type             X           Y           Z
 ---------------------------------------------------------------------
      1          6           0       -4.250000   -1.360000   -0.210000
      2          6           0       -2.930000   -0.950000   -0.610000
      3          6           0       -1.970000   -2.050000   -0.620000
      4          6           0       -4.330000   -2.760000    0.100000
      5          1           0       -5.100000   -0.700000   -0.140000
      6         16           0       -2.800000   -3.560000   -0.110000
      7          1           0       -5.230000   -3.270000    0.410000
      8          6           0       -0.560000   -2.130000   -0.970000
      9         16           0        0.197000   -3.659000   -1.511000
     10          6           0        1.749000   -2.919000   -1.707000
     11          6           0        1.729000   -1.512000   -1.400000
     12          6           0        0.432000   -1.053000   -1.000000
     13          1           0        0.186000   -0.008000   -0.890000
     14         16           0        2.969000   -0.629000   -2.227000
     15          6           0        3.562000   -2.105000   -2.994000
     16          6           0        2.782000   -3.265000   -2.627000
     17          1           0        4.297000   -2.090000   -3.786000
     18          1           0        2.810000   -4.193000   -3.191000
     19          8           0       -2.400000    0.490000   -0.720000
     20          1           0       -2.920000    1.520000   -0.760000
 ---------------------------------------------------------------------
                    Distance matrix (angstroms):
                    1          2          3          4          5
     1  C    0.000000
     2  C    1.438923   0.000000
     3  C    2.417147   1.460034   0.000000
     4  C    1.436141   2.395871   2.567509   0.000000
     5  H    1.078425   2.234346   3.442354   2.212261   0.000000
     6  S    2.636759   2.660639   1.796970   1.739253   3.670218
     7  H    2.234480   3.422397   3.630000   1.079907   2.631406
     8  C    3.845335   2.671872   1.454991   3.969219   4.831708
     9  S    5.172409   4.234219   2.842297   4.888481   6.220412
    10  C    6.376480   5.193593   3.970855   6.343877   7.368056
    11  C    6.098167   4.758805   3.818435   6.365452   6.991580
    12  C    4.758096   3.386112   2.628310   5.176919   5.609566
    13  H    4.687046   3.267296   2.981778   5.380322   5.383601
    14  S    7.531043   6.125025   5.384739   7.951823   8.334829
    15  C    8.326645   7.011672   6.020127   8.502089   9.227653
    16  C    7.675932   6.484941   5.299602   7.633616   8.653919
    17  H    9.293648   7.975970   7.021428   9.485517  10.174921
    18  H    8.170425   7.079987   5.835314   7.991481   9.169392
    19  O    2.665539   1.538376   2.578081   3.867790   3.007075
    20  H    3.219596   2.474571   3.696891   4.587603   3.172570
                    6          7          8          9         10
     6  S    0.000000
     7  H    2.501879   0.000000
     8  C    2.793224   5.001290   0.000000
     9  S    3.309775   5.770086   1.789852   0.000000
    10  C    4.863609   7.301461   2.548955   1.730526   0.000000
    11  C    5.135197   7.402320   2.409636   2.639878   1.440242
    12  C    4.186045   6.241909   1.464545   2.666005   2.390877
    13  H    4.705454   6.454742   2.250733   3.703453   3.403583
    14  S    6.808363   9.008454   4.035702   4.168638   2.646299
    15  C    7.135091   9.499669   4.592176   3.992171   2.367685
    16  C    6.130338   8.568287   3.899082   2.843047   1.425905
    17  H    8.126579  10.476762   5.614437   4.944430   3.391428
    18  H    6.431590   8.857806   4.532738   3.152035   2.225096
    19  O    4.115167   4.839773   3.211308   4.958255   5.459822
    20  H    5.122821   5.445099   4.351574   6.091119   6.511612
                   11         12         13         14         15
    11  C    0.000000
    12  C    1.432791   0.000000
    13  H    2.214264   1.079185   0.000000
    14  S    1.732402   2.849855   3.149333   0.000000
    15  C    2.500475   3.857414   4.496843   1.765931   0.000000
    16  C    2.384816   3.614218   4.512697   2.672726   1.445230
    17  H    3.552704   4.876001   5.442597   2.515668   1.080608
    18  H    3.400589   4.507213   5.449239   3.695494   2.228016
    19  O    4.638862   3.237201   2.638996   5.687651   6.888436
    20  H    5.587112   4.232474   3.463946   6.438215   7.755495
                   16         17         18         19         20
    16  C    0.000000
    17  H    2.240342   0.000000
    18  H    1.086308   2.643445   0.000000
    19  O    6.677559   7.804266   7.428353   0.000000
    20  H    7.674289   8.618229   8.448729   1.154513   0.000000
 Stoichiometry    C10H6OS3
 Framework group  C1[X(C10H6OS3)]
 Deg. of freedom    54
 Full point group                 C1      NOp   1
 Largest Abelian subgroup         C1      NOp   1
 Largest concise Abelian subgroup C1      NOp   1
                         Standard orientation:                         
 ---------------------------------------------------------------------
 Center     Atomic      Atomic             Coordinates (Angstroms)
 Number     Number       Type             X           Y           Z
 ---------------------------------------------------------------------
      1          6           0        3.992618    0.839974    0.313750
      2          6           0        2.600695    1.201039    0.261952
      3          6           0        1.728530    0.068024   -0.033524
      4          6           0        4.217882   -0.554471    0.054366
      5          1           0        4.795690    1.529772    0.519307
      6         16           0        2.731502   -1.408858   -0.238375
      7          1           0        5.187093   -1.030736    0.055730
      8          6           0        0.284935   -0.063455   -0.159014
      9         16           0       -0.552377   -1.621277    0.116066
     10          6           0       -2.109085   -0.937326   -0.205787
     11          6           0       -2.040067    0.471333   -0.497705
     12          6           0       -0.700398    0.977912   -0.458293
     13          1           0       -0.468874    2.031535   -0.488542
     14         16           0       -3.511374    1.305333   -0.122316
     15          6           0       -4.268763   -0.195135    0.419416
     16          6           0       -3.371698   -1.324852    0.331649
     17          1           0       -5.220844   -0.210673    0.930311
     18          1           0       -3.548399   -2.256640    0.861377
     19          8           0        2.013442    2.620888    0.186047
     20          1           0        2.455900    3.668223    0.386597
 ---------------------------------------------------------------------
 Rotational constants (GHZ):           1.1726865           0.2794123           0.2291932
 Standard basis: 6-311+G(d,p) (5D, 7F)
 There are   382 symmetry adapted cartesian basis functions of A   symmetry.
 There are   368 symmetry adapted basis functions of A   symmetry.
   368 basis functions,   594 primitive gaussians,   382 cartesian basis functions
    61 alpha electrons       61 beta electrons
       nuclear repulsion energy      1104.5987555609 Hartrees.
 NAtoms=   20 NActive=   20 NUniq=   20 SFac= 1.00D+00 NAtFMM=   60 NAOKFM=F Big=F
 Integral buffers will be    131072 words long.
 Raffenetti 2 integral format.
 Two-electron integral symmetry is turned on.
 One-electron integrals computed using PRISM.
 NBasis=   368 RedAO= T EigKep=  2.75D-06  NBF=   368
 NBsUse=   367 1.00D-06 EigRej=  4.95D-07 NBFU=   367
 ExpMin= 4.05D-02 ExpMax= 9.34D+04 ExpMxC= 3.17D+03 IAcc=3 IRadAn=         5 AccDes= 0.00D+00
 Harris functional with IExCor=  402 and IRadAn=       5 diagonalized for initial guess.
 HarFok:  IExCor=  402 AccDes= 0.00D+00 IRadAn=         5 IDoV= 1 UseB2=F ITyADJ=14
 ICtDFT=  3500011 ScaDFX=  1.000000  1.000000  1.000000  1.000000
 FoFCou: FMM=F IPFlag=           0 FMFlag=      100000 FMFlg1=           0
         NFxFlg=           0 DoJE=T BraDBF=F KetDBF=T FulRan=T
         wScrn=  0.000000 ICntrl=       500 IOpCl=  0 I1Cent=   200000004 NGrid=           0
         NMat0=    1 NMatS0=      1 NMatT0=    0 NMatD0=    1 NMtDS0=    0 NMtDT0=    0
 Petite list used in FoFCou.
 Requested convergence on RMS density matrix=1.00D-08 within 128 cycles.
 Requested convergence on MAX density matrix=1.00D-06.
 Requested convergence on             energy=1.00D-06.
 No special actions if energy rises.
 SCF Done:  E(RB3LYP) =  -1654.53498354     A.U. after   17 cycles
            NFock= 17  Conv=0.50D-08     -V/T= 2.0031

 **********************************************************************

            Population analysis using the SCF Density.

 **********************************************************************

 Orbital symmetries:
       Occupied  (A) (A) (A) (A) (A) (A) (A) (A) (A) (A) (A) (A)
                 (A) (A) (A) (A) (A) (A) (A) (A) (A) (A) (A) (A)
                 (A) (A) (A) (A) (A) (A) (A) (A) (A) (A) (A) (A)
                 (A) (A) (A) (A) (A) (A) (A) (A) (A) (A) (A) (A)
                 (A) (A) (A) (A) (A) (A) (A) (A) (A) (A) (A) (A)
                 (A)
       Virtual   (A) (A) (A) (A) (A) (A) (A) (A) (A) (A) (A) (A)
                 (A) (A) (A) (A) (A) (A) (A) (A) (A) (A) (A) (A)
                 (A) (A) (A) (A) (A) (A) (A) (A) (A) (A) (A) (A)
                 (A) (A) (A) (A) (A) (A) (A) (A) (A) (A) (A) (A)
                 (A) (A) (A) (A) (A) (A) (A) (A) (A) (A) (A) (A)
                 (A) (A) (A) (A) (A) (A) (A) (A) (A) (A) (A) (A)
                 (A) (A) (A) (A) (A) (A) (A) (A) (A) (A) (A) (A)
                 (A) (A) (A) (A) (A) (A) (A) (A) (A) (A) (A) (A)
                 (A) (A) (A) (A) (A) (A) (A) (A) (A) (A) (A) (A)
                 (A) (A) (A) (A) (A) (A) (A) (A) (A) (A) (A) (A)
                 (A) (A) (A) (A) (A) (A) (A) (A) (A) (A) (A) (A)
                 (A) (A) (A) (A) (A) (A) (A) (A) (A) (A) (A) (A)
                 (A) (A) (A) (A) (A) (A) (A) (A) (A) (A) (A) (A)
                 (A) (A) (A) (A) (A) (A) (A) (A) (A) (A) (A) (A)
                 (A) (A) (A) (A) (A) (A) (A) (A) (A) (A) (A) (A)
                 (A) (A) (A) (A) (A) (A) (A) (A) (A) (A) (A) (A)
                 (A) (A) (A) (A) (A) (A) (A) (A) (A) (A) (A) (A)
                 (A) (A) (A) (A) (A) (A) (A) (A) (A) (A) (A) (A)
                 (A) (A) (A) (A) (A) (A) (A) (A) (A) (A) (A) (A)
                 (A) (A) (A) (A) (A) (A) (A) (A) (A) (A) (A) (A)
                 (A) (A) (A) (A) (A) (A) (A) (A) (A) (A) (A) (A)
                 (A) (A) (A) (A) (A) (A) (A) (A) (A) (A) (A) (A)
                 (A) (A) (A) (A) (A) (A) (A) (A) (A) (A) (A) (A)
                 (A) (A) (A) (A) (A) (A) (A) (A) (A) (A) (A) (A)
                 (A) (A) (A) (A) (A) (A) (A) (A) (A) (A) (A) (A)
                 (A) (A) (A) (A) (A) (A)
 The electronic state is 1-A.
 Alpha  occ. eigenvalues --  -88.89670 -88.88880 -88.88685 -19.16247 -10.27284
 Alpha  occ. eigenvalues --  -10.23925 -10.23599 -10.22280 -10.21874 -10.21756
 Alpha  occ. eigenvalues --  -10.21685 -10.20494 -10.20168 -10.19846  -7.98132
 Alpha  occ. eigenvalues --   -7.97401  -7.97228  -5.94442  -5.94076  -5.93712
 Alpha  occ. eigenvalues --   -5.93708  -5.93556  -5.93356  -5.93192  -5.92956
 Alpha  occ. eigenvalues --   -5.92747  -0.98401  -0.90437  -0.87842  -0.83535
 Alpha  occ. eigenvalues --   -0.77200  -0.75375  -0.73971  -0.70875  -0.68632
 Alpha  occ. eigenvalues --   -0.61694  -0.58303  -0.57355  -0.54149  -0.53250
 Alpha  occ. eigenvalues --   -0.51339  -0.48767  -0.45854  -0.44707  -0.43165
 Alpha  occ. eigenvalues --   -0.41716  -0.40244  -0.39787  -0.39524  -0.38691
 Alpha  occ. eigenvalues --   -0.37469  -0.36256  -0.34564  -0.34252  -0.33955
 Alpha  occ. eigenvalues --   -0.33162  -0.29254  -0.26267  -0.25246  -0.23453
 Alpha  occ. eigenvalues --   -0.19542
 Alpha virt. eigenvalues --   -0.07428  -0.05498  -0.03182  -0.01783  -0.00817
 Alpha virt. eigenvalues --   -0.00112   0.00711   0.00959   0.01216   0.02302
 Alpha virt. eigenvalues --    0.02715   0.03033   0.03463   0.04348   0.04402
 Alpha virt. eigenvalues --    0.04937   0.05244   0.05829   0.06228   0.06795
 Alpha virt. eigenvalues --    0.07339   0.07690   0.07905   0.08582   0.08840
 Alpha virt. eigenvalues --    0.09667   0.09835   0.10098   0.11189   0.11486
 Alpha virt. eigenvalues --    0.11797   0.11846   0.12615   0.13194   0.13280
 Alpha virt. eigenvalues --    0.13927   0.14085   0.15040   0.15223   0.15446
 Alpha virt. eigenvalues --    0.16261   0.16568   0.16830   0.17364   0.17606
 Alpha virt. eigenvalues --    0.18321   0.18491   0.19042   0.19202   0.19631
 Alpha virt. eigenvalues --    0.19969   0.20316   0.20437   0.20766   0.20929
 Alpha virt. eigenvalues --    0.21635   0.21726   0.22517   0.22679   0.23253
 Alpha virt. eigenvalues --    0.23365   0.24162   0.24655   0.24934   0.25567
 Alpha virt. eigenvalues --    0.25844   0.26196   0.27204   0.27669   0.28819
 Alpha virt. eigenvalues --    0.29617   0.30010   0.30568   0.31197   0.31492
 Alpha virt. eigenvalues --    0.31887   0.32602   0.33681   0.34693   0.35027
 Alpha virt. eigenvalues --    0.35774   0.36252   0.37254   0.38680   0.39775
 Alpha virt. eigenvalues --    0.40585   0.41168   0.41999   0.42995   0.44099
 Alpha virt. eigenvalues --    0.45317   0.46542   0.48070   0.50616   0.51276
 Alpha virt. eigenvalues --    0.53574   0.55200   0.55424   0.55783   0.57037
 Alpha virt. eigenvalues --    0.57443   0.57903   0.59007   0.60656   0.60992
 Alpha virt. eigenvalues --    0.61535   0.61766   0.63630   0.64043   0.65064
 Alpha virt. eigenvalues --    0.66139   0.67476   0.68866   0.69454   0.70135
 Alpha virt. eigenvalues --    0.70624   0.71518   0.71910   0.73112   0.73630
 Alpha virt. eigenvalues --    0.74267   0.74529   0.75426   0.76255   0.77782
 Alpha virt. eigenvalues --    0.77968   0.79504   0.79799   0.80693   0.81249
 Alpha virt. eigenvalues --    0.81944   0.82186   0.83483   0.84914   0.85375
 Alpha virt. eigenvalues --    0.87220   0.87942   0.89133   0.89855   0.91451
 Alpha virt. eigenvalues --    0.92254   0.93521   0.94143   0.95238   0.96864
 Alpha virt. eigenvalues --    0.97768   0.98841   0.99174   1.00154   1.01813
 Alpha virt. eigenvalues --    1.02484   1.03870   1.05081   1.05900   1.09480
 Alpha virt. eigenvalues --    1.10491   1.12283   1.14597   1.16003   1.18328
 Alpha virt. eigenvalues --    1.21289   1.24734   1.27009   1.28775   1.31218
 Alpha virt. eigenvalues --    1.33060   1.33879   1.35296   1.38548   1.40057
 Alpha virt. eigenvalues --    1.44014   1.45615   1.48778   1.49771   1.51897
 Alpha virt. eigenvalues --    1.53155   1.54044   1.56552   1.57771   1.58104
 Alpha virt. eigenvalues --    1.60601   1.61819   1.63847   1.64665   1.65509
 Alpha virt. eigenvalues --    1.66977   1.68316   1.69072   1.70278   1.72636
 Alpha virt. eigenvalues --    1.73019   1.74720   1.75223   1.77187   1.78476
 Alpha virt. eigenvalues --    1.79585   1.80660   1.81171   1.84530   1.85439
 Alpha virt. eigenvalues --    1.87104   1.88302   1.88842   1.91091   1.93213
 Alpha virt. eigenvalues --    1.94194   1.94689   1.97716   1.99486   2.00076
 Alpha virt. eigenvalues --    2.01094   2.01855   2.04186   2.06213   2.07049
 Alpha virt. eigenvalues --    2.09048   2.10305   2.11153   2.12846   2.14206
 Alpha virt. eigenvalues --    2.15482   2.18675   2.22959   2.28953   2.30730
 Alpha virt. eigenvalues --    2.36025   2.37270   2.40759   2.46000   2.47419
 Alpha virt. eigenvalues --    2.52793   2.53683   2.55756   2.61593   2.64996
 Alpha virt. eigenvalues --    2.66095   2.68233   2.69545   2.71362   2.71387
 Alpha virt. eigenvalues --    2.72272   2.73984   2.75290   2.77092   2.79533
 Alpha virt. eigenvalues --    2.81558   2.84129   2.88275   2.91495   2.92856
 Alpha virt. eigenvalues --    2.93811   2.96911   2.98842   3.01990   3.02810
 Alpha virt. eigenvalues --    3.04715   3.05532   3.08719   3.13086   3.19536
 Alpha virt. eigenvalues --    3.20487   3.25342   3.27990   3.33541   3.36581
 Alpha virt. eigenvalues --    3.39784   3.46700   3.54477   3.63826   3.71466
 Alpha virt. eigenvalues --    3.87435   3.93783   4.01060   4.05219   4.12617
 Alpha virt. eigenvalues --    4.30560   4.50342   5.01794   5.19209   5.43892
 Alpha virt. eigenvalues --    7.93119   7.95661   7.99646  17.27506  17.28817
 Alpha virt. eigenvalues --   17.30026  17.42584  17.43779  17.46068  17.47606
 Alpha virt. eigenvalues --   17.51495  17.52872  23.44046  23.58648  23.70154
 Alpha virt. eigenvalues --   23.76677  23.79279  23.84858  23.87067  23.94643
 Alpha virt. eigenvalues --   23.95514  23.96277  49.85415 189.09320 189.11962
 Alpha virt. eigenvalues --  189.16758
          Condensed to atoms (all electrons):
               1          2          3          4          5          6
     1  C    7.840929  -3.027863   1.056782  -0.543990   0.433689   0.639739
     2  C   -3.027863  17.814326  -5.928597   2.116872  -0.119016  -3.182790
     3  C    1.056782  -5.928597  12.058880  -1.375249   0.048210   0.451353
     4  C   -0.543990   2.116872  -1.375249   6.055015  -0.022631  -0.423090
     5  H    0.433689  -0.119016   0.048210  -0.022631   0.518402   0.009665
     6  S    0.639739  -3.182790   0.451353  -0.423090   0.009665  17.945753
     7  H    0.040584  -0.054399   0.030295   0.365462  -0.004345  -0.018118
     8  C    0.151980  -0.916949  -1.187202  -0.178542  -0.003705   0.892543
     9  S   -0.105575   0.969468   0.693344   0.040486  -0.000610  -0.458946
    10  C   -0.076187   0.490195  -0.355810   0.042097  -0.000194  -0.230059
    11  C   -0.110894  -1.433791   0.634150  -0.044163   0.000666   0.434918
    12  C    0.254301  -1.669884  -0.263526  -0.060792   0.003828   0.424379
    13  H    0.003247   0.006738   0.009506  -0.000440   0.000003  -0.001861
    14  S   -0.013995  -0.072597   0.014782   0.001098   0.000003   0.022315
    15  C   -0.000211   0.008941  -0.008267  -0.000779   0.000001  -0.010263
    16  C   -0.001597   0.140858   0.153783   0.006371  -0.000011  -0.071776
    17  H   -0.000001  -0.000110  -0.000055   0.000000   0.000000   0.000058
    18  H   -0.000001  -0.000119  -0.001033  -0.000005   0.000000   0.000243
    19  O   -0.188969   0.562791  -0.251871   0.023701  -0.002087   0.017035
    20  H   -0.069257  -0.012559   0.060397  -0.002967   0.000065  -0.004755
               7          8          9         10         11         12
     1  C    0.040584   0.151980  -0.105575  -0.076187  -0.110894   0.254301
     2  C   -0.054399  -0.916949   0.969468   0.490195  -1.433791  -1.669884
     3  C    0.030295  -1.187202   0.693344  -0.355810   0.634150  -0.263526
     4  C    0.365462  -0.178542   0.040486   0.042097  -0.044163  -0.060792
     5  H   -0.004345  -0.003705  -0.000610  -0.000194   0.000666   0.003828
     6  S   -0.018118   0.892543  -0.458946  -0.230059   0.434918   0.424379
     7  H    0.475381  -0.002237  -0.000462  -0.000099  -0.000184   0.000079
     8  C   -0.002237  11.128644  -0.039119  -1.298102   0.741606  -3.112311
     9  S   -0.000462  -0.039119  18.227998  -0.889596   0.997015  -3.157059
    10  C   -0.000099  -1.298102  -0.889596  14.243085  -5.213288   0.626659
    11  C   -0.000184   0.741606   0.997015  -5.213288  15.410608  -4.272709
    12  C    0.000079  -3.112311  -3.157059   0.626659  -4.272709  16.420244
    13  H   -0.000000   0.085736   0.012317  -0.051772   0.044981   0.245885
    14  S   -0.000001  -0.432648   0.138874   0.909688  -0.557065  -0.107408
    15  C    0.000000   0.084731   0.032027   0.765176  -0.412062  -0.518787
    16  C   -0.000017   0.056165   0.096345  -3.220633  -0.204790   0.688214
    17  H    0.000000  -0.002433   0.000729  -0.012191   0.005200   0.016536
    18  H    0.000000   0.005988   0.017798   0.016204  -0.028828  -0.002090
    19  O   -0.000168  -0.055469  -0.006060  -0.007878  -0.012350   0.055248
    20  H   -0.000011   0.026637   0.000624  -0.000783   0.009423  -0.015855
              13         14         15         16         17         18
     1  C    0.003247  -0.013995  -0.000211  -0.001597  -0.000001  -0.000001
     2  C    0.006738  -0.072597   0.008941   0.140858  -0.000110  -0.000119
     3  C    0.009506   0.014782  -0.008267   0.153783  -0.000055  -0.001033
     4  C   -0.000440   0.001098  -0.000779   0.006371   0.000000  -0.000005
     5  H    0.000003   0.000003   0.000001  -0.000011   0.000000   0.000000
     6  S   -0.001861   0.022315  -0.010263  -0.071776   0.000058   0.000243
     7  H   -0.000000  -0.000001   0.000000  -0.000017   0.000000   0.000000
     8  C    0.085736  -0.432648   0.084731   0.056165  -0.002433   0.005988
     9  S    0.012317   0.138874   0.032027   0.096345   0.000729   0.017798
    10  C   -0.051772   0.909688   0.765176  -3.220633  -0.012191   0.016204
    11  C    0.044981  -0.557065  -0.412062  -0.204790   0.005200  -0.028828
    12  C    0.245885  -0.107408  -0.518787   0.688214   0.016536  -0.002090
    13  H    0.490869   0.003321   0.001109  -0.009906  -0.000004   0.000012
    14  S    0.003321  16.593261   0.402374  -0.751218  -0.021873   0.003256
    15  C    0.001109   0.402374   5.748098  -0.174653   0.364587   0.005218
    16  C   -0.009906  -0.751218  -0.174653   9.166491   0.004034   0.330797
    17  H   -0.000004  -0.021873   0.364587   0.004034   0.474856  -0.003577
    18  H    0.000012   0.003256   0.005218   0.330797  -0.003577   0.516231
    19  O   -0.003148   0.000669  -0.000349   0.000065  -0.000000   0.000000
    20  H    0.000464   0.000129   0.000010  -0.000002  -0.000000  -0.000000
              19         20
     1  C   -0.188969  -0.069257
     2  C    0.562791  -0.012559
     3  C   -0.251871   0.060397
     4  C    0.023701  -0.002967
     5  H   -0.002087   0.000065
     6  S    0.017035  -0.004755
     7  H   -0.000168  -0.000011
     8  C   -0.055469   0.026637
     9  S   -0.006060   0.000624
    10  C   -0.007878  -0.000783
    11  C   -0.012350   0.009423
    12  C    0.055248  -0.015855
    13  H   -0.003148   0.000464
    14  S    0.000669   0.000129
    15  C   -0.000349   0.000010
    16  C    0.000065  -0.000002
    17  H   -0.000000  -0.000000
    18  H    0.000000  -0.000000
    19  O    8.072745   0.204565
    20  H    0.204565   0.506708
 Mulliken charges:
               1
     1  C   -0.282712
     2  C    0.308484
     3  C    0.160131
     4  C    0.001545
     5  H    0.138070
     6  S   -0.436343
     7  H    0.168239
     8  C    0.054686
     9  S   -0.569598
    10  C    0.263490
    11  C    0.011558
    12  C    0.445045
    13  H    0.162943
    14  S   -0.132964
    15  C   -0.286902
    16  C   -0.208522
    17  H    0.174245
    18  H    0.139908
    19  O   -0.408470
    20  H    0.297166
 Sum of Mulliken charges =  -0.00000
 Mulliken charges with hydrogens summed into heavy atoms:
               1
     1  C   -0.144642
     2  C    0.308484
     3  C    0.160131
     4  C    0.169784
     6  S   -0.436343
     8  C    0.054686
     9  S   -0.569598
    10  C    0.263490
    11  C    0.011558
    12  C    0.607989
    14  S   -0.132964
    15  C   -0.112657
    16  C   -0.068614
    19  O   -0.111304
 Electronic spatial extent (au):  <R**2>=           4400.2658
 Charge=             -0.0000 electrons
 Dipole moment (field-independent basis, Debye):
    X=              1.7016    Y=              1.1965    Z=              1.3924  Tot=              2.5032
 Quadrupole moment (field-independent basis, Debye-Ang):
   XX=            -83.3532   YY=            -90.5776   ZZ=           -108.7514
   XY=              6.4097   XZ=             -2.9429   YZ=              0.2113
 Traceless Quadrupole moment (field-independent basis, Debye-Ang):
   XX=             10.8742   YY=              3.6498   ZZ=            -14.5240
   XY=              6.4097   XZ=             -2.9429   YZ=              0.2113
 Octapole moment (field-independent basis, Debye-Ang**2):
  XXX=             53.7970  YYY=             54.3500  ZZZ=              2.0274  XYY=             32.6886
  XXY=             11.6752  XXZ=             33.5679  XZZ=             -3.4143  YZZ=              1.6662
  YYZ=             10.4375  XYZ=             13.3113
 Hexadecapole moment (field-independent basis, Debye-Ang**3):
 XXXX=          -4234.0200 YYYY=           -906.3787 ZZZZ=           -192.8374 XXXY=             40.5006
 XXXZ=            -98.5094 YYYX=            154.1863 YYYZ=             18.2460 ZZZX=             -9.1208
 ZZZY=              1.1943 XXYY=           -863.8326 XXZZ=           -890.0592 YYZZ=           -229.0872
 XXYZ=             11.6801 YYXZ=              6.4800 ZZXY=              5.8844
 N-N= 1.104598755561D+03 E-N=-6.119480019182D+03  KE= 1.649483123258D+03
 Calling FoFJK, ICntrl=      2127 FMM=F ISym2X=0 I1Cent= 0 IOpClX= 0 NMat=1 NMatS=1 NMatT=0.
 ***** Axes restored to original set *****
 -------------------------------------------------------------------
 Center     Atomic                   Forces (Hartrees/Bohr)
 Number     Number              X              Y              Z
 -------------------------------------------------------------------
      1        6           0.017780434   -0.039708927    0.004945840
      2        6           0.023919365    0.021662730    0.013875591
      3        6          -0.024059753    0.021929259   -0.001020554
      4        6           0.008723165    0.052996592   -0.016072060
      5        1          -0.000445306    0.001798737    0.000564664
      6       16          -0.004842651    0.023604970   -0.004735987
      7        1           0.003043061   -0.003228300   -0.000338225
      8        6           0.035951635    0.044862532   -0.000770103
      9       16          -0.007821831    0.006245924    0.012157535
     10        6           0.011085051    0.031703175   -0.013053328
     11        6          -0.034507423   -0.025435220   -0.006417186
     12        6          -0.023619480   -0.043011827   -0.003101773
     13        1          -0.004836251   -0.001042222    0.005841049
     14       16           0.013084623   -0.013942919   -0.002852018
     15        6          -0.036430394   -0.042977267    0.014319920
     16        6           0.020305723    0.048845349   -0.014806654
     17        1           0.003955060    0.003304593    0.005123731
     18        1           0.006560473    0.000669315    0.006170651
     19        8          -0.029520603    0.017845038   -0.003628188
     20        1           0.021675105   -0.106121530    0.003797093
 -------------------------------------------------------------------
 Cartesian Forces:  Max     0.106121530 RMS     0.024847152

 GradGradGradGradGradGradGradGradGradGradGradGradGradGradGradGradGradGrad
 Berny optimization.
 FormGI is forming the generalized inverse of G from B-inverse, IUseBI=4.
 Internal  Forces:  Max     0.104570615 RMS     0.019701266
 Search for a local minimum.
 Step number   1 out of a maximum of  116
 All quantities printed in internal units (Hartrees-Bohrs-Radians)
 Mixed Optimization -- RFO/linear search
 Second derivative matrix not updated -- first step.
 ITU=  0
     Eigenvalues ---    0.00230   0.00994   0.01057   0.01221   0.01271
     Eigenvalues ---    0.01295   0.01362   0.01420   0.01458   0.01492
     Eigenvalues ---    0.01500   0.01592   0.01597   0.01769   0.02200
     Eigenvalues ---    0.02651   0.15080   0.15682   0.15734   0.15997
     Eigenvalues ---    0.16000   0.16000   0.18006   0.22444   0.22526
     Eigenvalues ---    0.23321   0.23979   0.24118   0.24633   0.24978
     Eigenvalues ---    0.24995   0.26145   0.26583   0.28307   0.28330
     Eigenvalues ---    0.28663   0.30910   0.31310   0.31531   0.34832
     Eigenvalues ---    0.35243   0.35872   0.35921   0.36006   0.36093
     Eigenvalues ---    0.36185   0.36334   0.37598   0.38279   0.38435
     Eigenvalues ---    0.39456   0.39679   0.406491000.000001000.00000
     Eigenvalues --- 1000.000001000.000001000.000001000.000001000.00000
     Eigenvalues --- 1000.000001000.000001000.000001000.000001000.00000
     Eigenvalues --- 1000.000001000.000001000.000001000.000001000.00000
     Eigenvalues --- 1000.000001000.000001000.000001000.000001000.00000
     Eigenvalues --- 1000.000001000.000001000.000001000.000001000.00000
     Eigenvalues --- 1000.000001000.000001000.000001000.000001000.00000
     Eigenvalues --- 1000.000001000.000001000.000001000.000001000.00000
     Eigenvalues --- 1000.000001000.000001000.000001000.000001000.00000
     Eigenvalues --- 1000.000001000.000001000.000001000.000001000.00000
     Eigenvalues --- 1000.000001000.000001000.000001000.000001000.00000
     Eigenvalues --- 1000.00000
 RFO step:  Lambda=-1.05668099D-01 EMin= 2.30000000D-03
 Linear search not attempted -- first point.
 Maximum step size (   0.300) exceeded in Quadratic search.
    -- Step size scaled by   0.585
 Iteration  1 RMS(Cart)=  0.06514702 RMS(Int)=  0.00173170
 Iteration  2 RMS(Cart)=  0.00184493 RMS(Int)=  0.00013579
 Iteration  3 RMS(Cart)=  0.00001180 RMS(Int)=  0.00013550
 Iteration  4 RMS(Cart)=  0.00000000 RMS(Int)=  0.00013550
 Iteration  1 RMS(Cart)=  0.00000092 RMS(Int)=  0.00000037
 Variable       Old X    -DE/DX   Delta X   Delta X   Delta X     New X
                                 (Linear)    (Quad)   (Total)
    R1        2.71917  -0.02409   0.00000  -0.02939  -0.02929   2.68988
    R2        2.71391  -0.05457   0.00000  -0.06348  -0.06346   2.65045
    R3        2.03793   0.00149   0.00000   0.00186   0.00186   2.03979
    R4        2.75906  -0.06206   0.00000  -0.07696  -0.07690   2.68217
    R5        2.90711  -0.08535   0.00000  -0.12724  -0.12724   2.77987
    R6        3.39578  -0.02173   0.00000  -0.03304  -0.03310   3.36268
    R7        2.74954  -0.01691   0.00000  -0.02053  -0.02053   2.72901
    R8        3.28671  -0.01050   0.00000  -0.01339  -0.01347   3.27324
    R9        2.04073  -0.00111   0.00000  -0.00139  -0.00139   2.03934
   R10        3.38233  -0.01086   0.00000  -0.01536  -0.01548   3.36685
   R11        2.76759  -0.06080   0.00000  -0.07596  -0.07602   2.69157
   R12        3.27022   0.00045   0.00000   0.00147   0.00149   3.27171
   R13        2.72166  -0.03038   0.00000  -0.03657  -0.03633   2.68533
   R14        2.69457  -0.00330   0.00000  -0.00489  -0.00479   2.68978
   R15        2.70758  -0.01316   0.00000  -0.01635  -0.01628   2.69130
   R16        3.27377   0.00172   0.00000   0.00349   0.00348   3.27725
   R17        2.03936   0.00069   0.00000   0.00086   0.00086   2.04023
   R18        3.33713  -0.01240   0.00000  -0.01733  -0.01747   3.31966
   R19        2.73109  -0.05749   0.00000  -0.06859  -0.06864   2.66245
   R20        2.04205  -0.00102   0.00000  -0.00128  -0.00128   2.04077
   R21        2.05282  -0.00361   0.00000  -0.00460  -0.00460   2.04822
   R22        2.18171  -0.10457   0.00000  -0.15733  -0.15733   2.02439
    A1        1.97020  -0.00254   0.00000  -0.00771  -0.00759   1.96261
    A2        2.17330   0.00029   0.00000   0.00171   0.00164   2.17494
    A3        2.13967   0.00225   0.00000   0.00603   0.00596   2.14563
    A4        1.97187   0.01585   0.00000   0.02410   0.02423   1.99610
    A5        2.21760  -0.00345   0.00000  -0.00331  -0.00343   2.21417
    A6        2.06941  -0.01158   0.00000  -0.01704  -0.01720   2.05221
    A7        1.90440  -0.00630   0.00000  -0.01006  -0.01004   1.89436
    A8        2.31891  -0.01049   0.00000  -0.01744  -0.01746   2.30146
    A9        2.05972   0.01679   0.00000   0.02744   0.02742   2.08714
   A10        1.95339  -0.00163   0.00000  -0.00250  -0.00255   1.95084
   A11        2.17580   0.00521   0.00000   0.01092   0.01094   2.18675
   A12        2.15384  -0.00357   0.00000  -0.00841  -0.00838   2.14546
   A13        1.62490  -0.00537   0.00000  -0.00379  -0.00404   1.62086
   A14        2.12886  -0.00116   0.00000  -0.00163  -0.00164   2.12722
   A15        2.24068  -0.00679   0.00000  -0.01092  -0.01092   2.22976
   A16        1.91298   0.00800   0.00000   0.01270   0.01270   1.92568
   A17        1.61906  -0.00704   0.00000  -0.00902  -0.00895   1.61011
   A18        1.96184  -0.01070   0.00000  -0.01518  -0.01538   1.94645
   A19        2.23830   0.00787   0.00000   0.01953   0.01914   2.25744
   A20        1.96562   0.00638   0.00000   0.01029   0.01040   1.97602
   A21        1.96605   0.00855   0.00000   0.01322   0.01322   1.97927
   A22        1.96734  -0.01400   0.00000  -0.02025  -0.02044   1.94691
   A23        2.23689   0.00907   0.00000   0.02182   0.02147   2.25836
   A24        1.96415   0.00120   0.00000  -0.00174  -0.00162   1.96253
   A25        2.15988  -0.00606   0.00000  -0.01035  -0.01050   2.14938
   A26        2.14719   0.00544   0.00000   0.01496   0.01482   2.16202
   A27        1.59248   0.00080   0.00000   0.00305   0.00308   1.59556
   A28        1.95987   0.00134   0.00000   0.00102   0.00095   1.96082
   A29        2.13546  -0.00449   0.00000  -0.00782  -0.00797   2.12749
   A30        2.17044   0.00418   0.00000   0.01154   0.01143   2.18188
   A31        1.93914   0.00547   0.00000   0.00586   0.00596   1.94510
   A32        2.16633   0.00005   0.00000   0.00558   0.00529   2.17162
   A33        2.14114  -0.00363   0.00000  -0.00288  -0.00319   2.13795
   A34        2.32184  -0.06202   0.00000  -0.13654  -0.13654   2.18530
    D1        0.00683  -0.00082   0.00000  -0.00406  -0.00405   0.00279
    D2       -2.89394  -0.00357   0.00000  -0.02050  -0.02060  -2.91453
    D3       -3.13952   0.00040   0.00000   0.00250   0.00250  -3.13702
    D4        0.24290  -0.00235   0.00000  -0.01395  -0.01405   0.22884
    D5       -0.00671   0.00102   0.00000   0.00407   0.00400  -0.00271
    D6       -3.13020   0.00071   0.00000   0.00358   0.00356  -3.12664
    D7        3.13954  -0.00016   0.00000  -0.00233  -0.00241   3.13713
    D8        0.01605  -0.00048   0.00000  -0.00281  -0.00284   0.01321
    D9       -0.00388   0.00036   0.00000   0.00236   0.00233  -0.00155
   D10        3.11762   0.00030   0.00000  -0.00132  -0.00128   3.11634
   D11        2.91927   0.00367   0.00000   0.01873   0.01865   2.93792
   D12       -0.24242   0.00361   0.00000   0.01504   0.01505  -0.22737
   D13       -0.28016   0.00178   0.00000   0.00385   0.00374  -0.27642
   D14        3.11413  -0.00448   0.00000  -0.01847  -0.01836   3.09577
   D15        0.00006   0.00017   0.00000  -0.00008  -0.00007  -0.00001
   D16       -3.12486   0.00053   0.00000   0.00349   0.00355  -3.12131
   D17       -2.70537  -0.00153   0.00000   0.00000  -0.00000  -2.70537
   D18        0.39240   0.00030   0.00000   0.00527   0.00528   0.39767
   D19        0.41472  -0.00183   0.00000  -0.00433  -0.00434   0.41038
   D20       -2.77070  -0.00000   0.00000   0.00094   0.00094  -2.76976
   D21        0.00376  -0.00064   0.00000  -0.00220  -0.00220   0.00156
   D22        3.12751  -0.00023   0.00000  -0.00148  -0.00154   3.12597
   D23        3.13748   0.00107   0.00000   0.00427   0.00428  -3.14143
   D24        0.03235  -0.00015   0.00000   0.00037   0.00031   0.03266
   D25       -3.13833  -0.00178   0.00000  -0.00594  -0.00587   3.13898
   D26       -0.15823   0.00273   0.00000   0.01481   0.01476  -0.14347
   D27       -0.03620  -0.00027   0.00000  -0.00142  -0.00131  -0.03752
   D28        2.94390   0.00424   0.00000   0.01933   0.01932   2.96322
   D29       -0.02091   0.00090   0.00000   0.00135   0.00136  -0.01955
   D30       -2.61668  -0.00768   0.00000  -0.03136  -0.03137  -2.64805
   D31        0.00333  -0.00083   0.00000  -0.00194  -0.00189   0.00144
   D32       -2.68853  -0.01015   0.00000  -0.03545  -0.03497  -2.72350
   D33        2.68746   0.00787   0.00000   0.03004   0.02974   2.71720
   D34       -0.00441  -0.00145   0.00000  -0.00347  -0.00334  -0.00774
   D35        2.61416   0.00563   0.00000   0.02987   0.03020   2.64436
   D36       -0.24582  -0.00095   0.00000  -0.00177  -0.00161  -0.24743
   D37        0.01933   0.00133   0.00000   0.00350   0.00343   0.02277
   D38       -2.84064  -0.00525   0.00000  -0.02813  -0.02838  -2.86902
   D39        0.02181   0.00073   0.00000   0.00215   0.00207   0.02388
   D40       -2.95965  -0.00251   0.00000  -0.01573  -0.01601  -2.97566
   D41        2.62821   0.00448   0.00000   0.02811   0.02852   2.65673
   D42       -0.35325   0.00124   0.00000   0.01023   0.01044  -0.34281
   D43       -0.00899   0.00116   0.00000   0.00219   0.00212  -0.00687
   D44       -2.61507  -0.00818   0.00000  -0.03210  -0.03205  -2.64712
   D45        0.02008  -0.00030   0.00000  -0.00006  -0.00006   0.02002
   D46        2.97020   0.00585   0.00000   0.02712   0.02695   2.99715
   D47       -0.02601  -0.00043   0.00000  -0.00180  -0.00172  -0.02773
   D48        2.83873   0.00671   0.00000   0.03087   0.03094   2.86967
   D49       -2.97160  -0.00559   0.00000  -0.02709  -0.02718  -2.99878
   D50       -0.10687   0.00154   0.00000   0.00558   0.00548  -0.10138
         Item               Value     Threshold  Converged?
 Maximum Force            0.104571     0.000450     NO 
 RMS     Force            0.019794     0.000300     NO 
 Maximum Displacement     0.445481     0.001800     NO 
 RMS     Displacement     0.065307     0.001200     NO 
 Predicted change in Energy=-4.910403D-02
 GradGradGradGradGradGradGradGradGradGradGradGradGradGradGradGradGradGrad

                          Input orientation:                          
 ---------------------------------------------------------------------
 Center     Atomic      Atomic             Coordinates (Angstroms)
 Number     Number       Type             X           Y           Z
 ---------------------------------------------------------------------
      1          6           0       -4.201415   -1.327712   -0.198640
      2          6           0       -2.883272   -0.973217   -0.602323
      3          6           0       -1.964943   -2.055311   -0.618904
      4          6           0       -4.319525   -2.691551    0.106584
      5          1           0       -5.028568   -0.637485   -0.131332
      6         16           0       -2.818949   -3.530021   -0.106691
      7          1           0       -5.227025   -3.183814    0.420798
      8          6           0       -0.570000   -2.129993   -0.985053
      9         16           0        0.177923   -3.649962   -1.536973
     10          6           0        1.722771   -2.895469   -1.741010
     11          6           0        1.673012   -1.511329   -1.423251
     12          6           0        0.381925   -1.070902   -1.014117
     13          1           0        0.115561   -0.033728   -0.876463
     14         16           0        2.935561   -0.629015   -2.220180
     15          6           0        3.545503   -2.095044   -2.971631
     16          6           0        2.778246   -3.228095   -2.636174
     17          1           0        4.317209   -2.070695   -3.726698
     18          1           0        2.844778   -4.159921   -3.185765
     19          8           0       -2.336830    0.386001   -0.736109
     20          1           0       -2.918964    1.284262   -0.779067
 ---------------------------------------------------------------------
                    Distance matrix (angstroms):
                    1          2          3          4          5
     1  C    0.000000
     2  C    1.423421   0.000000
     3  C    2.389107   1.419342   0.000000
     4  C    1.402558   2.349051   2.544640   0.000000
     5  H    1.079410   2.221901   3.410829   2.185986   0.000000
     6  S    2.601890   2.605193   1.779454   1.732122   3.640026
     7  H    2.209229   3.380339   3.604952   1.079171   2.613049
     8  C    3.801220   2.614544   1.444129   3.945372   4.778624
     9  S    5.134451   4.172464   2.824472   4.883326   6.177249
    10  C    6.319236   5.119306   3.945152   6.321750   7.298639
    11  C    6.003522   4.660816   3.765316   6.296334   6.880686
    12  C    4.662399   3.292511   2.575470   5.097657   5.499145
    13  H    4.557424   3.154487   2.912323   5.263116   5.232762
    14  S    7.450586   6.049360   5.349144   7.893298   8.233511
    15  C    8.263959   6.942713   5.991821   8.466989   9.149124
    16  C    7.633394   6.424470   5.286080   7.628169   8.598363
    17  H    9.250198   7.925471   7.008855   9.469566  10.115547
    18  H    8.160463   7.045552   5.843935   8.020157   9.150230
    19  O    2.588892   1.471044   2.472254   3.756665   2.942572
    20  H    2.967151   2.264669   3.476860   4.307323   2.926278
                    6          7          8          9         10
     6  S    0.000000
     7  H    2.489364   0.000000
     8  C    2.790944   4.977433   0.000000
     9  S    3.322851   5.767463   1.781660   0.000000
    10  C    4.868354   7.283970   2.532632   1.731313   0.000000
    11  C    5.097662   7.335409   2.367671   2.611891   1.421018
    12  C    4.137183   6.163092   1.424317   2.639422   2.378085
    13  H    4.629034   6.336335   2.208191   3.676589   3.394131
    14  S    6.782113   8.951512   4.008420   4.146982   2.614819
    15  C    7.125538   9.468434   4.570020   3.977010   2.340398
    16  C    6.149637   8.569212   3.891373   2.854451   1.423371
    17  H    8.133808  10.465809   5.604011   4.941929   3.369617
    18  H    6.477289   8.894610   4.541415   3.176584   2.223748
    19  O    3.995476   4.736585   3.084459   4.822278   5.315847
    20  H    4.862037   5.170157   4.149361   5.874666   6.319904
                   11         12         13         14         15
    11  C    0.000000
    12  C    1.424174   0.000000
    13  H    2.215386   1.079642   0.000000
    14  S    1.734245   2.858480   3.179991   0.000000
    15  C    2.498885   3.858621   4.516996   1.756687   0.000000
    16  C    2.374871   3.609280   4.515579   2.636857   1.408907
    17  H    3.551132   4.883046   5.470550   2.501398   1.079930
    18  H    3.390358   4.508186   5.459576   3.661679   2.191024
    19  O    4.488971   3.097012   2.492006   5.570532   6.764243
    20  H    5.414475   4.061762   3.309822   6.325574   7.616848
                   16         17         18         19         20
    16  C    0.000000
    17  H    2.212967   0.000000
    18  H    1.083871   2.612571   0.000000
    19  O    6.544917   7.697741   7.315414   0.000000
    20  H    7.501227   8.503320   8.285653   1.071260   0.000000
 Stoichiometry    C10H6OS3
 Framework group  C1[X(C10H6OS3)]
 Deg. of freedom    54
 Full point group                 C1      NOp   1
 Largest Abelian subgroup         C1      NOp   1
 Largest concise Abelian subgroup C1      NOp   1
                         Standard orientation:                         
 ---------------------------------------------------------------------
 Center     Atomic      Atomic             Coordinates (Angstroms)
 Number     Number       Type             X           Y           Z
 ---------------------------------------------------------------------
      1          6           0        3.941784    0.870686    0.298163
      2          6           0        2.552076    1.174516    0.247918
      3          6           0        1.719138    0.061162   -0.037018
      4          6           0        4.203105   -0.484522    0.048583
      5          1           0        4.719573    1.589883    0.505351
      6         16           0        2.747108   -1.376909   -0.241189
      7          1           0        5.180835   -0.941308    0.048911
      8          6           0        0.284903   -0.066108   -0.147832
      9         16           0       -0.546291   -1.617510    0.128902
     10          6           0       -2.099369   -0.919423   -0.184259
     11          6           0       -1.999059    0.469290   -0.468347
     12          6           0       -0.662208    0.958977   -0.432194
     13          1           0       -0.403612    2.006312   -0.475142
     14         16           0       -3.484278    1.297836   -0.128877
     15          6           0       -4.252455   -0.197257    0.381565
     16          6           0       -3.376743   -1.299002    0.315963
     17          1           0       -5.229104   -0.208613    0.842298
     18          1           0       -3.585309   -2.239041    0.813561
     19          8           0        1.942581    2.512318    0.195252
     20          1           0        2.445317    3.429617    0.426373
 ---------------------------------------------------------------------
 Rotational constants (GHZ):           1.2260407           0.2831838           0.2334264
 Standard basis: 6-311+G(d,p) (5D, 7F)
 There are   382 symmetry adapted cartesian basis functions of A   symmetry.
 There are   368 symmetry adapted basis functions of A   symmetry.
   368 basis functions,   594 primitive gaussians,   382 cartesian basis functions
    61 alpha electrons       61 beta electrons
       nuclear repulsion energy      1116.9344664372 Hartrees.
 NAtoms=   20 NActive=   20 NUniq=   20 SFac= 1.00D+00 NAtFMM=   60 NAOKFM=F Big=F
 Integral buffers will be    131072 words long.
 Raffenetti 2 integral format.
 Two-electron integral symmetry is turned on.
 One-electron integrals computed using PRISM.
 NBasis=   368 RedAO= T EigKep=  2.32D-06  NBF=   368
 NBsUse=   367 1.00D-06 EigRej=  4.38D-07 NBFU=   367
 Initial guess from the checkpoint file:  "/tmp/pbs.4729018[20].pbs/Gau-3226146.chk"
 B after Tr=     0.000000    0.000000    0.000000
         Rot=    0.999998   -0.000786    0.000736   -0.001380 Ang=  -0.20 deg.
 ExpMin= 4.05D-02 ExpMax= 9.34D+04 ExpMxC= 3.17D+03 IAcc=3 IRadAn=         5 AccDes= 0.00D+00
 Harris functional with IExCor=  402 and IRadAn=       5 diagonalized for initial guess.
 HarFok:  IExCor=  402 AccDes= 0.00D+00 IRadAn=         5 IDoV= 1 UseB2=F ITyADJ=14
 ICtDFT=  3500011 ScaDFX=  1.000000  1.000000  1.000000  1.000000
 FoFCou: FMM=F IPFlag=           0 FMFlag=      100000 FMFlg1=           0
         NFxFlg=           0 DoJE=T BraDBF=F KetDBF=T FulRan=T
         wScrn=  0.000000 ICntrl=       500 IOpCl=  0 I1Cent=   200000004 NGrid=           0
         NMat0=    1 NMatS0=      1 NMatT0=    0 NMatD0=    1 NMtDS0=    0 NMtDT0=    0
 Petite list used in FoFCou.
 Requested convergence on RMS density matrix=1.00D-08 within 128 cycles.
 Requested convergence on MAX density matrix=1.00D-06.
 Requested convergence on             energy=1.00D-06.
 No special actions if energy rises.
 SCF Done:  E(RB3LYP) =  -1654.58749086     A.U. after   15 cycles
            NFock= 15  Conv=0.55D-08     -V/T= 2.0027
 Calling FoFJK, ICntrl=      2127 FMM=F ISym2X=0 I1Cent= 0 IOpClX= 0 NMat=1 NMatS=1 NMatT=0.
 ***** Axes restored to original set *****
 -------------------------------------------------------------------
 Center     Atomic                   Forces (Hartrees/Bohr)
 Number     Number              X              Y              Z
 -------------------------------------------------------------------
      1        6           0.005586806   -0.024599389    0.003411748
      2        6           0.026334901    0.032065678    0.009598862
      3        6          -0.021395578    0.007397814   -0.000704116
      4        6           0.004449848    0.031755636   -0.010333586
      5        1          -0.000158745    0.001802485    0.000572018
      6       16          -0.002191406    0.011102387   -0.002904344
      7        1           0.002402497   -0.003410782    0.000002583
      8        6           0.026274170    0.029848901   -0.000196989
      9       16          -0.006639747    0.001056818    0.010145004
     10        6           0.004972142    0.021907358   -0.009678056
     11        6          -0.020174096   -0.017744684   -0.009031031
     12        6          -0.015798572   -0.025028031   -0.001385258
     13        1          -0.002521261   -0.001323233    0.005221382
     14       16           0.011660267   -0.005477303   -0.000436992
     15        6          -0.023808978   -0.027674716    0.007560323
     16        6           0.012775172    0.029693064   -0.011186786
     17        1           0.003531269    0.003045575    0.004397593
     18        1           0.005118257   -0.001008719    0.005748841
     19        8          -0.033702779    0.014178453   -0.004465959
     20        1           0.023285833   -0.077587312    0.003664762
 -------------------------------------------------------------------
 Cartesian Forces:  Max     0.077587312 RMS     0.017828625

 GradGradGradGradGradGradGradGradGradGradGradGradGradGradGradGradGradGrad
 Berny optimization.
 Using GEDIIS/GDIIS optimizer.
 FormGI is forming the generalized inverse of G from B-inverse, IUseBI=4.
 Internal  Forces:  Max     0.077858379 RMS     0.013188502
 Search for a local minimum.
 Step number   2 out of a maximum of  116
 All quantities printed in internal units (Hartrees-Bohrs-Radians)
 Mixed Optimization -- RFO/linear search
 Update second derivatives using D2CorX and points    1    2
 DE= -5.25D-02 DEPred=-4.91D-02 R= 1.07D+00
 TightC=F SS=  1.41D+00  RLast= 3.19D-01 DXNew= 5.0454D-01 9.5676D-01
 Trust test= 1.07D+00 RLast= 3.19D-01 DXMaxT set to 5.05D-01
 ITU=  1  0
 Use linear search instead of GDIIS.
     Eigenvalues ---    0.00230   0.00996   0.01053   0.01218   0.01270
     Eigenvalues ---    0.01291   0.01343   0.01399   0.01460   0.01485
     Eigenvalues ---    0.01499   0.01592   0.01593   0.01735   0.02112
     Eigenvalues ---    0.02488   0.14350   0.15292   0.15763   0.15829
     Eigenvalues ---    0.16000   0.16025   0.18387   0.21125   0.22460
     Eigenvalues ---    0.22539   0.23408   0.24129   0.24393   0.24933
     Eigenvalues ---    0.25057   0.25602   0.26244   0.26636   0.28378
     Eigenvalues ---    0.28541   0.30889   0.31293   0.31504   0.34899
     Eigenvalues ---    0.35245   0.35921   0.36005   0.36087   0.36123
     Eigenvalues ---    0.36184   0.36433   0.37592   0.38178   0.39307
     Eigenvalues ---    0.39564   0.40567   0.428221000.000001000.00000
     Eigenvalues --- 1000.000001000.000001000.000001000.000001000.00000
     Eigenvalues --- 1000.000001000.000001000.000001000.000001000.00000
     Eigenvalues --- 1000.000001000.000001000.000001000.000001000.00000
     Eigenvalues --- 1000.000001000.000001000.000001000.000001000.00000
     Eigenvalues --- 1000.000001000.000001000.000001000.000001000.00000
     Eigenvalues --- 1000.000001000.000001000.000001000.000001000.00000
     Eigenvalues --- 1000.000001000.000001000.000001000.000001000.00000
     Eigenvalues --- 1000.000001000.000001000.000001000.000001000.00000
     Eigenvalues --- 1000.000001000.000001000.000001000.000001000.00000
     Eigenvalues --- 1000.000001000.000001000.000001000.000001000.00000
     Eigenvalues --- 1000.00000
 RFO step:  Lambda=-8.86310330D-03 EMin= 2.30069896D-03
 Quartic linear search produced a step of  1.37768.
 Iteration  1 RMS(Cart)=  0.08819994 RMS(Int)=  0.01655131
 Iteration  2 RMS(Cart)=  0.01907268 RMS(Int)=  0.00106368
 Iteration  3 RMS(Cart)=  0.00035806 RMS(Int)=  0.00102145
 Iteration  4 RMS(Cart)=  0.00000050 RMS(Int)=  0.00102145
 Iteration  1 RMS(Cart)=  0.00003164 RMS(Int)=  0.00001285
 Iteration  2 RMS(Cart)=  0.00001723 RMS(Int)=  0.00001435
 Iteration  3 RMS(Cart)=  0.00000939 RMS(Int)=  0.00001621
 Iteration  4 RMS(Cart)=  0.00000511 RMS(Int)=  0.00001743
 Iteration  5 RMS(Cart)=  0.00000278 RMS(Int)=  0.00001815
 Iteration  6 RMS(Cart)=  0.00000152 RMS(Int)=  0.00001855
 Iteration  7 RMS(Cart)=  0.00000083 RMS(Int)=  0.00001877
 Variable       Old X    -DE/DX   Delta X   Delta X   Delta X     New X
                                 (Linear)    (Quad)   (Total)
    R1        2.68988  -0.00897  -0.04036   0.03475  -0.00519   2.68469
    R2        2.65045  -0.03020  -0.08743   0.02000  -0.06751   2.58294
    R3        2.03979   0.00131   0.00257   0.00245   0.00501   2.04480
    R4        2.68217  -0.03366  -0.10594   0.03038  -0.07513   2.60703
    R5        2.77987  -0.06239  -0.17529  -0.06321  -0.23851   2.54136
    R6        3.36268  -0.01165  -0.04560   0.01942  -0.02631   3.33637
    R7        2.72901  -0.00513  -0.02828   0.03285   0.00457   2.73358
    R8        3.27324  -0.00547  -0.01856   0.00805  -0.01101   3.26223
    R9        2.03934  -0.00046  -0.00192   0.00145  -0.00047   2.03887
   R10        3.36685  -0.00625  -0.02133   0.00795  -0.01432   3.35253
   R11        2.69157  -0.03631  -0.10473   0.01114  -0.09415   2.59742
   R12        3.27171   0.00292   0.00205   0.01734   0.01961   3.29132
   R13        2.68533  -0.01819  -0.05005  -0.00043  -0.04870   2.63663
   R14        2.68978  -0.00026  -0.00660   0.00950   0.00344   2.69322
   R15        2.69130  -0.00491  -0.02243   0.01793  -0.00400   2.68730
   R16        3.27725   0.00350   0.00480   0.01582   0.02070   3.29795
   R17        2.04023   0.00002   0.00119  -0.00263  -0.00144   2.03879
   R18        3.31966  -0.00696  -0.02407   0.00943  -0.01548   3.30418
   R19        2.66245  -0.03427  -0.09456   0.00903  -0.08595   2.57650
   R20        2.04077  -0.00048  -0.00177   0.00098  -0.00079   2.03998
   R21        2.04822  -0.00173  -0.00634   0.00338  -0.00297   2.04525
   R22        2.02439  -0.07786  -0.21674  -0.08911  -0.30586   1.71853
    A1        1.96261  -0.00080  -0.01045   0.01006   0.00029   1.96290
    A2        2.17494  -0.00070   0.00226  -0.01092  -0.00903   2.16591
    A3        2.14563   0.00149   0.00821   0.00087   0.00872   2.15435
    A4        1.99610   0.00612   0.03338  -0.03288  -0.00039   1.99571
    A5        2.21417  -0.00434  -0.00473  -0.01510  -0.02276   2.19141
    A6        2.05221  -0.00099  -0.02370   0.06571   0.03953   2.09174
    A7        1.89436  -0.00121  -0.01383   0.02410   0.01099   1.90535
    A8        2.30146  -0.00829  -0.02405  -0.01239  -0.03679   2.26467
    A9        2.08714   0.00950   0.03778  -0.01159   0.02580   2.11294
   A10        1.95084  -0.00021  -0.00351   0.00773   0.00407   1.95491
   A11        2.18675   0.00433   0.01508   0.01310   0.02823   2.21498
   A12        2.14546  -0.00413  -0.01155  -0.02097  -0.03245   2.11301
   A13        1.62086  -0.00391  -0.00556  -0.00908  -0.01521   1.60565
   A14        2.12722  -0.00261  -0.00225  -0.01737  -0.01960   2.10762
   A15        2.22976  -0.00239  -0.01504   0.01801   0.00299   2.23274
   A16        1.92568   0.00504   0.01750  -0.00023   0.01705   1.94273
   A17        1.61011  -0.00428  -0.01233  -0.00216  -0.01393   1.59618
   A18        1.94645  -0.00630  -0.02119   0.00678  -0.01533   1.93112
   A19        2.25744   0.00576   0.02636   0.01588   0.03908   2.29652
   A20        1.97602   0.00350   0.01433  -0.00526   0.00900   1.98502
   A21        1.97927   0.00442   0.01822  -0.00676   0.01086   1.99013
   A22        1.94691  -0.00776  -0.02815   0.01441  -0.01507   1.93184
   A23        2.25836   0.00638   0.02958   0.01450   0.04062   2.29898
   A24        1.96253   0.00114  -0.00223   0.00340   0.00202   1.96455
   A25        2.14938  -0.00386  -0.01447   0.00513  -0.01030   2.13907
   A26        2.16202   0.00320   0.02042  -0.00640   0.01307   2.17509
   A27        1.59556  -0.00065   0.00425  -0.01541  -0.01034   1.58522
   A28        1.96082   0.00194   0.00130   0.01375   0.01438   1.97520
   A29        2.12749  -0.00453  -0.01098  -0.01783  -0.03007   2.09742
   A30        2.18188   0.00341   0.01575   0.00989   0.02459   2.20647
   A31        1.94510   0.00296   0.00821  -0.00672   0.00226   1.94736
   A32        2.17162  -0.00019   0.00729  -0.00474   0.00088   2.17249
   A33        2.13795  -0.00132  -0.00439   0.01562   0.00964   2.14759
   A34        2.18530  -0.04580  -0.18811  -0.04530  -0.23341   1.95189
    D1        0.00279  -0.00035  -0.00558   0.02614   0.02056   0.02335
    D2       -2.91453  -0.00456  -0.02838  -0.07668  -0.10309  -3.01762
    D3       -3.13702   0.00078   0.00344   0.02295   0.02591  -3.11112
    D4        0.22884  -0.00343  -0.01936  -0.07987  -0.09774   0.13110
    D5       -0.00271   0.00049   0.00551  -0.02236  -0.01656  -0.01927
    D6       -3.12664   0.00049   0.00490  -0.01314  -0.00828  -3.13492
    D7        3.13713  -0.00062  -0.00331  -0.01925  -0.02188   3.11525
    D8        0.01321  -0.00062  -0.00392  -0.01002  -0.01361  -0.00040
    D9       -0.00155   0.00007   0.00321  -0.01753  -0.01457  -0.01612
   D10        3.11634   0.00024  -0.00176  -0.01155  -0.01378   3.10256
   D11        2.93792   0.00330   0.02570   0.06548   0.09319   3.03111
   D12       -0.22737   0.00347   0.02073   0.07146   0.09399  -0.13339
   D13       -0.27642   0.00145   0.00515   0.07013   0.07538  -0.20104
   D14        3.09577  -0.00366  -0.02529  -0.02413  -0.04951   3.04626
   D15       -0.00001   0.00017  -0.00009   0.00393   0.00433   0.00432
   D16       -3.12131   0.00029   0.00488  -0.00110   0.00459  -3.11672
   D17       -2.70537  -0.00158  -0.00000   0.00000   0.00001  -2.70537
   D18        0.39767   0.00027   0.00727   0.01515   0.02257   0.42025
   D19        0.41038  -0.00154  -0.00598   0.00690   0.00059   0.41097
   D20       -2.76976   0.00030   0.00130   0.02205   0.02315  -2.74660
   D21        0.00156  -0.00037  -0.00303   0.01050   0.00713   0.00869
   D22        3.12597  -0.00027  -0.00212   0.00192   0.00010   3.12607
   D23       -3.14143   0.00102   0.00589  -0.00833  -0.00266   3.13910
   D24        0.03266  -0.00041   0.00043  -0.02156  -0.02163   0.01103
   D25        3.13898  -0.00132  -0.00809   0.01441   0.00637  -3.13784
   D26       -0.14347   0.00262   0.02034   0.02991   0.04994  -0.09353
   D27       -0.03752   0.00023  -0.00181   0.02776   0.02653  -0.01098
   D28        2.96322   0.00417   0.02662   0.04325   0.07010   3.03332
   D29       -0.01955   0.00071   0.00187   0.00970   0.01144  -0.00810
   D30       -2.64805  -0.00647  -0.04322  -0.02853  -0.07239  -2.72044
   D31        0.00144  -0.00047  -0.00260   0.00463   0.00206   0.00350
   D32       -2.72350  -0.00815  -0.04817  -0.04288  -0.08810  -2.81160
   D33        2.71720   0.00678   0.04097   0.04234   0.08090   2.79810
   D34       -0.00774  -0.00091  -0.00460  -0.00517  -0.00926  -0.01701
   D35        2.64436   0.00569   0.04161   0.02599   0.06916   2.71352
   D36       -0.24743  -0.00039  -0.00222   0.00582   0.00469  -0.24275
   D37        0.02277   0.00067   0.00473  -0.01569  -0.01139   0.01138
   D38       -2.86902  -0.00541  -0.03910  -0.03586  -0.07586  -2.94488
   D39        0.02388   0.00017   0.00285  -0.02134  -0.01890   0.00498
   D40       -2.97566  -0.00314  -0.02206  -0.03806  -0.06130  -3.03696
   D41        2.65673   0.00522   0.03929   0.03507   0.07614   2.73288
   D42       -0.34281   0.00192   0.01438   0.01835   0.03374  -0.30907
   D43       -0.00687   0.00088   0.00292   0.01839   0.02073   0.01387
   D44       -2.64712  -0.00682  -0.04416  -0.03231  -0.07729  -2.72441
   D45        0.02002  -0.00044  -0.00009  -0.02750  -0.02779  -0.00777
   D46        2.99715   0.00512   0.03713   0.01021   0.04564   3.04279
   D47       -0.02773   0.00002  -0.00238   0.02918   0.02731  -0.00042
   D48        2.86967   0.00613   0.04262   0.04559   0.08927   2.95894
   D49       -2.99878  -0.00485  -0.03745  -0.00685  -0.04541  -3.04419
   D50       -0.10138   0.00126   0.00755   0.00957   0.01655  -0.08483
         Item               Value     Threshold  Converged?
 Maximum Force            0.077858     0.000450     NO 
 RMS     Force            0.013249     0.000300     NO 
 Maximum Displacement     0.727753     0.001800     NO 
 RMS     Displacement     0.096417     0.001200     NO 
 Predicted change in Energy=-4.863855D-02
 GradGradGradGradGradGradGradGradGradGradGradGradGradGradGradGradGradGrad

                          Input orientation:                          
 ---------------------------------------------------------------------
 Center     Atomic      Atomic             Coordinates (Angstroms)
 Number     Number       Type             X           Y           Z
 ---------------------------------------------------------------------
      1          6           0       -4.148681   -1.273140   -0.172538
      2          6           0       -2.823099   -0.956791   -0.573887
      3          6           0       -1.966574   -2.037672   -0.610064
      4          6           0       -4.301294   -2.597710    0.128226
      5          1           0       -4.953692   -0.552301   -0.115928
      6         16           0       -2.839193   -3.486075   -0.102360
      7          1           0       -5.206246   -3.088872    0.450556
      8          6           0       -0.577172   -2.104116   -1.007108
      9         16           0        0.126959   -3.622879   -1.594419
     10          6           0        1.678215   -2.865674   -1.826217
     11          6           0        1.624794   -1.516771   -1.473635
     12          6           0        0.348828   -1.088390   -1.014664
     13          1           0        0.091008   -0.065927   -0.786455
     14         16           0        2.958733   -0.641429   -2.180816
     15          6           0        3.540658   -2.099649   -2.950363
     16          6           0        2.772523   -3.192837   -2.678638
     17          1           0        4.375261   -2.056570   -3.633684
     18          1           0        2.885027   -4.136665   -3.196236
     19          8           0       -2.348193    0.281316   -0.797779
     20          1           0       -3.014862    0.899152   -0.826992
 ---------------------------------------------------------------------
                    Distance matrix (angstroms):
                    1          2          3          4          5
     1  C    0.000000
     2  C    1.420677   0.000000
     3  C    2.353196   1.379583   0.000000
     4  C    1.366835   2.317464   2.511898   0.000000
     5  H    1.082061   2.216476   3.372444   2.160772   0.000000
     6  S    2.572307   2.572912   1.765530   1.726297   3.616396
     7  H    2.191706   3.357774   3.567270   1.078923   2.611299
     8  C    3.760678   2.558949   1.446546   3.924500   4.728240
     9  S    5.081743   4.105161   2.804409   4.860853   6.117793
    10  C    6.262869   5.047177   3.930534   6.296521   7.229037
    11  C    5.923277   4.572404   3.730283   6.233210   6.786018
    12  C    4.579399   3.205109   2.534940   5.020745   5.404797
    13  H    4.450754   3.054643   2.855264   5.151590   5.112256
    14  S    7.412663   6.009264   5.354942   7.865539   8.177908
    15  C    8.217381   6.888480   5.984182   8.439311   9.087479
    16  C    7.607157   6.382857   5.298343   7.633580   8.557705
    17  H    9.233140   7.898623   7.025774   9.472455  10.082995
    18  H    8.174079   7.040669   5.884903   8.066203   9.153222
    19  O    2.459475   1.344832   2.357664   3.600123   2.819302
    20  H    2.536278   1.882912   3.125844   3.846478   2.524161
                    6          7          8          9         10
     6  S    0.000000
     7  H    2.463012   0.000000
     8  C    2.800914   4.952056   0.000000
     9  S    3.323102   5.736738   1.774084   0.000000
    10  C    4.874788   7.254607   2.517475   1.741690   0.000000
    11  C    5.068109   7.268915   2.326215   2.587236   1.395245
    12  C    4.092025   6.083391   1.374494   2.609401   2.363182
    13  H    4.555378   6.223286   2.156238   3.647739   3.382146
    14  S    6.784389   8.920817   4.002458   4.153534   2.590894
    15  C    7.122906   9.436797   4.553326   3.976450   2.306337
    16  C    6.181792   8.571080   3.898690   2.891276   1.425190
    17  H    8.158558  10.466706   5.606046   4.965883   3.345989
    18  H    6.539268   8.936759   4.572785   3.230594   2.224582
    19  O    3.862373   4.591838   2.978358   4.690815   5.212791
    20  H    4.448164   4.726376   3.872258   5.559562   6.098961
                   11         12         13         14         15
    11  C    0.000000
    12  C    1.422060   0.000000
    13  H    2.220284   1.078879   0.000000
    14  S    1.745199   2.893318   3.240261   0.000000
    15  C    2.488173   3.867474   4.551770   1.748498   0.000000
    16  C    2.361888   3.615495   4.533040   2.606182   1.363424
    17  H    3.538681   4.899877   5.515813   2.473863   1.079512
    18  H    3.379259   4.525875   5.494042   3.640493   2.154006
    19  O    4.412995   3.032665   2.463820   5.561269   6.706801
    20  H    5.270790   3.911515   3.252606   6.315858   7.515074
                   16         17         18         19         20
    16  C    0.000000
    17  H    2.184487   0.000000
    18  H    1.082301   2.595949   0.000000
[...]
    20  H    7.470502   8.738140   8.318215   0.962444   0.000000
 Stoichiometry    C10H6OS3
 Framework group  C1[X(C10H6OS3)]
 Deg. of freedom    54
 Full point group                 C1      NOp   1
 Largest Abelian subgroup         C1      NOp   1
 Largest concise Abelian subgroup C1      NOp   1
                         Standard orientation:                         
 ---------------------------------------------------------------------
 Center     Atomic      Atomic             Coordinates (Angstroms)
 Number     Number       Type             X           Y           Z
 ---------------------------------------------------------------------
      1          6           0        3.928906    0.872892    0.115976
      2          6           0        2.531701    1.144656    0.172470
      3          6           0        1.734490    0.038686   -0.044810
      4          6           0        4.195387   -0.439734   -0.144478
      5          1           0        4.694479    1.624807    0.264842
      6         16           0        2.748658   -1.362921   -0.346737
      7          1           0        5.157042   -0.918891   -0.240354
      8          6           0        0.290161   -0.039203   -0.033888
      9         16           0       -0.523866   -1.576023    0.319545
     10          6           0       -2.087814   -0.825506    0.155359
     11          6           0       -1.953088    0.527578   -0.126155
     12          6           0       -0.612872    0.979510   -0.236541
     13          1           0       -0.309789    1.992056   -0.455372
     14         16           0       -3.519587    1.279207   -0.280841
     15          6           0       -4.311564   -0.248011    0.037022
     16          6           0       -3.434829   -1.273822    0.248566
     17          1           0       -5.390012   -0.287860    0.046940
     18          1           0       -3.741317   -2.288844    0.459927
     19          8           0        1.992157    2.378228    0.413121
     20          1           0        2.686201    2.986420    0.686440
 ---------------------------------------------------------------------
 Rotational constants (GHZ):           1.2968669           0.2801910           0.2338435

 **********************************************************************

            Population analysis using the SCF Density.

 **********************************************************************

 Orbital symmetries:
       Occupied  (A) (A) (A) (A) (A) (A) (A) (A) (A) (A) (A) (A)
                 (A) (A) (A) (A) (A) (A) (A) (A) (A) (A) (A) (A)
                 (A) (A) (A) (A) (A) (A) (A) (A) (A) (A) (A) (A)
                 (A) (A) (A) (A) (A) (A) (A) (A) (A) (A) (A) (A)
                 (A) (A) (A) (A) (A) (A) (A) (A) (A) (A) (A) (A)
                 (A)
       Virtual   (A) (A) (A) (A) (A) (A) (A) (A) (A) (A) (A) (A)
                 (A) (A) (A) (A) (A) (A) (A) (A) (A) (A) (A) (A)
                 (A) (A) (A) (A) (A) (A) (A) (A) (A) (A) (A) (A)
                 (A) (A) (A) (A) (A) (A) (A) (A) (A) (A) (A) (A)
                 (A) (A) (A) (A) (A) (A) (A) (A) (A) (A) (A) (A)
                 (A) (A) (A) (A) (A) (A) (A) (A) (A) (A) (A) (A)
                 (A) (A) (A) (A) (A) (A) (A) (A) (A) (A) (A) (A)
                 (A) (A) (A) (A) (A) (A) (A) (A) (A) (A) (A) (A)
                 (A) (A) (A) (A) (A) (A) (A) (A) (A) (A) (A) (A)
                 (A) (A) (A) (A) (A) (A) (A) (A) (A) (A) (A) (A)
                 (A) (A) (A) (A) (A) (A) (A) (A) (A) (A) (A) (A)
                 (A) (A) (A) (A) (A) (A) (A) (A) (A) (A) (A) (A)
                 (A) (A) (A) (A) (A) (A) (A) (A) (A) (A) (A) (A)
                 (A) (A) (A) (A) (A) (A) (A) (A) (A) (A) (A) (A)
                 (A) (A) (A) (A) (A) (A) (A) (A) (A) (A) (A) (A)
                 (A) (A) (A) (A) (A) (A) (A) (A) (A) (A) (A) (A)
                 (A) (A) (A) (A) (A) (A) (A) (A) (A) (A) (A) (A)
                 (A) (A) (A) (A) (A) (A) (A) (A) (A) (A) (A) (A)
                 (A) (A) (A) (A) (A) (A) (A) (A) (A) (A) (A) (A)
                 (A) (A) (A) (A) (A) (A) (A) (A) (A) (A) (A) (A)
                 (A) (A) (A) (A) (A) (A) (A) (A) (A) (A) (A) (A)
                 (A) (A) (A) (A) (A) (A) (A) (A) (A) (A) (A) (A)
                 (A) (A) (A) (A) (A) (A) (A) (A) (A) (A) (A) (A)
                 (A) (A) (A) (A) (A) (A) (A) (A) (A) (A) (A) (A)
                 (A) (A) (A) (A) (A) (A) (A) (A) (A) (A) (A) (A)
                 (A) (A) (A) (A) (A)
 The electronic state is 1-A.
 Alpha  occ. eigenvalues --  -88.88654 -88.87979 -88.87888 -19.17232 -10.24962
 Alpha  occ. eigenvalues --  -10.22122 -10.21569 -10.21459 -10.20689 -10.20632
 Alpha  occ. eigenvalues --  -10.20579 -10.19363 -10.18950 -10.18484  -7.97258
 Alpha  occ. eigenvalues --   -7.96554  -7.96473  -5.93565  -5.93189  -5.92865
 Alpha  occ. eigenvalues --   -5.92821  -5.92797  -5.92502  -5.92437  -5.92103
 Alpha  occ. eigenvalues --   -5.91988  -1.08200  -0.91252  -0.89411  -0.84639
 Alpha  occ. eigenvalues --   -0.77093  -0.76194  -0.74410  -0.70959  -0.70089
 Alpha  occ. eigenvalues --   -0.61978  -0.61147  -0.57036  -0.56132  -0.53807
 Alpha  occ. eigenvalues --   -0.51847  -0.49356  -0.48477  -0.45415  -0.43752
 Alpha  occ. eigenvalues --   -0.43603  -0.41216  -0.40818  -0.39849  -0.39087
 Alpha  occ. eigenvalues --   -0.37817  -0.36765  -0.36343  -0.35723  -0.34085
 Alpha  occ. eigenvalues --   -0.33675  -0.28847  -0.26798  -0.24876  -0.23342
 Alpha  occ. eigenvalues --   -0.20048
 Alpha virt. eigenvalues --   -0.05765  -0.02384  -0.01321  -0.00660   0.00358
 Alpha virt. eigenvalues --    0.00538   0.01223   0.01514   0.02147   0.02684
 Alpha virt. eigenvalues --    0.03381   0.03746   0.04060   0.04687   0.04809
 Alpha virt. eigenvalues --    0.05506   0.05559   0.06085   0.06590   0.07167
 Alpha virt. eigenvalues --    0.07616   0.07903   0.08496   0.09137   0.09602
 Alpha virt. eigenvalues --    0.09994   0.10333   0.11303   0.11597   0.11997
 Alpha virt. eigenvalues --    0.12208   0.12791   0.12987   0.13600   0.13828
 Alpha virt. eigenvalues --    0.14367   0.14712   0.15074   0.15578   0.15747
 Alpha virt. eigenvalues --    0.16295   0.17002   0.17081   0.17482   0.18148
 Alpha virt. eigenvalues --    0.18410   0.18894   0.19421   0.19661   0.20178
 Alpha virt. eigenvalues --    0.20417   0.20684   0.20693   0.21266   0.21813
 Alpha virt. eigenvalues --    0.22671   0.22899   0.23261   0.23822   0.24018
 Alpha virt. eigenvalues --    0.24486   0.25150   0.25507   0.26473   0.26677
 Alpha virt. eigenvalues --    0.26837   0.27541   0.28365   0.29067   0.30860
 Alpha virt. eigenvalues --    0.31432   0.31490   0.32387   0.32905   0.33682
 Alpha virt. eigenvalues --    0.34177   0.34913   0.35260   0.36198   0.37021
 Alpha virt. eigenvalues --    0.37886   0.39185   0.39403   0.41404   0.42564
 Alpha virt. eigenvalues --    0.43868   0.44505   0.45528   0.46284   0.47434
 Alpha virt. eigenvalues --    0.49953   0.51312   0.52204   0.53617   0.54123
 Alpha virt. eigenvalues --    0.55263   0.55774   0.56161   0.56970   0.57847
 Alpha virt. eigenvalues --    0.58918   0.59713   0.60592   0.61086   0.62489
 Alpha virt. eigenvalues --    0.63406   0.64255   0.64938   0.66269   0.67088
 Alpha virt. eigenvalues --    0.69590   0.70586   0.71412   0.72135   0.72651
 Alpha virt. eigenvalues --    0.73481   0.73794   0.74238   0.76170   0.76392
 Alpha virt. eigenvalues --    0.77789   0.77987   0.79016   0.79455   0.80024
 Alpha virt. eigenvalues --    0.81874   0.82550   0.82933   0.83649   0.84851
 Alpha virt. eigenvalues --    0.85541   0.86198   0.86390   0.86715   0.87567
 Alpha virt. eigenvalues --    0.89058   0.89589   0.90305   0.91301   0.94083
 Alpha virt. eigenvalues --    0.94896   0.96151   0.97555   0.98429   0.99798
 Alpha virt. eigenvalues --    1.02312   1.02929   1.03952   1.04211   1.05553
 Alpha virt. eigenvalues --    1.06383   1.07319   1.07862   1.09621   1.10705
 Alpha virt. eigenvalues --    1.13117   1.14627   1.15644   1.16395   1.19171
 Alpha virt. eigenvalues --    1.21535   1.26786   1.29372   1.31064   1.34526
 Alpha virt. eigenvalues --    1.34707   1.35842   1.36955   1.38876   1.41825
 Alpha virt. eigenvalues --    1.44435   1.49634   1.51763   1.54489   1.56797
 Alpha virt. eigenvalues --    1.57658   1.59162   1.59722   1.61174   1.61411
 Alpha virt. eigenvalues --    1.63886   1.64568   1.66268   1.69153   1.69855
 Alpha virt. eigenvalues --    1.72281   1.72965   1.73926   1.74876   1.76369
 Alpha virt. eigenvalues --    1.78199   1.78502   1.80059   1.81400   1.83291
 Alpha virt. eigenvalues --    1.85106   1.86108   1.87885   1.89759   1.91413
 Alpha virt. eigenvalues --    1.92284   1.93500   1.95516   1.96841   1.98816
 Alpha virt. eigenvalues --    2.00905   2.02899   2.04077   2.06296   2.07286
 Alpha virt. eigenvalues --    2.07987   2.08321   2.09186   2.10667   2.12453
 Alpha virt. eigenvalues --    2.14116   2.15421   2.17522   2.18310   2.20016
 Alpha virt. eigenvalues --    2.22561   2.26764   2.31590   2.38095   2.41142
 Alpha virt. eigenvalues --    2.41891   2.47074   2.51084   2.53366   2.58745
 Alpha virt. eigenvalues --    2.62170   2.62659   2.66355   2.68627   2.69899
 Alpha virt. eigenvalues --    2.71111   2.71328   2.71701   2.72906   2.74136
 Alpha virt. eigenvalues --    2.75194   2.78721   2.80890   2.85055   2.89810
 Alpha virt. eigenvalues --    2.92500   2.95051   2.96057   2.96788   3.01902
 Alpha virt. eigenvalues --    3.05589   3.07594   3.11365   3.12213   3.16648
 Alpha virt. eigenvalues --    3.17203   3.20138   3.25359   3.28514   3.29963
 Alpha virt. eigenvalues --    3.34706   3.37273   3.44347   3.46618   3.48524
 Alpha virt. eigenvalues --    3.52665   3.57708   3.69009   3.87248   3.91986
 Alpha virt. eigenvalues --    3.97034   4.05181   4.10702   4.20391   4.36981
 Alpha virt. eigenvalues --    4.60018   5.00089   5.44807   5.73123   7.96975
 Alpha virt. eigenvalues --    7.99608   8.01859  17.28223  17.28754  17.30485
 Alpha virt. eigenvalues --   17.45855  17.46229  17.49981  17.52467  17.55136
 Alpha virt. eigenvalues --   17.57772  23.46685  23.63361  23.77648  23.81221
 Alpha virt. eigenvalues --   23.86618  24.02528  24.03764  24.11851  24.14628
 Alpha virt. eigenvalues --   24.15357  49.93072 189.13684 189.16443 189.19128
          Condensed to atoms (all electrons):
               1          2          3          4          5          6
     1  C    8.696564  -3.593297   0.806609  -0.841685   0.393313   0.619005
     2  C   -3.593297  17.250308  -3.926393   2.228544  -0.084032  -3.212549
     3  C    0.806609  -3.926393  10.959289  -1.134547  -0.008561   0.223611
     4  C   -0.841685   2.228544  -1.134547   6.123955   0.040638  -0.366790
     5  H    0.393313  -0.084032  -0.008561   0.040638   0.538502   0.011576
     6  S    0.619005  -3.212549   0.223611  -0.366790   0.011576  17.814982
     7  H    0.056062  -0.047186   0.034299   0.352600  -0.005323  -0.028769
     8  C    0.128608  -1.063089  -1.131296  -0.260507  -0.008399   1.069767
     9  S   -0.104249   0.900652   0.721935   0.067423  -0.000692  -0.383676
    10  C   -0.056781   0.236009  -0.311859   0.022131  -0.000304  -0.199137
    11  C   -0.007593  -0.650771  -0.080440   0.013267   0.000564   0.247102
    12  C    0.266214  -2.160607  -1.048946  -0.115049   0.005526   0.668842
    13  H    0.007488   0.046456  -0.009527   0.002274   0.000003  -0.002891
    14  S   -0.003628  -0.058335  -0.059641   0.002349   0.000012   0.014131
    15  C    0.000476   0.006835  -0.007969  -0.000475  -0.000001  -0.008535
    16  C   -0.014517   0.077761   0.480716   0.004355  -0.000017  -0.084179
    17  H   -0.000001  -0.000008  -0.000071  -0.000000   0.000000   0.000004
    18  H   -0.000004  -0.000166  -0.001540   0.000010  -0.000000   0.000214
    19  O    0.034396  -0.087806  -0.052477  -0.013304  -0.006649   0.056499
    20  H   -0.166314   0.157201   0.036097   0.000594   0.004170  -0.008404
               7          8          9         10         11         12
     1  C    0.056062   0.128608  -0.104249  -0.056781  -0.007593   0.266214
     2  C   -0.047186  -1.063089   0.900652   0.236009  -0.650771  -2.160607
     3  C    0.034299  -1.131296   0.721935  -0.311859  -0.080440  -1.048946
     4  C    0.352600  -0.260507   0.067423   0.022131   0.013267  -0.115049
     5  H   -0.005323  -0.008399  -0.000692  -0.000304   0.000564   0.005526
     6  S   -0.028769   1.069767  -0.383676  -0.199137   0.247102   0.668842
     7  H    0.480435  -0.003455  -0.000126   0.000024  -0.000328  -0.000748
     8  C   -0.003455  12.656493  -0.075405  -0.947317  -2.331308  -1.245924
     9  S   -0.000126  -0.075405  18.113352  -0.234664  -0.764519  -1.539239
    10  C    0.000024  -0.947317  -0.234664  14.405957  -4.545329   0.174674
    11  C   -0.000328  -2.331308  -0.764519  -4.545329  12.052976   1.499229
    12  C   -0.000748  -1.245924  -1.539239   0.174674   1.499229  10.408736
    13  H   -0.000001  -0.034167   0.013555  -0.072819  -0.005890   0.390810
    14  S   -0.000005  -1.062920   0.083126   0.500266  -0.443394   0.007479
    15  C    0.000001  -0.147590  -0.032804   0.235756  -0.669524  -0.026115
    16  C   -0.000005   0.159291  -0.206349  -3.638651   1.506076  -1.355370
    17  H    0.000000   0.005472  -0.001010   0.031436   0.021112   0.000204
    18  H    0.000000  -0.008184   0.018531   0.017450  -0.068126   0.001362
    19  O   -0.000320  -0.017032  -0.018342  -0.009036   0.014208   0.064340
    20  H   -0.000014   0.017647  -0.001036   0.000184  -0.002283  -0.002667
              13         14         15         16         17         18
     1  C    0.007488  -0.003628   0.000476  -0.014517  -0.000001  -0.000004
     2  C    0.046456  -0.058335   0.006835   0.077761  -0.000008  -0.000166
     3  C   -0.009527  -0.059641  -0.007969   0.480716  -0.000071  -0.001540
     4  C    0.002274   0.002349  -0.000475   0.004355  -0.000000   0.000010
     5  H    0.000003   0.000012  -0.000001  -0.000017   0.000000  -0.000000
     6  S   -0.002891   0.014131  -0.008535  -0.084179   0.000004   0.000214
     7  H   -0.000001  -0.000005   0.000001  -0.000005   0.000000   0.000000
     8  C   -0.034167  -1.062920  -0.147590   0.159291   0.005472  -0.008184
     9  S    0.013555   0.083126  -0.032804  -0.206349  -0.001010   0.018531
    10  C   -0.072819   0.500266   0.235756  -3.638651   0.031436   0.017450
    11  C   -0.005890  -0.443394  -0.669524   1.506076   0.021112  -0.068126
    12  C    0.390810   0.007479  -0.026115  -1.355370   0.000204   0.001362
    13  H    0.507019   0.014036  -0.002088   0.003882  -0.000004   0.000005
    14  S    0.014036  17.444585   0.395135  -0.397912  -0.042479   0.012991
    15  C   -0.002088   0.395135   5.618716   0.372738   0.384584   0.020917
    16  C    0.003882  -0.397912   0.372738   9.038844  -0.039982   0.354715
    17  H   -0.000004  -0.042479   0.384584  -0.039982   0.479662  -0.004898
    18  H    0.000005   0.012991   0.020917   0.354715  -0.004898   0.523255
    19  O   -0.003333   0.000837   0.000190  -0.002056  -0.000000   0.000000
    20  H   -0.000579  -0.000205   0.000013  -0.000099  -0.000000  -0.000000
              19         20
     1  C    0.034396  -0.166314
     2  C   -0.087806   0.157201
     3  C   -0.052477   0.036097
     4  C   -0.013304   0.000594
     5  H   -0.006649   0.004170
     6  S    0.056499  -0.008404
     7  H   -0.000320  -0.000014
     8  C   -0.017032   0.017647
     9  S   -0.018342  -0.001036
    10  C   -0.009036   0.000184
    11  C    0.014208  -0.002283
    12  C    0.064340  -0.002667
    13  H   -0.003333  -0.000579
    14  S    0.000837  -0.000205
    15  C    0.000190   0.000013
    16  C   -0.002056  -0.000099
    17  H   -0.000000  -0.000000
    18  H    0.000000  -0.000000
    19  O    8.102138   0.188187
    20  H    0.188187   0.519909
 Mulliken charges:
               1
     1  C   -0.220664
     2  C   -0.019526
     3  C    0.510710
     4  C   -0.125784
     5  H    0.119672
     6  S   -0.430800
     7  H    0.162858
     8  C    0.299314
     9  S   -0.556464
    10  C    0.392010
    11  C    0.214973
    12  C    0.007249
    13  H    0.145774
    14  S   -0.406427
    15  C   -0.140258
    16  C   -0.259240
    17  H    0.165979
    18  H    0.133468
    19  O   -0.250441
    20  H    0.257598
 Sum of Mulliken charges =  -0.00000
 Mulliken charges with hydrogens summed into heavy atoms:
               1
     1  C   -0.100992
     2  C   -0.019526
     3  C    0.510710
     4  C    0.037074
     6  S   -0.430800
     8  C    0.299314
     9  S   -0.556464
    10  C    0.392010
    11  C    0.214973
    12  C    0.153023
    14  S   -0.406427
    15  C    0.025721
    16  C   -0.125772
    19  O    0.007157
 Electronic spatial extent (au):  <R**2>=           4314.4750
 Charge=             -0.0000 electrons
 Dipole moment (field-independent basis, Debye):
    X=              2.0861    Y=              1.0608    Z=              0.4244  Tot=              2.3785
 Quadrupole moment (field-independent basis, Debye-Ang):
   XX=            -79.7713   YY=            -94.2192   ZZ=           -108.0547
   XY=              9.3525   XZ=              1.0387   YZ=              0.9215
 Traceless Quadrupole moment (field-independent basis, Debye-Ang):
   XX=             14.2438   YY=             -0.2041   ZZ=            -14.0397
   XY=              9.3525   XZ=              1.0387   YZ=              0.9215
 Octapole moment (field-independent basis, Debye-Ang**2):
  XXX=             40.2859  YYY=             27.2460  ZZZ=              2.1390  XYY=             24.5891
  XXY=              8.7804  XXZ=              8.7042  XZZ=              4.9977  YZZ=              5.0547
  YYZ=              7.5497  XYZ=             13.0941
 Hexadecapole moment (field-independent basis, Debye-Ang**3):
 XXXX=          -4084.1308 YYYY=           -943.4285 ZZZZ=           -179.1183 XXXY=            109.6843
 XXXZ=              4.7570 YYYX=            117.5008 YYYZ=             20.1122 ZZZX=              7.5318
 ZZZY=              7.1903 XXYY=           -846.4053 XXZZ=           -902.3542 YYZZ=           -205.5507
 XXYZ=             26.0277 YYXZ=             17.6164 ZZXY=              8.2679
 N-N= 1.125965033792D+03 E-N=-6.163567452562D+03  KE= 1.651070442756D+03
 Unable to Open any file for archive entry.
 1\1\GINC-CX3-2-23\FOpt\RB3LYP\6-311+G(d,p)\C10H6O1S3\NS5018\17-Oct-202
 1\0\\# opt=modredundant b3lyp/6-311+g(d,p)\\pBTTT_-155.pdb\\0,1\C,-4.1
 246286644,-1.2696683429,-0.0221383741\C,-2.8299891105,-0.9553153089,-0
 .5264407182\C,-1.996905437,-2.0483498948,-0.6574854056\C,-4.2771004928
 ,-2.6017926172,0.2309110209\H,-4.9019636883,-0.5328837026,0.140762699\
 S,-2.8388724967,-3.4929784799,-0.120512816\H,-5.1465674045,-3.11285075
 06,0.613547801\C,-0.6396470472,-2.0841440812,-1.1563236544\S,0.0210873
 626,-3.5751046894,-1.8562089508\C,1.5429228533,-2.7903775296,-2.179297
 7539\C,1.4993263482,-1.4593714146,-1.785903933\C,0.2704192061,-1.05278
 98677,-1.2053135046\H,0.0500455953,-0.0630066433,-0.8355030869\S,3.020
 3622481,-0.672935294,-2.1187113379\C,3.6722030348,-2.1569130735,-2.777
 1743964\C,2.7839757351,-3.1941066576,-2.7457907121\H,4.6848924009,-2.1
 652689674,-3.1501725292\H,3.0100870799,-4.1866779212,-3.1098710756\O,-
 2.4130286187,0.3046272125,-0.8572129463\H,-3.1636189041,0.9069080238,-
 0.8441603259\\Version=ES64L-G16RevC.01\State=1-A\HF=-1654.6324966\RMSD
 =5.625e-09\RMSF=1.575e-04\Dipole=-0.8325538,0.4023039,0.1436862\Quadru
 pole=8.8166271,-0.4984523,-8.3181748,-6.3162882,-6.4744154,2.139254\PG
 =C01 [X(C10H6O1S3)]\\@
 The archive entry for this job was punched.


 CURIOUSER AND CURIOUSER

                  -- ALICE, IN WONDERLAND
 Job cpu time:       0 days  2 hours  9 minutes 47.3 seconds.
 Elapsed time:       0 days  0 hours 16 minutes 20.2 seconds.
 File lengths (MBytes):  RWF=     86 Int=      0 D2E=      0 Chk=     11 Scr=      1
 Normal termination of Gaussian 16 at Sun Oct 17 01:40:32 2021.
