 Entering Gaussian System, Link 0=g16
 Input=pg2T_TT_65.gjf
 Output=pg2T_TT_65.log
 Initial command:
 /apps/gaussian/g16-c01-avx/g16/l1.exe "/tmp/pbs.4766241[240].pbs/Gau-3916730.inp" -scrdir="/tmp/pbs.4766241[240].pbs/"
 Entering Link 1 = /apps/gaussian/g16-c01-avx/g16/l1.exe PID=   3916731.
  
 Copyright (c) 1988-2019, Gaussian, Inc.  All Rights Reserved.
  
 This is part of the Gaussian(R) 16 program.  It is based on
 the Gaussian(R) 09 system (copyright 2009, Gaussian, Inc.),
 the Gaussian(R) 03 system (copyright 2003, Gaussian, Inc.),
 the Gaussian(R) 98 system (copyright 1998, Gaussian, Inc.),
 the Gaussian(R) 94 system (copyright 1995, Gaussian, Inc.),
 the Gaussian 92(TM) system (copyright 1992, Gaussian, Inc.),
 the Gaussian 90(TM) system (copyright 1990, Gaussian, Inc.),
 the Gaussian 88(TM) system (copyright 1988, Gaussian, Inc.),
 the Gaussian 86(TM) system (copyright 1986, Carnegie Mellon
 University), and the Gaussian 82(TM) system (copyright 1983,
 Carnegie Mellon University). Gaussian is a federally registered
 trademark of Gaussian, Inc.
  
 This software contains proprietary and confidential information,
 including trade secrets, belonging to Gaussian, Inc.
  
 This software is provided under written license and may be
 used, copied, transmitted, or stored only in accord with that
 written license.
  
 The following legend is applicable only to US Government
 contracts under FAR:
  
                    RESTRICTED RIGHTS LEGEND
  
 Use, reproduction and disclosure by the US Government is
 subject to restrictions as set forth in subparagraphs (a)
 and (c) of the Commercial Computer Software - Restricted
 Rights clause in FAR 52.227-19.
  
 Gaussian, Inc.
 340 Quinnipiac St., Bldg. 40, Wallingford CT 06492
  
  
 ---------------------------------------------------------------
 Warning -- This program may not be used in any manner that
 competes with the business of Gaussian, Inc. or will provide
 assistance to any competitor of Gaussian, Inc.  The licensee
 of this program is prohibited from giving any competitor of
 Gaussian, Inc. access to this program.  By using this program,
 the user acknowledges that Gaussian, Inc. is engaged in the
 business of creating and licensing software in the field of
 computational chemistry and represents and warrants to the
 licensee that it is not a competitor of Gaussian, Inc. and that
 it will not use this program in any manner prohibited above.
 ---------------------------------------------------------------
  

 Cite this work as:
 Gaussian 16, Revision C.01,
 M. J. Frisch, G. W. Trucks, H. B. Schlegel, G. E. Scuseria, 
 M. A. Robb, J. R. Cheeseman, G. Scalmani, V. Barone, 
 G. A. Petersson, H. Nakatsuji, X. Li, M. Caricato, A. V. Marenich, 
 J. Bloino, B. G. Janesko, R. Gomperts, B. Mennucci, H. P. Hratchian, 
 J. V. Ortiz, A. F. Izmaylov, J. L. Sonnenberg, D. Williams-Young, 
 F. Ding, F. Lipparini, F. Egidi, J. Goings, B. Peng, A. Petrone, 
 T. Henderson, D. Ranasinghe, V. G. Zakrzewski, J. Gao, N. Rega, 
 G. Zheng, W. Liang, M. Hada, M. Ehara, K. Toyota, R. Fukuda, 
 J. Hasegawa, M. Ishida, T. Nakajima, Y. Honda, O. Kitao, H. Nakai, 
 T. Vreven, K. Throssell, J. A. Montgomery, Jr., J. E. Peralta, 
 F. Ogliaro, M. J. Bearpark, J. J. Heyd, E. N. Brothers, K. N. Kudin, 
 V. N. Staroverov, T. A. Keith, R. Kobayashi, J. Normand, 
 K. Raghavachari, A. P. Rendell, J. C. Burant, S. S. Iyengar, 
 J. Tomasi, M. Cossi, J. M. Millam, M. Klene, C. Adamo, R. Cammi, 
 J. W. Ochterski, R. L. Martin, K. Morokuma, O. Farkas, 
 J. B. Foresman, and D. J. Fox, Gaussian, Inc., Wallingford CT, 2019.
 
 ******************************************
 Gaussian 16:  ES64L-G16RevC.01  3-Jul-2019
                27-Oct-2021 
 ******************************************
 %mem=100GB
 %nprocshared=8
 Will use up to    8 processors via shared memory.
 ---------------------------------
 # opt=modredundant hf/aug-cc-pvdz
 ---------------------------------
 1/18=120,19=15,38=1/1,3;
 2/9=110,12=2,17=6,18=5,40=1/2;
 3/5=16,7=10,11=9,25=1,30=1,71=1/1,2,3;
 4//1;
 5/5=2,38=5/2;
 6/7=2,8=2,9=2,10=2,28=1/1;
 7//1,2,3,16;
 1/18=20,19=15/3(2);
 2/9=110/2;
 99//99;
 2/9=110/2;
 3/5=16,7=10,11=9,25=1,30=1,71=1/1,2,3;
 4/5=5,16=3,69=1/1;
 5/5=2,38=5/2;
 7//1,2,3,16;
 1/18=20,19=15/3(-5);
 2/9=110/2;
 6/7=2,8=2,9=2,10=2,19=2,28=1/1;
 99/9=1/99;
 --------------
 pg2T_TT_65.pdb
 --------------
 Symbolic Z-matrix:
 Charge =  0 Multiplicity = 1
 C                    -4.25     -1.36     -0.21 
 C                    -2.93     -0.95     -0.61 
 C                    -1.97     -2.05     -0.62 
 C                    -4.33     -2.76      0.1 
 S                    -2.8      -3.56     -0.11 
 H                    -5.23     -3.27      0.41 
 C                    -0.56     -2.13     -0.97 
 S                     0.7      -1.271    -0.032 
 C                     1.974    -1.866    -1.04 
 C                     1.49     -2.739    -2.079 
 C                     0.068    -2.909    -2.039 
 H                    -0.452    -3.648    -2.629 
 S                     2.689    -3.87     -2.613 
 C                     3.874    -3.208    -1.484 
 C                     3.329    -2.135    -0.683 
 H                     4.825    -3.686    -1.296 
 H                     3.797    -1.792     0.235 
 H                    -2.89      0.24     -0.97 
 O                    -5.6      -0.36     -0.4 
 H                    -5.76      0.85     -0.75 
 
 Add virtual bond connecting atoms H20        and O19        Dist= 2.40D+00.
 Add virtual bond connecting atoms O19        and C1         Dist= 3.20D+00.
 The following ModRedundant input section has been read:
 D       2       3       7       8 F                                           
 

 GradGradGradGradGradGradGradGradGradGradGradGradGradGradGradGradGradGrad
 Berny optimization.
 Initialization pass.
                           ----------------------------
                           !    Initial Parameters    !
                           ! (Angstroms and Degrees)  !
 --------------------------                            --------------------------
 ! Name  Definition              Value          Derivative Info.                !
 --------------------------------------------------------------------------------
 ! R1    R(1,2)                  1.4389         estimate D2E/DX2                !
 ! R2    R(1,4)                  1.4361         estimate D2E/DX2                !
 ! R3    R(1,19)                 1.6907         estimate D2E/DX2                !
 ! R4    R(2,3)                  1.46           estimate D2E/DX2                !
 ! R5    R(2,18)                 1.2439         estimate D2E/DX2                !
 ! R6    R(3,5)                  1.797          estimate D2E/DX2                !
 ! R7    R(3,7)                  1.455          estimate D2E/DX2                !
 ! R8    R(4,5)                  1.7393         estimate D2E/DX2                !
 ! R9    R(4,6)                  1.0799         estimate D2E/DX2                !
 ! R10   R(7,8)                  1.7903         estimate D2E/DX2                !
 ! R11   R(7,11)                 1.4642         estimate D2E/DX2                !
 ! R12   R(8,9)                  1.7301         estimate D2E/DX2                !
 ! R13   R(9,10)                 1.4408         estimate D2E/DX2                !
 ! R14   R(9,15)                 1.4268         estimate D2E/DX2                !
 ! R15   R(10,11)                1.4327         estimate D2E/DX2                !
 ! R16   R(10,13)                1.7326         estimate D2E/DX2                !
 ! R17   R(11,12)                1.0792         estimate D2E/DX2                !
 ! R18   R(13,14)                1.7655         estimate D2E/DX2                !
 ! R19   R(14,15)                1.4457         estimate D2E/DX2                !
 ! R20   R(14,16)                1.0808         estimate D2E/DX2                !
 ! R21   R(15,17)                1.086          estimate D2E/DX2                !
 ! R22   R(19,20)                1.2697         estimate D2E/DX2                !
 ! A1    A(2,1,4)              112.8843         estimate D2E/DX2                !
 ! A2    A(2,1,19)             122.1887         estimate D2E/DX2                !
 ! A3    A(4,1,19)             123.8039         estimate D2E/DX2                !
 ! A4    A(1,2,3)              112.9799         estimate D2E/DX2                !
 ! A5    A(1,2,18)             112.491          estimate D2E/DX2                !
 ! A6    A(3,2,18)             134.2373         estimate D2E/DX2                !
 ! A7    A(2,3,5)              109.1138         estimate D2E/DX2                !
 ! A8    A(2,3,7)              132.8639         estimate D2E/DX2                !
 ! A9    A(5,3,7)              118.0132         estimate D2E/DX2                !
 ! A10   A(1,4,5)              111.9209         estimate D2E/DX2                !
 ! A11   A(1,4,6)              124.6643         estimate D2E/DX2                !
 ! A12   A(5,4,6)              123.4062         estimate D2E/DX2                !
 ! A13   A(3,5,4)               93.0997         estimate D2E/DX2                !
 ! A14   A(3,7,8)              121.9786         estimate D2E/DX2                !
 ! A15   A(3,7,11)             128.3528         estimate D2E/DX2                !
 ! A16   A(8,7,11)             109.6284         estimate D2E/DX2                !
 ! A17   A(7,8,9)               92.7504         estimate D2E/DX2                !
 ! A18   A(8,9,10)             112.4059         estimate D2E/DX2                !
 ! A19   A(8,9,15)             128.1975         estimate D2E/DX2                !
 ! A20   A(10,9,15)            112.6568         estimate D2E/DX2                !
 ! A21   A(9,10,11)            112.6551         estimate D2E/DX2                !
 ! A22   A(9,10,13)            112.6632         estimate D2E/DX2                !
 ! A23   A(11,10,13)           128.1709         estimate D2E/DX2                !
 ! A24   A(7,11,10)            112.5165         estimate D2E/DX2                !
 ! A25   A(7,11,12)            123.8345         estimate D2E/DX2                !
 ! A26   A(10,11,12)           122.9732         estimate D2E/DX2                !
 ! A27   A(10,13,14)            91.2964         estimate D2E/DX2                !
 ! A28   A(13,14,15)           112.3077         estimate D2E/DX2                !
 ! A29   A(13,14,16)           122.4088         estimate D2E/DX2                !
 ! A30   A(15,14,16)           124.3029         estimate D2E/DX2                !
 ! A31   A(9,15,14)            111.0578         estimate D2E/DX2                !
 ! A32   A(9,15,17)            124.1388         estimate D2E/DX2                !
 ! A33   A(14,15,17)           122.7053         estimate D2E/DX2                !
 ! A34   A(1,19,20)            134.0455         estimate D2E/DX2                !
 ! D1    D(4,1,2,3)              0.3915         estimate D2E/DX2                !
 ! D2    D(4,1,2,18)           175.0898         estimate D2E/DX2                !
 ! D3    D(19,1,2,3)          -167.9154         estimate D2E/DX2                !
 ! D4    D(19,1,2,18)            6.7829         estimate D2E/DX2                !
 ! D5    D(2,1,4,5)             -0.3845         estimate D2E/DX2                !
 ! D6    D(2,1,4,6)           -179.3471         estimate D2E/DX2                !
 ! D7    D(19,1,4,5)           167.7032         estimate D2E/DX2                !
 ! D8    D(19,1,4,6)           -11.2593         estimate D2E/DX2                !
 ! D9    D(2,1,19,20)           -7.6334         estimate D2E/DX2                !
 ! D10   D(4,1,19,20)         -174.6479         estimate D2E/DX2                !
 ! D11   D(1,2,3,5)             -0.2224         estimate D2E/DX2                !
 ! D12   D(1,2,3,7)            178.6265         estimate D2E/DX2                !
 ! D13   D(18,2,3,5)          -173.3787         estimate D2E/DX2                !
 ! D14   D(18,2,3,7)             5.4701         estimate D2E/DX2                !
 ! D15   D(2,3,5,4)              0.0033         estimate D2E/DX2                !
 ! D16   D(7,3,5,4)           -179.041          estimate D2E/DX2                !
 ! D17   D(2,3,7,8)             65.017          Frozen                          !
 ! D18   D(2,3,7,11)          -117.5355         estimate D2E/DX2                !
 ! D19   D(5,3,7,8)           -116.2151         estimate D2E/DX2                !
 ! D20   D(5,3,7,11)            61.2324         estimate D2E/DX2                !
 ! D21   D(1,4,5,3)              0.2153         estimate D2E/DX2                !
 ! D22   D(6,4,5,3)            179.1932         estimate D2E/DX2                !
 ! D23   D(3,7,8,9)            179.7859         estimate D2E/DX2                !
 ! D24   D(11,7,8,9)             1.9108         estimate D2E/DX2                !
 ! D25   D(3,7,11,10)         -179.8627         estimate D2E/DX2                !
 ! D26   D(3,7,11,12)           -9.0564         estimate D2E/DX2                !
 ! D27   D(8,7,11,10)           -2.1613         estimate D2E/DX2                !
 ! D28   D(8,7,11,12)          168.6451         estimate D2E/DX2                !
 ! D29   D(7,8,9,10)            -1.2108         estimate D2E/DX2                !
 ! D30   D(7,8,9,15)          -149.9265         estimate D2E/DX2                !
 ! D31   D(8,9,10,11)            0.1557         estimate D2E/DX2                !
 ! D32   D(8,9,10,13)         -154.0023         estimate D2E/DX2                !
 ! D33   D(15,9,10,11)         153.9097         estimate D2E/DX2                !
 ! D34   D(15,9,10,13)          -0.2483         estimate D2E/DX2                !
 ! D35   D(8,9,15,14)          149.744          estimate D2E/DX2                !
 ! D36   D(8,9,15,17)          -14.1162         estimate D2E/DX2                !
 ! D37   D(10,9,15,14)           1.0917         estimate D2E/DX2                !
 ! D38   D(10,9,15,17)        -162.7685         estimate D2E/DX2                !
 ! D39   D(9,10,11,7)            1.3292         estimate D2E/DX2                !
 ! D40   D(9,10,11,12)        -169.5686         estimate D2E/DX2                !
 ! D41   D(13,10,11,7)         150.5562         estimate D2E/DX2                !
 ! D42   D(13,10,11,12)        -20.3416         estimate D2E/DX2                !
 ! D43   D(9,10,13,14)          -0.5087         estimate D2E/DX2                !
 ! D44   D(11,10,13,14)       -149.7337         estimate D2E/DX2                !
 ! D45   D(10,13,14,15)          1.1359         estimate D2E/DX2                !
 ! D46   D(10,13,14,16)        170.2503         estimate D2E/DX2                !
 ! D47   D(13,14,15,9)          -1.4691         estimate D2E/DX2                !
 ! D48   D(13,14,15,17)        162.6624         estimate D2E/DX2                !
 ! D49   D(16,14,15,9)        -170.341          estimate D2E/DX2                !
 ! D50   D(16,14,15,17)         -6.2094         estimate D2E/DX2                !
 --------------------------------------------------------------------------------
 Trust Radius=3.00D-01 FncErr=1.00D-07 GrdErr=1.00D-07 EigMax=2.50D+02 EigMin=1.00D-04
 Number of steps in this run=    116 maximum allowed number of steps=    120.
 GradGradGradGradGradGradGradGradGradGradGradGradGradGradGradGradGradGrad

                          Input orientation:                          
 ---------------------------------------------------------------------
 Center     Atomic      Atomic             Coordinates (Angstroms)
 Number     Number       Type             X           Y           Z
 ---------------------------------------------------------------------
      1          6           0       -4.250000   -1.360000   -0.210000
      2          6           0       -2.930000   -0.950000   -0.610000
      3          6           0       -1.970000   -2.050000   -0.620000
      4          6           0       -4.330000   -2.760000    0.100000
      5         16           0       -2.800000   -3.560000   -0.110000
      6          1           0       -5.230000   -3.270000    0.410000
      7          6           0       -0.560000   -2.130000   -0.970000
      8         16           0        0.700000   -1.271000   -0.032000
      9          6           0        1.974000   -1.866000   -1.040000
     10          6           0        1.490000   -2.739000   -2.079000
     11          6           0        0.068000   -2.909000   -2.039000
     12          1           0       -0.452000   -3.648000   -2.629000
     13         16           0        2.689000   -3.870000   -2.613000
     14          6           0        3.874000   -3.208000   -1.484000
     15          6           0        3.329000   -2.135000   -0.683000
     16          1           0        4.825000   -3.686000   -1.296000
     17          1           0        3.797000   -1.792000    0.235000
     18          1           0       -2.890000    0.240000   -0.970000
     19          8           0       -5.600000   -0.360000   -0.400000
     20          1           0       -5.760000    0.850000   -0.750000
 ---------------------------------------------------------------------
                    Distance matrix (angstroms):
                    1          2          3          4          5
     1  C    0.000000
     2  C    1.438923   0.000000
     3  C    2.417147   1.460034   0.000000
     4  C    1.436141   2.395871   2.567509   0.000000
     5  S    2.636759   2.660639   1.796970   1.739253   0.000000
     6  H    2.234480   3.422397   3.630000   1.079907   2.501879
     7  C    3.845335   2.671872   1.454991   3.969219   2.793224
     8  S    4.953999   3.689719   2.842795   5.247423   4.182775
     9  C    6.299453   5.007312   3.970566   6.468327   5.150302
    10  C    6.192124   4.989477   3.817722   6.214570   4.791148
    11  C    4.938600   3.855869   2.627715   4.892844   3.517139
    12  H    5.050872   4.182828   2.982283   4.824403   3.444736
    13  S    7.760427   6.641654   5.384304   7.606499   6.040714
    14  C    8.428378   7.221970   6.019950   8.367519   6.823053
    15  C    7.633190   6.370607   5.300056   7.724247   6.318512
    16  H    9.431081   8.252049   7.021787   9.307004   7.717713
    17  H    8.070865   6.831948   5.835741   8.185559   6.838513
    18  H    2.233204   1.243905   2.492589   3.495497   3.897140
    19  O    1.690739   2.742462   4.010162   2.760960   4.261936
    20  H    2.730531   3.356859   4.773992   3.974858   5.349701
                    6          7          8          9         10
     6  H    0.000000
     7  C    5.001290   0.000000
     8  S    6.273457   1.790342   0.000000
     9  C    7.481399   2.548677   1.730077   0.000000
    10  C    7.185783   2.408996   2.639949   1.440800   0.000000
    11  C    5.847797   1.464236   2.666555   2.391377   1.432684
    12  H    5.675182   2.251282   3.704273   3.403810   2.213627
    13  S    8.497593   4.035226   4.168031   2.646048   1.732604
    14  C    9.299134   4.592019   3.991810   2.368143   2.501488
    15  C    8.702836   3.899579   2.842875   1.426827   2.386536
    16  H   10.207180   5.614770   4.944244   3.392070   3.554170
    17  H    9.148871   4.533180   3.151847   2.225855   3.402007
    18  H    4.438479   3.323522   4.006378   5.300814   5.411906
    19  O    3.043206   5.372095   6.376154   7.748749   7.664645
    20  H    4.312876   5.997399   6.837087   8.202165   8.198150
                   11         12         13         14         15
    11  C    0.000000
    12  H    1.079176   0.000000
    13  S    2.850024   3.148876   0.000000
    14  C    3.857857   4.496543   1.765534   0.000000
    15  C    3.615513   4.513540   2.672962   1.445668   0.000000
    16  H    4.876969   5.442891   2.516116   1.080846   2.240399
    17  H    4.508238   5.449884   3.695518   2.228440   1.086000
    18  H    4.450699   4.879823   7.121572   7.609507   6.663254
    19  O    6.427281   6.502406   9.269573   9.952027   9.108115
    20  H    7.053877   7.206768   9.855697  10.479507   9.566851
                   16         17         18         19         20
    16  H    0.000000
    17  H    2.643479   0.000000
    18  H    8.662620   7.092039   0.000000
    19  O   10.979331   9.526671   2.833549   0.000000
    20  H   11.528904   9.964268   2.942346   1.269724   0.000000
 Stoichiometry    C10H6OS3
 Framework group  C1[X(C10H6OS3)]
 Deg. of freedom    54
 Full point group                 C1      NOp   1
 Largest Abelian subgroup         C1      NOp   1
 Largest concise Abelian subgroup C1      NOp   1
                         Standard orientation:                         
 ---------------------------------------------------------------------
 Center     Atomic      Atomic             Coordinates (Angstroms)
 Number     Number       Type             X           Y           Z
 ---------------------------------------------------------------------
      1          6           0        3.928382    0.230429    0.176775
      2          6           0        2.651443    0.784166    0.541881
      3          6           0        1.526014    0.010884    0.025021
      4          6           0        3.814140   -0.956541   -0.623569
      5         16           0        2.154099   -1.388167   -0.911604
      6          1           0        4.650566   -1.530991   -0.993161
      7          6           0        0.083831    0.157626    0.149818
      8         16           0       -0.789765    1.559906   -0.539939
      9          6           0       -2.323918    0.982103    0.012948
     10          6           0       -2.220502   -0.280977    0.698396
     11          6           0       -0.873151   -0.763275    0.766352
     12          1           0       -0.622105   -1.760575    1.093443
     13         16           0       -3.685397   -1.203137    0.623415
     14          6           0       -4.484516    0.066898   -0.306923
     15          6           0       -3.607440    1.184007   -0.576663
     16          1           0       -5.449899   -0.075644   -0.771623
     17          1           0       -3.814991    1.920172   -1.347625
     18          1           0        2.756450    1.753581    1.314221
     19          8           0        5.371999    0.751212    0.886249
     20          1           0        5.675295    1.694209    1.680585
 ---------------------------------------------------------------------
 Rotational constants (GHZ):           1.3945337           0.2225657           0.2071635
 Standard basis: Aug-CC-pVDZ (5D, 7F)
 There are   416 symmetry adapted cartesian basis functions of A   symmetry.
 There are   388 symmetry adapted basis functions of A   symmetry.
   388 basis functions,   782 primitive gaussians,   416 cartesian basis functions
    61 alpha electrons       61 beta electrons
       nuclear repulsion energy      1076.3207843805 Hartrees.
 NAtoms=   20 NActive=   20 NUniq=   20 SFac= 1.00D+00 NAtFMM=   60 NAOKFM=F Big=F
 Integral buffers will be    131072 words long.
 Raffenetti 1 integral format.
 Two-electron integral symmetry is turned on.
 One-electron integrals computed using PRISM.
 NBasis=   388 RedAO= T EigKep=  6.62D-06  NBF=   388
 NBsUse=   388 1.00D-06 EigRej= -1.00D+00 NBFU=   388
 ExpMin= 2.97D-02 ExpMax= 1.11D+05 ExpMxC= 1.07D+03 IAcc=3 IRadAn=         5 AccDes= 0.00D+00
 Harris functional with IExCor=  205 and IRadAn=       5 diagonalized for initial guess.
 HarFok:  IExCor=  205 AccDes= 0.00D+00 IRadAn=         5 IDoV= 1 UseB2=F ITyADJ=14
 ICtDFT=  3500011 ScaDFX=  1.000000  1.000000  1.000000  1.000000
 FoFCou: FMM=F IPFlag=           0 FMFlag=      100000 FMFlg1=           0
         NFxFlg=           0 DoJE=T BraDBF=F KetDBF=T FulRan=T
         wScrn=  0.000000 ICntrl=       500 IOpCl=  0 I1Cent=   200000004 NGrid=           0
         NMat0=    1 NMatS0=      1 NMatT0=    0 NMatD0=    1 NMtDS0=    0 NMtDT0=    0
 Petite list used in FoFCou.
 Requested convergence on RMS density matrix=1.00D-08 within 128 cycles.
 Requested convergence on MAX density matrix=1.00D-06.
 Requested convergence on             energy=1.00D-06.
 No special actions if energy rises.
 SCF Done:  E(RHF) =  -1649.42038328     A.U. after   18 cycles
            NFock= 18  Conv=0.57D-08     -V/T= 2.0016

 **********************************************************************

            Population analysis using the SCF Density.

 **********************************************************************

 Orbital symmetries:
       Occupied  (A) (A) (A) (A) (A) (A) (A) (A) (A) (A) (A) (A)
                 (A) (A) (A) (A) (A) (A) (A) (A) (A) (A) (A) (A)
                 (A) (A) (A) (A) (A) (A) (A) (A) (A) (A) (A) (A)
                 (A) (A) (A) (A) (A) (A) (A) (A) (A) (A) (A) (A)
                 (A) (A) (A) (A) (A) (A) (A) (A) (A) (A) (A) (A)
                 (A)
       Virtual   (A) (A) (A) (A) (A) (A) (A) (A) (A) (A) (A) (A)
                 (A) (A) (A) (A) (A) (A) (A) (A) (A) (A) (A) (A)
                 (A) (A) (A) (A) (A) (A) (A) (A) (A) (A) (A) (A)
                 (A) (A) (A) (A) (A) (A) (A) (A) (A) (A) (A) (A)
                 (A) (A) (A) (A) (A) (A) (A) (A) (A) (A) (A) (A)
                 (A) (A) (A) (A) (A) (A) (A) (A) (A) (A) (A) (A)
                 (A) (A) (A) (A) (A) (A) (A) (A) (A) (A) (A) (A)
                 (A) (A) (A) (A) (A) (A) (A) (A) (A) (A) (A) (A)
                 (A) (A) (A) (A) (A) (A) (A) (A) (A) (A) (A) (A)
                 (A) (A) (A) (A) (A) (A) (A) (A) (A) (A) (A) (A)
                 (A) (A) (A) (A) (A) (A) (A) (A) (A) (A) (A) (A)
                 (A) (A) (A) (A) (A) (A) (A) (A) (A) (A) (A) (A)
                 (A) (A) (A) (A) (A) (A) (A) (A) (A) (A) (A) (A)
                 (A) (A) (A) (A) (A) (A) (A) (A) (A) (A) (A) (A)
                 (A) (A) (A) (A) (A) (A) (A) (A) (A) (A) (A) (A)
                 (A) (A) (A) (A) (A) (A) (A) (A) (A) (A) (A) (A)
                 (A) (A) (A) (A) (A) (A) (A) (A) (A) (A) (A) (A)
                 (A) (A) (A) (A) (A) (A) (A) (A) (A) (A) (A) (A)
                 (A) (A) (A) (A) (A) (A) (A) (A) (A) (A) (A) (A)
                 (A) (A) (A) (A) (A) (A) (A) (A) (A) (A) (A) (A)
                 (A) (A) (A) (A) (A) (A) (A) (A) (A) (A) (A) (A)
                 (A) (A) (A) (A) (A) (A) (A) (A) (A) (A) (A) (A)
                 (A) (A) (A) (A) (A) (A) (A) (A) (A) (A) (A) (A)
                 (A) (A) (A) (A) (A) (A) (A) (A) (A) (A) (A) (A)
                 (A) (A) (A) (A) (A) (A) (A) (A) (A) (A) (A) (A)
                 (A) (A) (A) (A) (A) (A) (A) (A) (A) (A) (A) (A)
                 (A) (A) (A) (A) (A) (A) (A) (A) (A) (A) (A) (A)
                 (A) (A) (A)
 The electronic state is 1-A.
 Alpha  occ. eigenvalues --  -92.01532 -92.00616 -92.00455 -20.59901 -11.34956
 Alpha  occ. eigenvalues --  -11.31963 -11.31323 -11.30067 -11.29915 -11.29885
 Alpha  occ. eigenvalues --  -11.29357 -11.29081 -11.28446 -11.27781  -9.01441
 Alpha  occ. eigenvalues --   -9.00671  -9.00481  -6.69595  -6.69492  -6.69318
 Alpha  occ. eigenvalues --   -6.68836  -6.68747  -6.68641  -6.68558  -6.68546
 Alpha  occ. eigenvalues --   -6.68359  -1.25142  -1.20417  -1.16505  -1.10948
 Alpha  occ. eigenvalues --   -1.03831  -1.01186  -0.99053  -0.94970  -0.93014
 Alpha  occ. eigenvalues --   -0.83488  -0.78063  -0.74774  -0.71997  -0.71813
 Alpha  occ. eigenvalues --   -0.66658  -0.65974  -0.60298  -0.57919  -0.57457
 Alpha  occ. eigenvalues --   -0.55488  -0.55130  -0.54654  -0.53736  -0.52738
 Alpha  occ. eigenvalues --   -0.50848  -0.49567  -0.48206  -0.47707  -0.47013
 Alpha  occ. eigenvalues --   -0.45459  -0.39530  -0.35824  -0.33518  -0.32471
 Alpha  occ. eigenvalues --   -0.28111
 Alpha virt. eigenvalues --    0.02565   0.03407   0.04149   0.04573   0.04630
 Alpha virt. eigenvalues --    0.05117   0.05782   0.07274   0.08091   0.08230
 Alpha virt. eigenvalues --    0.08790   0.09352   0.10074   0.10313   0.10811
 Alpha virt. eigenvalues --    0.10927   0.11222   0.11747   0.12804   0.13121
 Alpha virt. eigenvalues --    0.13325   0.13651   0.13994   0.14526   0.14838
 Alpha virt. eigenvalues --    0.15146   0.15625   0.15732   0.16070   0.16335
 Alpha virt. eigenvalues --    0.16553   0.17176   0.17626   0.17676   0.17930
 Alpha virt. eigenvalues --    0.18712   0.18988   0.19547   0.19962   0.20486
 Alpha virt. eigenvalues --    0.20886   0.21191   0.21630   0.21909   0.22443
 Alpha virt. eigenvalues --    0.23035   0.23281   0.24325   0.24513   0.25009
 Alpha virt. eigenvalues --    0.25574   0.25955   0.26352   0.26771   0.26829
 Alpha virt. eigenvalues --    0.28134   0.28533   0.28672   0.29764   0.29917
 Alpha virt. eigenvalues --    0.30579   0.30679   0.31303   0.31987   0.32443
 Alpha virt. eigenvalues --    0.33080   0.33200   0.34184   0.34417   0.34992
 Alpha virt. eigenvalues --    0.35327   0.35837   0.36253   0.36426   0.37001
 Alpha virt. eigenvalues --    0.38019   0.38961   0.39545   0.40415   0.40993
 Alpha virt. eigenvalues --    0.41273   0.41916   0.42074   0.42956   0.43484
 Alpha virt. eigenvalues --    0.44296   0.44803   0.45152   0.45534   0.45894
 Alpha virt. eigenvalues --    0.46664   0.46938   0.48044   0.49063   0.50049
 Alpha virt. eigenvalues --    0.50605   0.51341   0.52055   0.52660   0.52784
 Alpha virt. eigenvalues --    0.53830   0.54249   0.55013   0.56590   0.56674
 Alpha virt. eigenvalues --    0.57632   0.58391   0.58489   0.59360   0.59762
 Alpha virt. eigenvalues --    0.60645   0.60941   0.62158   0.62786   0.63076
 Alpha virt. eigenvalues --    0.64182   0.64678   0.65152   0.65472   0.66003
 Alpha virt. eigenvalues --    0.66362   0.66777   0.67345   0.67893   0.68688
 Alpha virt. eigenvalues --    0.69344   0.69564   0.70525   0.71487   0.71840
 Alpha virt. eigenvalues --    0.72019   0.72795   0.73040   0.73676   0.74215
 Alpha virt. eigenvalues --    0.74555   0.75644   0.76294   0.76835   0.77119
 Alpha virt. eigenvalues --    0.78346   0.79285   0.79905   0.80885   0.81536
 Alpha virt. eigenvalues --    0.82042   0.82840   0.83656   0.84738   0.85336
 Alpha virt. eigenvalues --    0.86068   0.87383   0.88128   0.88833   0.89180
 Alpha virt. eigenvalues --    0.89849   0.90744   0.92299   0.92855   0.93069
 Alpha virt. eigenvalues --    0.93827   0.94537   0.95199   0.96295   0.96862
 Alpha virt. eigenvalues --    0.98094   0.98969   0.99153   0.99755   1.00738
 Alpha virt. eigenvalues --    1.01615   1.02204   1.02467   1.03045   1.03728
 Alpha virt. eigenvalues --    1.05101   1.07877   1.08873   1.09659   1.10398
 Alpha virt. eigenvalues --    1.11505   1.13281   1.14563   1.15314   1.16530
 Alpha virt. eigenvalues --    1.17188   1.17951   1.19117   1.20469   1.21253
 Alpha virt. eigenvalues --    1.21409   1.22306   1.23126   1.24129   1.24737
 Alpha virt. eigenvalues --    1.25546   1.26201   1.26602   1.27453   1.28377
 Alpha virt. eigenvalues --    1.28952   1.30032   1.30372   1.31751   1.32145
 Alpha virt. eigenvalues --    1.35665   1.36022   1.36764   1.37287   1.38233
 Alpha virt. eigenvalues --    1.39280   1.40659   1.41257   1.42554   1.45839
 Alpha virt. eigenvalues --    1.46780   1.47961   1.48945   1.50539   1.53320
 Alpha virt. eigenvalues --    1.54418   1.54980   1.56340   1.56961   1.57522
 Alpha virt. eigenvalues --    1.58672   1.59498   1.60669   1.61847   1.63137
 Alpha virt. eigenvalues --    1.63440   1.63911   1.65985   1.67718   1.68949
 Alpha virt. eigenvalues --    1.69888   1.71350   1.73022   1.73988   1.74468
 Alpha virt. eigenvalues --    1.76306   1.77390   1.78024   1.79344   1.80326
 Alpha virt. eigenvalues --    1.80437   1.82254   1.83059   1.84204   1.86184
 Alpha virt. eigenvalues --    1.87592   1.88739   1.90129   1.90758   1.92133
 Alpha virt. eigenvalues --    1.93501   1.94354   1.95064   1.96901   1.97836
 Alpha virt. eigenvalues --    1.99031   2.00089   2.01358   2.02336   2.03408
 Alpha virt. eigenvalues --    2.04666   2.06044   2.06612   2.07114   2.08433
 Alpha virt. eigenvalues --    2.09479   2.11076   2.11882   2.14456   2.16325
 Alpha virt. eigenvalues --    2.16652   2.18429   2.18568   2.20671   2.21339
 Alpha virt. eigenvalues --    2.23422   2.23555   2.25074   2.28237   2.29197
 Alpha virt. eigenvalues --    2.30889   2.31687   2.34224   2.34979   2.36497
 Alpha virt. eigenvalues --    2.37589   2.39194   2.40298   2.42489   2.44625
 Alpha virt. eigenvalues --    2.45694   2.49471   2.50937   2.51860   2.56038
 Alpha virt. eigenvalues --    2.58683   2.64275   2.69915   2.74581   2.76493
 Alpha virt. eigenvalues --    2.80358   2.81773   2.83889   2.84633   2.87195
 Alpha virt. eigenvalues --    2.94185   2.99861   3.03140   3.09273   3.13082
 Alpha virt. eigenvalues --    3.20079   3.24377   3.36762   3.44936   3.73716
 Alpha virt. eigenvalues --    3.76139   3.77980   3.81355   3.84493   4.00844
 Alpha virt. eigenvalues --    4.09707   4.11675
          Condensed to atoms (all electrons):
               1          2          3          4          5          6
     1  C    5.890778  -0.222536  -0.340623   0.603671  -0.263182   0.048055
     2  C   -0.222536   7.855291  -1.465135   0.013388  -0.342733   0.043041
     3  C   -0.340623  -1.465135   9.905140  -0.742008   0.583329   0.057387
     4  C    0.603671   0.013388  -0.742008   5.571479   0.211788   0.118044
     5  S   -0.263182  -0.342733   0.583329   0.211788  15.738819  -0.154889
     6  H    0.048055   0.043041   0.057387   0.118044  -0.154889   1.187373
     7  C    0.201873   0.303888  -2.685596   0.240584  -0.553469  -0.003982
     8  S    0.042210   0.291426  -0.657518   0.013091  -0.052411  -0.000693
     9  C    0.011113   0.003268   0.105569   0.021011  -0.010195   0.000137
    10  C   -0.011356  -0.120513   0.392300  -0.010471   0.067032   0.000854
    11  C   -0.059198  -0.401011   0.533379  -0.113503   0.247775   0.004990
    12  H   -0.008135   0.027984  -0.013186   0.008089   0.007117   0.000804
    13  S    0.001558  -0.006138   0.018928  -0.000824  -0.005691   0.000063
    14  C   -0.000987  -0.011628   0.041378   0.000334   0.002583   0.000019
    15  C    0.005670   0.050484  -0.266379  -0.000372  -0.016076  -0.000082
    16  H   -0.000026  -0.000501   0.002726   0.000035   0.000019   0.000004
    17  H    0.000645   0.004324  -0.010992   0.000012  -0.001548  -0.000004
    18  H   -0.035032   0.308641  -0.051324  -0.016108   0.014612  -0.001812
    19  O   -0.051335  -0.088025   0.013568  -0.038217   0.004770  -0.012551
    20  H    0.018555  -0.002551   0.000258  -0.015833   0.000890  -0.002582
               7          8          9         10         11         12
     1  C    0.201873   0.042210   0.011113  -0.011356  -0.059198  -0.008135
     2  C    0.303888   0.291426   0.003268  -0.120513  -0.401011   0.027984
     3  C   -2.685596  -0.657518   0.105569   0.392300   0.533379  -0.013186
     4  C    0.240584   0.013091   0.021011  -0.010471  -0.113503   0.008089
     5  S   -0.553469  -0.052411  -0.010195   0.067032   0.247775   0.007117
     6  H   -0.003982  -0.000693   0.000137   0.000854   0.004990   0.000804
     7  C   10.347441   0.546575  -0.291204  -0.658383  -1.813831   0.236443
     8  S    0.546575  16.005787   0.100694  -0.234876  -0.480561   0.034231
     9  C   -0.291204   0.100694   7.509389   0.213587  -0.276652  -0.046230
    10  C   -0.658383  -0.234876   0.213587   8.180125  -1.412875   0.199072
    11  C   -1.813831  -0.480561  -0.276652  -1.412875  10.040210  -0.481525
    12  H    0.236443   0.034231  -0.046230   0.199072  -0.481525   1.523166
    13  S   -0.121228  -0.005799  -0.013362   0.133932  -0.105499  -0.048807
    14  C    0.071247  -0.059884   0.085663  -0.262113  -0.264028   0.002657
    15  C   -0.088958  -0.005505  -1.176925   0.101993   0.333120  -0.010761
    16  H   -0.005496  -0.005683  -0.025351   0.012982   0.031794   0.001527
    17  H    0.047437  -0.028336   0.190135  -0.011030  -0.015500  -0.000279
    18  H   -0.010515   0.018420   0.006931  -0.009184  -0.003602   0.000223
    19  O    0.003512  -0.001612  -0.000124   0.000436   0.003883   0.000183
    20  H   -0.000961  -0.000046  -0.000018   0.000102   0.000351  -0.000002
              13         14         15         16         17         18
     1  C    0.001558  -0.000987   0.005670  -0.000026   0.000645  -0.035032
     2  C   -0.006138  -0.011628   0.050484  -0.000501   0.004324   0.308641
     3  C    0.018928   0.041378  -0.266379   0.002726  -0.010992  -0.051324
     4  C   -0.000824   0.000334  -0.000372   0.000035   0.000012  -0.016108
     5  S   -0.005691   0.002583  -0.016076   0.000019  -0.001548   0.014612
     6  H    0.000063   0.000019  -0.000082   0.000004  -0.000004  -0.001812
     7  C   -0.121228   0.071247  -0.088958  -0.005496   0.047437  -0.010515
     8  S   -0.005799  -0.059884  -0.005505  -0.005683  -0.028336   0.018420
     9  C   -0.013362   0.085663  -1.176925  -0.025351   0.190135   0.006931
    10  C    0.133932  -0.262113   0.101993   0.012982  -0.011030  -0.009184
    11  C   -0.105499  -0.264028   0.333120   0.031794  -0.015500  -0.003602
    12  H   -0.048807   0.002657  -0.010761   0.001527  -0.000279   0.000223
    13  S   15.629547   0.202902  -0.246734  -0.133733   0.008975  -0.000332
    14  C    0.202902   5.795114   0.239026   0.251200  -0.067636  -0.000268
    15  C   -0.246734   0.239026   6.772726   0.032253  -0.115213   0.000493
    16  H   -0.133733   0.251200   0.032253   1.229284  -0.058443  -0.000003
    17  H    0.008975  -0.067636  -0.115213  -0.058443   1.371990   0.000233
    18  H   -0.000332  -0.000268   0.000493  -0.000003   0.000233   0.897022
    19  O    0.000001   0.000005  -0.000008   0.000000  -0.000001  -0.019566
    20  H    0.000005   0.000003  -0.000001   0.000000  -0.000001   0.007313
              19         20
     1  C   -0.051335   0.018555
     2  C   -0.088025  -0.002551
     3  C    0.013568   0.000258
     4  C   -0.038217  -0.015833
     5  S    0.004770   0.000890
     6  H   -0.012551  -0.002582
     7  C    0.003512  -0.000961
     8  S   -0.001612  -0.000046
     9  C   -0.000124  -0.000018
    10  C    0.000436   0.000102
    11  C    0.003883   0.000351
    12  H    0.000183  -0.000002
    13  S    0.000001   0.000005
    14  C    0.000005   0.000003
    15  C   -0.000008  -0.000001
    16  H    0.000000   0.000000
    17  H   -0.000001  -0.000001
    18  H   -0.019566   0.007313
    19  O    9.105475   0.219211
    20  H    0.219211   0.355092
 Mulliken charges:
               1
     1  C    0.168280
     2  C   -0.240962
     3  C    0.578799
     4  C    0.135810
     5  S    0.521461
     6  H   -0.284177
     7  C    0.234625
     8  S    0.480489
     9  C   -0.407438
    10  C   -0.571613
    11  C    0.232283
    12  H   -0.432570
    13  S    0.692236
    14  C   -0.025586
    15  C    0.391251
    16  H   -0.332590
    17  H   -0.314769
    18  H   -0.106141
    19  O   -1.139605
    20  H    0.420215
 Sum of Mulliken charges =  -0.00000
 Mulliken charges with hydrogens summed into heavy atoms:
               1
     1  C    0.168280
     2  C   -0.347103
     3  C    0.578799
     4  C   -0.148367
     5  S    0.521461
     7  C    0.234625
     8  S    0.480489
     9  C   -0.407438
    10  C   -0.571613
    11  C   -0.200287
    13  S    0.692236
    14  C   -0.358176
    15  C    0.076482
    19  O   -0.719389
 Electronic spatial extent (au):  <R**2>=           4985.3862
 Charge=              0.0000 electrons
 Dipole moment (field-independent basis, Debye):
    X=             -1.4008    Y=              0.3564    Z=             -0.1765  Tot=              1.4562
 Quadrupole moment (field-independent basis, Debye-Ang):
   XX=            -99.6257   YY=            -97.7201   ZZ=           -104.2091
   XY=              3.6910   XZ=              9.4534   YZ=              3.1639
 Traceless Quadrupole moment (field-independent basis, Debye-Ang):
   XX=              0.8926   YY=              2.7982   ZZ=             -3.6908
   XY=              3.6910   XZ=              9.4534   YZ=              3.1639
 Octapole moment (field-independent basis, Debye-Ang**2):
  XXX=            -61.0666  YYY=              3.0237  ZZZ=              4.8267  XYY=             31.3589
  XXY=             25.3388  XXZ=            -10.9113  XZZ=             23.5162  YZZ=              8.5196
  YYZ=              5.3952  XYZ=             42.7364
 Hexadecapole moment (field-independent basis, Debye-Ang**3):
 XXXX=          -5591.6856 YYYY=           -793.0535 ZZZZ=           -390.7161 XXXY=            194.2613
 XXXZ=            308.4160 YYYX=             47.3657 YYYZ=             11.9621 ZZZX=             67.8402
 ZZZY=             17.1372 XXYY=           -938.3903 XXZZ=           -937.8579 YYZZ=           -170.4616
 XXYZ=            150.6693 YYXZ=             60.2748 ZZXY=             40.7904
 N-N= 1.076320784380D+03 E-N=-6.056871239421D+03  KE= 1.646818333074D+03
 Calling FoFJK, ICntrl=      2127 FMM=F ISym2X=0 I1Cent= 0 IOpClX= 0 NMat=1 NMatS=1 NMatT=0.
 ***** Axes restored to original set *****
 -------------------------------------------------------------------
 Center     Atomic                   Forces (Hartrees/Bohr)
 Number     Number              X              Y              Z
 -------------------------------------------------------------------
      1        6          -0.032770686   -0.004389491   -0.017758953
      2        6           0.018479607    0.018305110   -0.019214290
      3        6          -0.072188383    0.039207189    0.006979343
      4        6          -0.012645721    0.074664649   -0.013744502
      5       16          -0.003399309    0.041815307   -0.002690568
      6        1           0.004151848   -0.002540907   -0.002287814
      7        6           0.059370822   -0.030557039   -0.057767551
      8       16          -0.017119296   -0.001196044   -0.018437090
      9        6          -0.010381039   -0.046280246   -0.027782925
     10        6          -0.006499976    0.023365140    0.051140636
     11        6          -0.026388460    0.043128829    0.060510526
     12        1          -0.004976509    0.006465384   -0.002366961
     13       16           0.017826951    0.015763618    0.008493774
     14        6          -0.039012996    0.052568673    0.043319632
     15        6           0.025455937   -0.063869958   -0.038339254
     16        1          -0.000473284    0.002939820   -0.008275388
     17        1           0.003029057    0.004444035   -0.010550794
     18        1           0.016714182   -0.079004802    0.021671048
     19        8           0.034264492    0.035966603   -0.009883329
     20        1           0.046562763   -0.130795869    0.036984461
 -------------------------------------------------------------------
 Cartesian Forces:  Max     0.130795869 RMS     0.036817476

 GradGradGradGradGradGradGradGradGradGradGradGradGradGradGradGradGradGrad
 Berny optimization.
 FormGI is forming the generalized inverse of G from B-inverse, IUseBI=4.
 Internal  Forces:  Max     0.140705817 RMS     0.028738669
 Search for a local minimum.
 Step number   1 out of a maximum of  116
 All quantities printed in internal units (Hartrees-Bohrs-Radians)
 Mixed Optimization -- RFO/linear search
 Second derivative matrix not updated -- first step.
 ITU=  0
     Eigenvalues ---    0.00230   0.00983   0.01057   0.01222   0.01271
     Eigenvalues ---    0.01295   0.01386   0.01416   0.01417   0.01464
     Eigenvalues ---    0.01494   0.01554   0.01590   0.01761   0.02199
     Eigenvalues ---    0.02652   0.15077   0.15686   0.15738   0.15872
     Eigenvalues ---    0.15997   0.16000   0.17990   0.18458   0.20203
     Eigenvalues ---    0.21719   0.22443   0.23318   0.23380   0.23776
     Eigenvalues ---    0.23977   0.24292   0.24978   0.24995   0.26219
     Eigenvalues ---    0.26547   0.28359   0.30834   0.31293   0.31570
     Eigenvalues ---    0.34830   0.35279   0.35849   0.35892   0.36006
     Eigenvalues ---    0.36094   0.36319   0.37598   0.38221   0.38494
     Eigenvalues ---    0.39449   0.39687   0.405271000.000001000.00000
     Eigenvalues --- 1000.000001000.000001000.000001000.000001000.00000
     Eigenvalues --- 1000.000001000.000001000.000001000.000001000.00000
     Eigenvalues --- 1000.000001000.000001000.000001000.000001000.00000
     Eigenvalues --- 1000.000001000.000001000.000001000.000001000.00000
     Eigenvalues --- 1000.000001000.000001000.000001000.000001000.00000
     Eigenvalues --- 1000.000001000.000001000.000001000.000001000.00000
     Eigenvalues --- 1000.000001000.000001000.000001000.000001000.00000
     Eigenvalues --- 1000.000001000.000001000.000001000.000001000.00000
     Eigenvalues --- 1000.000001000.000001000.000001000.000001000.00000
     Eigenvalues --- 1000.000001000.000001000.000001000.000001000.00000
     Eigenvalues --- 1000.00000
 RFO step:  Lambda=-1.96235695D-01 EMin= 2.30000000D-03
 Linear search not attempted -- first point.
 Maximum step size (   0.300) exceeded in Quadratic search.
    -- Step size scaled by   0.451
 Iteration  1 RMS(Cart)=  0.06016763 RMS(Int)=  0.00125301
 Iteration  2 RMS(Cart)=  0.00164352 RMS(Int)=  0.00005738
 Iteration  3 RMS(Cart)=  0.00000700 RMS(Int)=  0.00005719
 Iteration  4 RMS(Cart)=  0.00000000 RMS(Int)=  0.00005719
 Iteration  1 RMS(Cart)=  0.00000201 RMS(Int)=  0.00000085
 Iteration  2 RMS(Cart)=  0.00000109 RMS(Int)=  0.00000095
 Iteration  3 RMS(Cart)=  0.00000059 RMS(Int)=  0.00000107
 Variable       Old X    -DE/DX   Delta X   Delta X   Delta X     New X
                                 (Linear)    (Quad)   (Total)
    R1        2.71917  -0.01962   0.00000  -0.01585  -0.01577   2.70340
    R2        2.71391  -0.08723   0.00000  -0.06632  -0.06629   2.64762
    R3        3.19503  -0.12367   0.00000  -0.14650  -0.14650   3.04853
    R4        2.75906  -0.09296   0.00000  -0.07441  -0.07437   2.68469
    R5        2.35064  -0.08132   0.00000  -0.08873  -0.08873   2.26191
    R6        3.39578  -0.02916   0.00000  -0.02762  -0.02768   3.36810
    R7        2.74954   0.00045   0.00000   0.00035   0.00035   2.74989
    R8        3.28671  -0.02156   0.00000  -0.01832  -0.01837   3.26834
    R9        2.04073  -0.00292   0.00000  -0.00237  -0.00237   2.03836
   R10        3.38326  -0.02111   0.00000  -0.01960  -0.01963   3.36362
   R11        2.76700  -0.08854   0.00000  -0.07145  -0.07145   2.69555
   R12        3.26937  -0.00548   0.00000  -0.00420  -0.00421   3.26516
   R13        2.72272  -0.05446   0.00000  -0.04217  -0.04210   2.68062
   R14        2.69631   0.00168   0.00000   0.00053   0.00058   2.69689
   R15        2.70738  -0.00882   0.00000  -0.00741  -0.00737   2.70001
   R16        3.27415  -0.00281   0.00000  -0.00175  -0.00176   3.27238
   R17        2.03935  -0.00074   0.00000  -0.00060  -0.00060   2.03875
   R18        3.33638  -0.01876   0.00000  -0.01684  -0.01690   3.31948
   R19        2.73192  -0.08092   0.00000  -0.06285  -0.06285   2.66906
   R20        2.04250  -0.00316   0.00000  -0.00256  -0.00256   2.03994
   R21        2.05224  -0.00621   0.00000  -0.00510  -0.00510   2.04714
   R22        2.39943  -0.14071   0.00000  -0.15938  -0.15938   2.24005
    A1        1.97020   0.02280   0.00000   0.02166   0.02176   1.99196
    A2        2.13260   0.00274   0.00000   0.00403   0.00399   2.13658
    A3        2.16079  -0.02489   0.00000  -0.02437  -0.02445   2.13634
    A4        1.97187  -0.00346   0.00000  -0.00529  -0.00518   1.96669
    A5        1.96334   0.02414   0.00000   0.03114   0.03108   1.99442
    A6        2.34288  -0.02049   0.00000  -0.02539  -0.02545   2.31743
    A7        1.90440   0.00066   0.00000   0.00134   0.00134   1.90573
    A8        2.31891  -0.00976   0.00000  -0.01022  -0.01021   2.30870
    A9        2.05972   0.00912   0.00000   0.00888   0.00888   2.06860
   A10        1.95339  -0.01801   0.00000  -0.01925  -0.01927   1.93412
   A11        2.17580   0.01325   0.00000   0.01501   0.01502   2.19082
   A12        2.15384   0.00480   0.00000   0.00431   0.00432   2.15816
   A13        1.62490  -0.00198   0.00000   0.00157   0.00138   1.62627
   A14        2.12893  -0.00359   0.00000  -0.00352  -0.00353   2.12540
   A15        2.24018  -0.00520   0.00000  -0.00518  -0.00519   2.23499
   A16        1.91338   0.00886   0.00000   0.00877   0.00878   1.92216
   A17        1.61880  -0.00783   0.00000  -0.00614  -0.00615   1.61265
   A18        1.96185  -0.01151   0.00000  -0.01041  -0.01052   1.95134
   A19        2.23747   0.00918   0.00000   0.01239   0.01228   2.24974
   A20        1.96623   0.00678   0.00000   0.00649   0.00655   1.97278
   A21        1.96620   0.00820   0.00000   0.00742   0.00745   1.97365
   A22        1.96634  -0.01414   0.00000  -0.01296  -0.01303   1.95331
   A23        2.23700   0.01014   0.00000   0.01346   0.01336   2.25036
   A24        1.96378   0.00232   0.00000   0.00041   0.00048   1.96426
   A25        2.16132  -0.00532   0.00000  -0.00511  -0.00516   2.15616
   A26        2.14629   0.00371   0.00000   0.00623   0.00617   2.15246
   A27        1.59342  -0.00011   0.00000   0.00121   0.00118   1.59460
   A28        1.96014   0.00131   0.00000   0.00075   0.00073   1.96087
   A29        2.13644  -0.00411   0.00000  -0.00428  -0.00433   2.13210
   A30        2.16950   0.00411   0.00000   0.00623   0.00620   2.17569
   A31        1.93832   0.00617   0.00000   0.00452   0.00459   1.94291
   A32        2.16663  -0.00014   0.00000   0.00239   0.00229   2.16892
   A33        2.14161  -0.00382   0.00000  -0.00242  -0.00252   2.13909
   A34        2.33954  -0.06968   0.00000  -0.08823  -0.08823   2.25130
    D1        0.00683  -0.00118   0.00000  -0.00282  -0.00284   0.00399
    D2        3.05589  -0.00083   0.00000  -0.00034  -0.00025   3.05564
    D3       -2.93068  -0.00168   0.00000  -0.00675  -0.00689  -2.93757
    D4        0.11838  -0.00133   0.00000  -0.00427  -0.00430   0.11408
    D5       -0.00671   0.00199   0.00000   0.00393   0.00393  -0.00278
    D6       -3.13020  -0.00031   0.00000  -0.00018  -0.00016  -3.13036
    D7        2.92697   0.00638   0.00000   0.01192   0.01184   2.93881
    D8       -0.19651   0.00408   0.00000   0.00780   0.00774  -0.18877
    D9       -0.13323   0.00205   0.00000   0.00225   0.00221  -0.13102
   D10       -3.04818  -0.00458   0.00000  -0.00800  -0.00796  -3.05614
   D11       -0.00388   0.00008   0.00000   0.00067   0.00062  -0.00326
   D12        3.11762   0.00160   0.00000   0.00101   0.00098   3.11860
   D13       -3.02603  -0.00397   0.00000  -0.00705  -0.00704  -3.03306
   D14        0.09547  -0.00244   0.00000  -0.00670  -0.00668   0.08879
   D15        0.00006   0.00096   0.00000   0.00139   0.00141   0.00147
   D16       -3.12486  -0.00007   0.00000   0.00134   0.00135  -3.12351
   D17        1.13476  -0.00326   0.00000   0.00000  -0.00000   1.13476
   D18       -2.05138  -0.00065   0.00000   0.00233   0.00233  -2.04905
   D19       -2.02834  -0.00173   0.00000   0.00028   0.00029  -2.02805
   D20        1.06871   0.00088   0.00000   0.00261   0.00262   1.07133
   D21        0.00376  -0.00169   0.00000  -0.00305  -0.00304   0.00071
   D22        3.12751   0.00068   0.00000   0.00114   0.00110   3.12861
   D23        3.13786   0.00087   0.00000   0.00045   0.00045   3.13830
   D24        0.03335  -0.00103   0.00000  -0.00122  -0.00124   0.03211
   D25       -3.13920  -0.00159   0.00000  -0.00143  -0.00141  -3.14060
   D26       -0.15806   0.00367   0.00000   0.00959   0.00959  -0.14847
   D27       -0.03772   0.00054   0.00000   0.00045   0.00049  -0.03723
   D28        2.94341   0.00580   0.00000   0.01148   0.01149   2.95490
   D29       -0.02113   0.00179   0.00000   0.00217   0.00216  -0.01898
   D30       -2.61671  -0.00870   0.00000  -0.01675  -0.01675  -2.63346
   D31        0.00272  -0.00129   0.00000  -0.00189  -0.00186   0.00085
   D32       -2.68785  -0.01195   0.00000  -0.02031  -0.02014  -2.70799
   D33        2.68623   0.00939   0.00000   0.01694   0.01683   2.70306
   D34       -0.00433  -0.00128   0.00000  -0.00149  -0.00145  -0.00578
   D35        2.61353   0.00686   0.00000   0.01563   0.01574   2.62927
   D36       -0.24637  -0.00091   0.00000  -0.00084  -0.00078  -0.24716
   D37        0.01905   0.00096   0.00000   0.00093   0.00091   0.01996
   D38       -2.84085  -0.00681   0.00000  -0.01554  -0.01562  -2.85647
   D39        0.02320   0.00054   0.00000   0.00093   0.00091   0.02410
   D40       -2.95953  -0.00370   0.00000  -0.00879  -0.00886  -2.96839
   D41        2.62770   0.00540   0.00000   0.01406   0.01419   2.64189
   D42       -0.35503   0.00115   0.00000   0.00434   0.00442  -0.35061
   D43       -0.00888   0.00131   0.00000   0.00152   0.00150  -0.00738
   D44       -2.61335  -0.00910   0.00000  -0.01668  -0.01666  -2.63000
   D45        0.01983  -0.00062   0.00000  -0.00088  -0.00088   0.01894
   D46        2.97143   0.00707   0.00000   0.01470   0.01465   2.98608
   D47       -0.02564   0.00008   0.00000   0.00026   0.00029  -0.02535
   D48        2.83900   0.00839   0.00000   0.01734   0.01737   2.85636
   D49       -2.97301  -0.00672   0.00000  -0.01431  -0.01434  -2.98735
   D50       -0.10837   0.00158   0.00000   0.00277   0.00274  -0.10563
         Item               Value     Threshold  Converged?
 Maximum Force            0.140706     0.000450     NO 
 RMS     Force            0.028871     0.000300     NO 
 Maximum Displacement     0.395302     0.001800     NO 
 RMS     Displacement     0.059666     0.001200     NO 
 Predicted change in Energy=-7.772866D-02
 GradGradGradGradGradGradGradGradGradGradGradGradGradGradGradGradGradGrad

                          Input orientation:                          
 ---------------------------------------------------------------------
 Center     Atomic      Atomic             Coordinates (Angstroms)
 Number     Number       Type             X           Y           Z
 ---------------------------------------------------------------------
      1          6           0       -4.226424   -1.366713   -0.228209
      2          6           0       -2.909974   -0.968453   -0.621777
      3          6           0       -1.987592   -2.048979   -0.621309
      4          6           0       -4.344398   -2.727962    0.081720
      5         16           0       -2.828038   -3.536493   -0.113737
      6          1           0       -5.251428   -3.224573    0.388594
      7          6           0       -0.576161   -2.131401   -0.965710
      8         16           0        0.669529   -1.275004   -0.025993
      9          6           0        1.941948   -1.874279   -1.029629
     10          6           0        1.450596   -2.730153   -2.048578
     11          6           0        0.031789   -2.893485   -2.007014
     12          1           0       -0.498556   -3.622515   -2.599627
     13         16           0        2.658685   -3.843673   -2.595642
     14          6           0        3.840183   -3.174278   -1.481374
     15          6           0        3.303789   -2.133889   -0.690954
     16          1           0        4.801532   -3.636951   -1.316938
     17          1           0        3.785779   -1.780244    0.212462
     18          1           0       -2.826155    0.171798   -0.976029
     19          8           0       -5.510289   -0.406498   -0.407463
     20          1           0       -5.550815    0.729744   -0.742794
 ---------------------------------------------------------------------
                    Distance matrix (angstroms):
                    1          2          3          4          5
     1  C    0.000000
     2  C    1.430577   0.000000
     3  C    2.373265   1.420677   0.000000
     4  C    1.401061   2.376626   2.551431   0.000000
     5  S    2.583899   2.619093   1.782324   1.729530   0.000000
     6  H    2.209688   3.404899   3.613108   1.078656   2.494484
     7  C    3.801720   2.630098   1.455178   3.956337   2.787668
     8  S    4.900986   3.641671   2.830853   5.221317   4.165935
     9  C    6.240891   4.952576   3.954558   6.440654   5.133672
    10  C    6.115658   4.914663   3.784472   6.174150   4.764505
    11  C    4.860819   3.778703   2.590612   4.851930   3.489495
    12  H    4.960773   4.095225   2.933766   4.772876   3.407864
    13  S    7.690566   6.570616   5.357873   7.579990   6.029788
    14  C    8.361093   7.153264   5.997414   8.344449   6.816657
    15  C    7.583324   6.322489   5.292520   7.710039   6.316627
    16  H    9.372476   8.189716   7.006979   9.296803   7.724515
    17  H    8.034962   6.796180   5.839453   8.186272   6.850796
    18  H    2.210657   1.196951   2.400180   3.439840   3.807226
    19  O    1.613212   2.668964   3.892669   2.643445   4.132507
    20  H    2.532576   3.142064   4.520246   3.753798   5.100001
                    6          7          8          9         10
     6  H    0.000000
     7  C    4.988716   0.000000
     8  S    6.247434   1.779952   0.000000
     9  C    7.455154   2.532010   1.727850   0.000000
    10  C    7.148523   2.374626   2.611202   1.418522   0.000000
    11  C    5.810417   1.426425   2.636407   2.375452   1.428782
    12  H    5.628287   2.213397   3.674075   3.387814   2.213405
    13  S    8.476960   4.006592   4.142210   2.616223   1.731671
    14  C    9.282064   4.567012   3.972207   2.344647   2.495816
    15  C    8.691763   3.889667   2.849418   1.427132   2.373393
    16  H   10.204945   5.595501   4.931408   3.371465   3.547725
    17  H    9.153591   4.531879   3.165935   2.225161   3.386400
    18  H    4.390840   3.219830   3.900719   5.188845   5.278473
    19  O    2.939773   5.256667   6.252198   7.620848   7.519744
    20  H    4.123869   5.743085   6.574610   7.937551   7.918062
                   11         12         13         14         15
    11  C    0.000000
    12  H    1.078861   0.000000
    13  S    2.854807   3.164980   0.000000
    14  C    3.854738   4.502895   1.756593   0.000000
    15  C    3.607628   4.507423   2.639574   1.412406   0.000000
    16  H    4.876412   5.453112   2.503919   1.079489   2.212303
    17  H    4.500869   5.445855   3.662448   2.194395   1.083300
    18  H    4.315870   4.738206   6.987891   7.476073   6.555431
    19  O    6.281584   6.345535   9.128770   9.810465   8.986224
    20  H    6.774327   6.922089   9.578365  10.196948   9.306293
                   16         17         18         19         20
    16  H    0.000000
    17  H    2.611164   0.000000
    18  H    8.532549   6.995760   0.000000
    19  O   10.844198   9.417451   2.803974   0.000000
    20  H   11.250278   9.715171   2.790963   1.185384   0.000000
 Stoichiometry    C10H6OS3
 Framework group  C1[X(C10H6OS3)]
 Deg. of freedom    54
 Full point group                 C1      NOp   1
 Largest Abelian subgroup         C1      NOp   1
 Largest concise Abelian subgroup C1      NOp   1
                         Standard orientation:                         
 ---------------------------------------------------------------------
 Center     Atomic      Atomic             Coordinates (Angstroms)
 Number     Number       Type             X           Y           Z
 ---------------------------------------------------------------------
      1          6           0        3.885666    0.237546    0.194671
      2          6           0        2.608277    0.771825    0.554356
      3          6           0        1.528960    0.011405    0.029799
      4          6           0        3.821498   -0.914837   -0.599601
      5         16           0        2.178420   -1.357011   -0.909518
      6          1           0        4.669631   -1.471736   -0.965706
      7          6           0        0.085239    0.149944    0.148203
      8         16           0       -0.780574    1.550510   -0.527825
      9          6           0       -2.310959    0.956503    0.011196
     10          6           0       -2.188245   -0.292843    0.671711
     11          6           0       -0.840276   -0.762067    0.736716
     12          1           0       -0.573621   -1.756084    1.060393
     13         16           0       -3.656876   -1.207708    0.602226
     14          6           0       -4.459202    0.069512   -0.298108
     15          6           0       -3.603292    1.162535   -0.558131
     16          1           0       -5.435269   -0.064379   -0.739314
     17          1           0       -3.827955    1.914111   -1.305258
     18          1           0        2.657837    1.700350    1.308065
     19          8           0        5.257260    0.740651    0.878826
     20          1           0        5.429779    1.642752    1.628217
 ---------------------------------------------------------------------
 Rotational constants (GHZ):           1.4336121           0.2267691           0.2110650
 Standard basis: Aug-CC-pVDZ (5D, 7F)
 There are   416 symmetry adapted cartesian basis functions of A   symmetry.
 There are   388 symmetry adapted basis functions of A   symmetry.
   388 basis functions,   782 primitive gaussians,   416 cartesian basis functions
    61 alpha electrons       61 beta electrons
       nuclear repulsion energy      1087.4981153383 Hartrees.
 NAtoms=   20 NActive=   20 NUniq=   20 SFac= 1.00D+00 NAtFMM=   60 NAOKFM=F Big=F
 Integral buffers will be    131072 words long.
 Raffenetti 1 integral format.
 Two-electron integral symmetry is turned on.
 One-electron integrals computed using PRISM.
 NBasis=   388 RedAO= T EigKep=  5.93D-06  NBF=   388
 NBsUse=   388 1.00D-06 EigRej= -1.00D+00 NBFU=   388
 Initial guess from the checkpoint file:  "/tmp/pbs.4766241[240].pbs/Gau-3916731.chk"
 B after Tr=     0.000000   -0.000000   -0.000000
         Rot=    0.999987   -0.004569    0.001229   -0.002092 Ang=  -0.59 deg.
 ExpMin= 2.97D-02 ExpMax= 1.11D+05 ExpMxC= 1.07D+03 IAcc=3 IRadAn=         5 AccDes= 0.00D+00
 Harris functional with IExCor=  205 and IRadAn=       5 diagonalized for initial guess.
 HarFok:  IExCor=  205 AccDes= 0.00D+00 IRadAn=         5 IDoV= 1 UseB2=F ITyADJ=14
 ICtDFT=  3500011 ScaDFX=  1.000000  1.000000  1.000000  1.000000
 FoFCou: FMM=F IPFlag=           0 FMFlag=      100000 FMFlg1=           0
         NFxFlg=           0 DoJE=T BraDBF=F KetDBF=T FulRan=T
         wScrn=  0.000000 ICntrl=       500 IOpCl=  0 I1Cent=   200000004 NGrid=           0
         NMat0=    1 NMatS0=      1 NMatT0=    0 NMatD0=    1 NMtDS0=    0 NMtDT0=    0
 Petite list used in FoFCou.
 Requested convergence on RMS density matrix=1.00D-08 within 128 cycles.
 Requested convergence on MAX density matrix=1.00D-06.
 Requested convergence on             energy=1.00D-06.
 No special actions if energy rises.
 SCF Done:  E(RHF) =  -1649.50237641     A.U. after   15 cycles
            NFock= 15  Conv=0.54D-08     -V/T= 2.0012
 Calling FoFJK, ICntrl=      2127 FMM=F ISym2X=0 I1Cent= 0 IOpClX= 0 NMat=1 NMatS=1 NMatT=0.
 ***** Axes restored to original set *****
 -------------------------------------------------------------------
 Center     Atomic                   Forces (Hartrees/Bohr)
 Number     Number              X              Y              Z
 -------------------------------------------------------------------
      1        6          -0.051172964    0.017593538   -0.019410261
      2        6           0.016291780    0.021997857   -0.017082990
      3        6          -0.055822868    0.027510323    0.005847262
      4        6          -0.009420288    0.056547507   -0.009059795
      5       16           0.003217736    0.025900850   -0.001194576
      6        1           0.003363949   -0.002522772   -0.002267552
      7        6           0.047452595   -0.022410994   -0.044265017
      8       16          -0.014690094    0.003107471   -0.012167595
      9        6          -0.010144181   -0.036655216   -0.020264327
     10        6          -0.000054689    0.015997803    0.040890321
     11        6          -0.023548111    0.030617080    0.044590483
     12        1          -0.003888556    0.005914149   -0.003002028
     13       16           0.014339836    0.009919055    0.001668915
     14        6          -0.028953726    0.038167737    0.033509483
     15        6           0.020723226   -0.047385990   -0.026120194
     16        1           0.000015781    0.002263312   -0.007578628
     17        1           0.002752826    0.005538419   -0.008479739
     18        1           0.012954494   -0.064078322    0.018263964
     19        8           0.044761692    0.039737619   -0.010827596
     20        1           0.031821562   -0.127759428    0.036949870
 -------------------------------------------------------------------
 Cartesian Forces:  Max     0.127759428 RMS     0.031358394

 GradGradGradGradGradGradGradGradGradGradGradGradGradGradGradGradGradGrad
 Berny optimization.
 Using GEDIIS/GDIIS optimizer.
 FormGI is forming the generalized inverse of G from B-inverse, IUseBI=4.
 Internal  Forces:  Max     0.134003550 RMS     0.023887885
 Search for a local minimum.
 Step number   2 out of a maximum of  116
 All quantities printed in internal units (Hartrees-Bohrs-Radians)
 Mixed Optimization -- RFO/linear search
 Update second derivatives using D2CorX and points    1    2
 DE= -8.20D-02 DEPred=-7.77D-02 R= 1.05D+00
 TightC=F SS=  1.41D+00  RLast= 3.06D-01 DXNew= 5.0454D-01 9.1712D-01
 Trust test= 1.05D+00 RLast= 3.06D-01 DXMaxT set to 5.05D-01
 ITU=  1  0
 Use linear search instead of GDIIS.
 Linear search step of   0.600 exceeds DXMaxT=   0.505 but not scaled.
 Quartic linear search produced a step of  2.00000.
 Iteration  1 RMS(Cart)=  0.10514219 RMS(Int)=  0.01808668
 Iteration  2 RMS(Cart)=  0.02049333 RMS(Int)=  0.00036370
 Iteration  3 RMS(Cart)=  0.00018335 RMS(Int)=  0.00034637
 Iteration  4 RMS(Cart)=  0.00000009 RMS(Int)=  0.00034637
 Iteration  1 RMS(Cart)=  0.00001150 RMS(Int)=  0.00000514
 Iteration  2 RMS(Cart)=  0.00000627 RMS(Int)=  0.00000574
 Iteration  3 RMS(Cart)=  0.00000342 RMS(Int)=  0.00000649
 Iteration  4 RMS(Cart)=  0.00000186 RMS(Int)=  0.00000698
 Iteration  5 RMS(Cart)=  0.00000102 RMS(Int)=  0.00000726
 Iteration  6 RMS(Cart)=  0.00000055 RMS(Int)=  0.00000743
 Variable       Old X    -DE/DX   Delta X   Delta X   Delta X     New X
                                 (Linear)    (Quad)   (Total)
    R1        2.70340  -0.00883  -0.03155   0.00000  -0.03106   2.67234
    R2        2.64762  -0.06051  -0.13258   0.00000  -0.13240   2.51522
    R3        3.04853  -0.11624  -0.29301   0.00000  -0.29301   2.75552
    R4        2.68469  -0.06539  -0.14875   0.00000  -0.14852   2.53617
    R5        2.26191  -0.06554  -0.17746   0.00000  -0.17746   2.08445
    R6        3.36810  -0.02160  -0.05535   0.00000  -0.05569   3.31241
    R7        2.74989   0.00389   0.00070   0.00000   0.00070   2.75059
    R8        3.26834  -0.01049  -0.03675   0.00000  -0.03712   3.23121
    R9        2.03836  -0.00231  -0.00473   0.00000  -0.00473   2.03363
   R10        3.36362  -0.01502  -0.03927   0.00000  -0.03950   3.32412
   R11        2.69555  -0.06475  -0.14290   0.00000  -0.14291   2.55264
   R12        3.26516  -0.00110  -0.00841   0.00000  -0.00849   3.25667
   R13        2.68062  -0.03921  -0.08420   0.00000  -0.08375   2.59687
   R14        2.69689   0.00370   0.00115   0.00000   0.00147   2.69836
   R15        2.70001  -0.00237  -0.01475   0.00000  -0.01453   2.68547
   R16        3.27238   0.00029  -0.00353   0.00000  -0.00365   3.26874
   R17        2.03875  -0.00044  -0.00119   0.00000  -0.00119   2.03756
   R18        3.31948  -0.01244  -0.03379   0.00000  -0.03412   3.28536
   R19        2.66906  -0.05766  -0.12571   0.00000  -0.12573   2.54333
   R20        2.03994  -0.00211  -0.00513   0.00000  -0.00513   2.03481
   R21        2.04714  -0.00404  -0.01020   0.00000  -0.01020   2.03694
   R22        2.24005  -0.13400  -0.31876   0.00000  -0.31876   1.92129
    A1        1.99196   0.01321   0.04352   0.00000   0.04414   2.03610
    A2        2.13658   0.00473   0.00798   0.00000   0.00771   2.14430
    A3        2.13634  -0.01725  -0.04889   0.00000  -0.04936   2.08698
    A4        1.96669  -0.00211  -0.01036   0.00000  -0.00966   1.95703
    A5        1.99442   0.02056   0.06216   0.00000   0.06181   2.05623
    A6        2.31743  -0.01827  -0.05090   0.00000  -0.05129   2.26615
    A7        1.90573   0.00299   0.00267   0.00000   0.00265   1.90838
    A8        2.30870  -0.00921  -0.02043   0.00000  -0.02042   2.28828
    A9        2.06860   0.00624   0.01776   0.00000   0.01778   2.08638
   A10        1.93412  -0.01036  -0.03855   0.00000  -0.03869   1.89543
   A11        2.19082   0.00896   0.03003   0.00000   0.03008   2.22090
   A12        2.15816   0.00143   0.00863   0.00000   0.00868   2.16684
   A13        1.62627  -0.00374   0.00276   0.00000   0.00154   1.62782
   A14        2.12540  -0.00388  -0.00707   0.00000  -0.00713   2.11827
   A15        2.23499  -0.00380  -0.01037   0.00000  -0.01044   2.22455
   A16        1.92216   0.00775   0.01757   0.00000   0.01769   1.93985
   A17        1.61265  -0.00645  -0.01230   0.00000  -0.01237   1.60028
   A18        1.95134  -0.00777  -0.02104   0.00000  -0.02164   1.92969
   A19        2.24974   0.00737   0.02455   0.00000   0.02382   2.27356
   A20        1.97278   0.00440   0.01309   0.00000   0.01345   1.98622
   A21        1.97365   0.00495   0.01489   0.00000   0.01501   1.98865
   A22        1.95331  -0.00915  -0.02607   0.00000  -0.02647   1.92684
   A23        2.25036   0.00803   0.02671   0.00000   0.02609   2.27645
   A24        1.96426   0.00157   0.00096   0.00000   0.00139   1.96565
   A25        2.15616  -0.00363  -0.01033   0.00000  -0.01069   2.14547
   A26        2.15246   0.00271   0.01235   0.00000   0.01198   2.16445
   A27        1.59460  -0.00136   0.00235   0.00000   0.00211   1.59671
   A28        1.96087   0.00213   0.00146   0.00000   0.00134   1.96220
   A29        2.13210  -0.00446  -0.00867   0.00000  -0.00896   2.12314
   A30        2.17569   0.00349   0.01239   0.00000   0.01217   2.18786
   A31        1.94291   0.00400   0.00918   0.00000   0.00959   1.95250
   A32        2.16892  -0.00030   0.00458   0.00000   0.00398   2.17290
   A33        2.13909  -0.00178  -0.00505   0.00000  -0.00567   2.13342
   A34        2.25130  -0.06099  -0.17647   0.00000  -0.17647   2.07483
    D1        0.00399  -0.00081  -0.00569   0.00000  -0.00585  -0.00186
    D2        3.05564  -0.00014  -0.00050   0.00000   0.00003   3.05567
    D3       -2.93757  -0.00259  -0.01379   0.00000  -0.01465  -2.95222
    D4        0.11408  -0.00193  -0.00860   0.00000  -0.00877   0.10531
    D5       -0.00278   0.00158   0.00787   0.00000   0.00787   0.00509
    D6       -3.13036  -0.00040  -0.00033   0.00000  -0.00021  -3.13057
    D7        2.93881   0.00619   0.02368   0.00000   0.02325   2.96206
    D8       -0.18877   0.00421   0.01549   0.00000   0.01516  -0.17360
    D9       -0.13102   0.00156   0.00443   0.00000   0.00420  -0.12682
   D10       -3.05614  -0.00408  -0.01592   0.00000  -0.01570  -3.07184
   D11       -0.00326  -0.00025   0.00124   0.00000   0.00097  -0.00229
   D12        3.11860   0.00135   0.00195   0.00000   0.00172   3.12032
   D13       -3.03306  -0.00402  -0.01407   0.00000  -0.01395  -3.04701
   D14        0.08879  -0.00242  -0.01336   0.00000  -0.01320   0.07560
   D15        0.00147   0.00100   0.00282   0.00000   0.00293   0.00440
   D16       -3.12351  -0.00015   0.00269   0.00000   0.00275  -3.12075
   D17        1.13476  -0.00325  -0.00000   0.00000   0.00000   1.13476
   D18       -2.04905  -0.00068   0.00466   0.00000   0.00469  -2.04436
   D19       -2.02805  -0.00158   0.00058   0.00000   0.00062  -2.02742
   D20        1.07133   0.00099   0.00524   0.00000   0.00532   1.07665
   D21        0.00071  -0.00145  -0.00609   0.00000  -0.00601  -0.00530
   D22        3.12861   0.00056   0.00220   0.00000   0.00198   3.13059
   D23        3.13830   0.00084   0.00090   0.00000   0.00089   3.13919
   D24        0.03211  -0.00110  -0.00247   0.00000  -0.00258   0.02953
   D25       -3.14060  -0.00130  -0.00281   0.00000  -0.00269   3.13989
   D26       -0.14847   0.00364   0.01918   0.00000   0.01916  -0.12931
   D27       -0.03723   0.00081   0.00098   0.00000   0.00118  -0.03605
   D28        2.95490   0.00576   0.02297   0.00000   0.02303   2.97793
   D29       -0.01898   0.00150   0.00431   0.00000   0.00424  -0.01474
   D30       -2.63346  -0.00789  -0.03351   0.00000  -0.03354  -2.66701
   D31        0.00085  -0.00092  -0.00373   0.00000  -0.00359  -0.00274
   D32       -2.70799  -0.01044  -0.04028   0.00000  -0.03924  -2.74722
   D33        2.70306   0.00858   0.03365   0.00000   0.03299   2.73605
   D34       -0.00578  -0.00094  -0.00290   0.00000  -0.00265  -0.00844
   D35        2.62927   0.00705   0.03148   0.00000   0.03216   2.66143
   D36       -0.24716  -0.00045  -0.00157   0.00000  -0.00124  -0.24839
   D37        0.01996   0.00048   0.00181   0.00000   0.00166   0.02162
   D38       -2.85647  -0.00702  -0.03124   0.00000  -0.03173  -2.88820
   D39        0.02410   0.00011   0.00181   0.00000   0.00169   0.02579
   D40       -2.96839  -0.00420  -0.01773   0.00000  -0.01817  -2.98657
   D41        2.64189   0.00613   0.02838   0.00000   0.02914   2.67103
   D42       -0.35061   0.00183   0.00884   0.00000   0.00928  -0.34133
   D43       -0.00738   0.00114   0.00300   0.00000   0.00286  -0.00452
   D44       -2.63000  -0.00812  -0.03332   0.00000  -0.03318  -2.66319
   D45        0.01894  -0.00077  -0.00177   0.00000  -0.00178   0.01716
   D46        2.98608   0.00653   0.02930   0.00000   0.02898   3.01506
   D47       -0.02535   0.00042   0.00058   0.00000   0.00072  -0.02463
   D48        2.85636   0.00801   0.03474   0.00000   0.03488   2.89124
   D49       -2.98735  -0.00615  -0.02867   0.00000  -0.02884  -3.01619
   D50       -0.10563   0.00145   0.00549   0.00000   0.00532  -0.10031
         Item               Value     Threshold  Converged?
 Maximum Force            0.134004     0.000450     NO 
 RMS     Force            0.023997     0.000300     NO 
 Maximum Displacement     0.713183     0.001800     NO 
 RMS     Displacement     0.115952     0.001200     NO 
 Predicted change in Energy=-1.210899D-01
 GradGradGradGradGradGradGradGradGradGradGradGradGradGradGradGradGradGrad

                          Input orientation:                          
 ---------------------------------------------------------------------
 Center     Atomic      Atomic             Coordinates (Angstroms)
 Number     Number       Type             X           Y           Z
 ---------------------------------------------------------------------
      1          6           0       -4.176876   -1.375631   -0.265344
      2          6           0       -2.866789   -1.002976   -0.645603
      3          6           0       -2.019222   -2.043361   -0.625266
      4          6           0       -4.367824   -2.656343    0.042668
      5         16           0       -2.881054   -3.484547   -0.122552
      6          1           0       -5.289623   -3.123712    0.342596
      7          6           0       -0.605026   -2.132303   -0.958081
      8         16           0        0.612675   -1.281902   -0.015595
      9          6           0        1.881406   -1.891591   -1.009855
     10          6           0        1.375412   -2.713062   -1.988419
     11          6           0       -0.037237   -2.861088   -1.943548
     12          1           0       -0.588761   -3.569263   -2.540951
     13         16           0        2.598944   -3.793521   -2.560767
     14          6           0        3.772797   -3.111711   -1.474621
     15          6           0        3.255505   -2.134667   -0.707047
     16          1           0        4.751632   -3.544568   -1.356463
     17          1           0        3.763681   -1.759935    0.166568
     18          1           0       -2.704591    0.034131   -0.984435
     19          8           0       -5.327636   -0.494268   -0.424011
     20          1           0       -5.173415    0.466317   -0.719272
 ---------------------------------------------------------------------
                    Distance matrix (angstroms):
                    1          2          3          4          5
     1  C    0.000000
     2  C    1.414142   0.000000
     3  C    2.287111   1.342082   0.000000
     4  C    1.330998   2.336760   2.517503   0.000000
     5  S    2.479329   2.536135   1.752853   1.709885   0.000000
     6  H    2.159534   3.368113   3.577631   1.076152   2.479470
     7  C    3.716255   2.547272   1.455550   3.928711   2.776145
     8  S    4.796973   3.547023   2.806848   5.166996   4.131492
     9  C    6.125626   4.844344   3.922479   6.383223   5.099592
    10  C    5.965368   4.766951   3.718901   6.092069   4.711068
    11  C    4.707395   3.625411   2.516905   4.768749   3.433952
    12  H    4.781733   3.920150   2.836273   4.667958   3.333232
    13  S    7.551615   6.428781   5.304401   7.523756   6.005891
    14  C    8.226398   7.015563   5.950652   8.293325   6.800061
    15  C    7.484085   6.226314   5.276151   7.677850   6.310402
    16  H    9.252734   8.062589   6.973717   9.268819   7.732014
    17  H    7.961576   6.722778   5.843740   8.181704   6.870981
    18  H    2.161514   1.103044   2.216913   3.325648   3.626993
    19  O    1.458158   2.522629   3.658661   2.411140   3.875360
    20  H    2.142875   2.735831   4.031905   3.313689   4.606552
                    6          7          8          9         10
     6  H    0.000000
     7  C    4.961865   0.000000
     8  S    6.193358   1.759050   0.000000
     9  C    7.400737   2.498593   1.723355   0.000000
    10  C    7.072833   2.306732   2.553825   1.374202   0.000000
    11  C    5.734369   1.350799   2.575503   2.343693   1.421092
    12  H    5.532762   2.137895   3.612879   3.355676   2.212770
    13  S    8.432535   3.948882   4.090403   2.556858   1.729741
    14  C    9.242829   4.515682   3.932344   2.298273   2.484022
    15  C    8.665978   3.868685   2.861795   1.427910   2.347596
    16  H   10.192680   5.554006   4.903933   3.330265   3.534067
    17  H    9.157139   4.526488   3.192263   2.223570   3.355033
    18  H    4.291314   3.017002   3.697951   4.973974   5.020107
    19  O    2.739180   5.027071   6.006202   7.366547   7.231963
    20  H    3.745581   5.261182   6.085249   7.444103   7.389609
                   11         12         13         14         15
    11  C    0.000000
    12  H    1.078231   0.000000
    13  S    2.863536   3.195645   0.000000
    14  C    3.846955   4.513270   1.738537   0.000000
    15  C    3.591486   4.494403   2.572771   1.345873   0.000000
    16  H    4.872892   5.470231   2.479192   1.076775   2.155912
    17  H    4.484652   5.435815   3.595892   2.126236   1.077900
    18  H    4.051786   4.459139   6.727794   7.217559   6.348494
    19  O    5.991591   6.032741   8.847681   9.527470   8.743074
    20  H    6.241058   6.373654   9.052451   9.664758   8.821109
                   16         17         18         19         20
    16  H    0.000000
    17  H    2.545699   0.000000
    18  H    8.278934   6.810435   0.000000
    19  O   10.571918   9.197976   2.733797   0.000000
    20  H   10.723795   9.252708   2.520355   1.016704   0.000000
 Stoichiometry    C10H6OS3
 Framework group  C1[X(C10H6OS3)]
 Deg. of freedom    54
 Full point group                 C1      NOp   1
 Largest Abelian subgroup         C1      NOp   1
 Largest concise Abelian subgroup C1      NOp   1
                         Standard orientation:                         
 ---------------------------------------------------------------------
 Center     Atomic      Atomic             Coordinates (Angstroms)
 Number     Number       Type             X           Y           Z
 ---------------------------------------------------------------------
      1          6           0        3.801112    0.248750    0.229727
      2          6           0        2.522948    0.743516    0.578009
      3          6           0        1.534133    0.012984    0.039722
      4          6           0        3.832014   -0.829696   -0.549731
[...]
      1          6           0        3.816421    0.304980    0.435593
      2          6           0        2.454608    0.701344    0.665297
      3          6           0        1.567375   -0.070086   -0.004133
      4          6           0        3.930059   -0.755163   -0.389723
      5         16           0        2.373305   -1.299804   -0.924025
      6          1           0        4.834979   -1.238870   -0.711687
      7          6           0        0.098028    0.023677    0.016620
      8         16           0       -0.702333    1.449812   -0.626007
      9          6           0       -2.258738    0.765322   -0.273501
     10          6           0       -2.135266   -0.476508    0.278383
     11          6           0       -0.779821   -0.911492    0.443731
     12          1           0       -0.478275   -1.856739    0.864413
     13         16           0       -3.691511   -1.162113    0.632924
     14          6           0       -4.479888    0.266402    0.016940
     15          6           0       -3.616745    1.203391   -0.427516
     16          1           0       -5.555217    0.323024    0.021189
     17          1           0       -3.918960    2.150693   -0.843148
     18          1           0        2.163842    1.516477    1.311348
     19          8           0        4.885818    0.915526    0.994930
     20          1           0        4.619506    1.663683    1.502031
 ---------------------------------------------------------------------
 Rotational constants (GHZ):           1.5097506           0.2314819           0.2161931

 **********************************************************************

            Population analysis using the SCF Density.

 **********************************************************************

 Orbital symmetries:
       Occupied  (A) (A) (A) (A) (A) (A) (A) (A) (A) (A) (A) (A)
                 (A) (A) (A) (A) (A) (A) (A) (A) (A) (A) (A) (A)
                 (A) (A) (A) (A) (A) (A) (A) (A) (A) (A) (A) (A)
                 (A) (A) (A) (A) (A) (A) (A) (A) (A) (A) (A) (A)
                 (A) (A) (A) (A) (A) (A) (A) (A) (A) (A) (A) (A)
                 (A)
       Virtual   (A) (A) (A) (A) (A) (A) (A) (A) (A) (A) (A) (A)
                 (A) (A) (A) (A) (A) (A) (A) (A) (A) (A) (A) (A)
                 (A) (A) (A) (A) (A) (A) (A) (A) (A) (A) (A) (A)
                 (A) (A) (A) (A) (A) (A) (A) (A) (A) (A) (A) (A)
                 (A) (A) (A) (A) (A) (A) (A) (A) (A) (A) (A) (A)
                 (A) (A) (A) (A) (A) (A) (A) (A) (A) (A) (A) (A)
                 (A) (A) (A) (A) (A) (A) (A) (A) (A) (A) (A) (A)
                 (A) (A) (A) (A) (A) (A) (A) (A) (A) (A) (A) (A)
                 (A) (A) (A) (A) (A) (A) (A) (A) (A) (A) (A) (A)
                 (A) (A) (A) (A) (A) (A) (A) (A) (A) (A) (A) (A)
                 (A) (A) (A) (A) (A) (A) (A) (A) (A) (A) (A) (A)
                 (A) (A) (A) (A) (A) (A) (A) (A) (A) (A) (A) (A)
                 (A) (A) (A) (A) (A) (A) (A) (A) (A) (A) (A) (A)
                 (A) (A) (A) (A) (A) (A) (A) (A) (A) (A) (A) (A)
                 (A) (A) (A) (A) (A) (A) (A) (A) (A) (A) (A) (A)
                 (A) (A) (A) (A) (A) (A) (A) (A) (A) (A) (A) (A)
                 (A) (A) (A) (A) (A) (A) (A) (A) (A) (A) (A) (A)
                 (A) (A) (A) (A) (A) (A) (A) (A) (A) (A) (A) (A)
                 (A) (A) (A) (A) (A) (A) (A) (A) (A) (A) (A) (A)
                 (A) (A) (A) (A) (A) (A) (A) (A) (A) (A) (A) (A)
                 (A) (A) (A) (A) (A) (A) (A) (A) (A) (A) (A) (A)
                 (A) (A) (A) (A) (A) (A) (A) (A) (A) (A) (A) (A)
                 (A) (A) (A) (A) (A) (A) (A) (A) (A) (A) (A) (A)
                 (A) (A) (A) (A) (A) (A) (A) (A) (A) (A) (A) (A)
                 (A) (A) (A) (A) (A) (A) (A) (A) (A) (A) (A) (A)
                 (A) (A) (A) (A) (A) (A) (A) (A) (A) (A) (A) (A)
                 (A) (A) (A) (A) (A) (A) (A) (A) (A) (A) (A) (A)
                 (A) (A) (A)
 The electronic state is 1-A.
 Alpha  occ. eigenvalues --  -91.99539 -91.99378 -91.98971 -20.60705 -11.31346
 Alpha  occ. eigenvalues --  -11.29407 -11.29326 -11.28136 -11.27728 -11.27571
 Alpha  occ. eigenvalues --  -11.26306 -11.26133 -11.25620 -11.25460  -8.99698
 Alpha  occ. eigenvalues --   -8.99561  -8.99156  -6.67860  -6.67780  -6.67727
 Alpha  occ. eigenvalues --   -6.67649  -6.67570  -6.67442  -6.67322  -6.67232
 Alpha  occ. eigenvalues --   -6.67033  -1.42566  -1.22213  -1.18645  -1.13220
 Alpha  occ. eigenvalues --   -1.03031  -1.02681  -0.99127  -0.96030  -0.95041
 Alpha  occ. eigenvalues --   -0.84138  -0.78508  -0.77918  -0.74953  -0.72730
 Alpha  occ. eigenvalues --   -0.71964  -0.67489  -0.66155  -0.61098  -0.60618
 Alpha  occ. eigenvalues --   -0.58452  -0.57479  -0.56751  -0.54806  -0.54148
 Alpha  occ. eigenvalues --   -0.52599  -0.51058  -0.49682  -0.48489  -0.46766
 Alpha  occ. eigenvalues --   -0.46620  -0.39320  -0.35272  -0.33004  -0.32405
 Alpha  occ. eigenvalues --   -0.30046
 Alpha virt. eigenvalues --    0.03107   0.03379   0.04417   0.04743   0.04843
 Alpha virt. eigenvalues --    0.06374   0.07194   0.08214   0.08310   0.08829
 Alpha virt. eigenvalues --    0.09720   0.10022   0.10443   0.10895   0.11361
 Alpha virt. eigenvalues --    0.11949   0.12419   0.12546   0.13102   0.13460
 Alpha virt. eigenvalues --    0.13581   0.13989   0.14323   0.14699   0.15019
 Alpha virt. eigenvalues --    0.15195   0.15524   0.15865   0.16354   0.16931
 Alpha virt. eigenvalues --    0.17629   0.18130   0.18167   0.18548   0.19055
 Alpha virt. eigenvalues --    0.19183   0.19792   0.20089   0.21203   0.21273
 Alpha virt. eigenvalues --    0.21652   0.22014   0.22680   0.22821   0.23031
 Alpha virt. eigenvalues --    0.23983   0.24495   0.24783   0.24972   0.25401
 Alpha virt. eigenvalues --    0.26115   0.26591   0.27339   0.27706   0.27961
 Alpha virt. eigenvalues --    0.28272   0.28819   0.30079   0.30422   0.31281
 Alpha virt. eigenvalues --    0.31464   0.31963   0.32346   0.32366   0.33106
 Alpha virt. eigenvalues --    0.33391   0.34521   0.35039   0.35586   0.35621
 Alpha virt. eigenvalues --    0.36809   0.37139   0.37648   0.38468   0.38918
 Alpha virt. eigenvalues --    0.39616   0.40746   0.41029   0.41591   0.41934
 Alpha virt. eigenvalues --    0.42662   0.43127   0.43955   0.44346   0.44869
 Alpha virt. eigenvalues --    0.44930   0.45405   0.46156   0.46675   0.47669
 Alpha virt. eigenvalues --    0.48373   0.49203   0.49622   0.49839   0.51781
 Alpha virt. eigenvalues --    0.52447   0.53384   0.53792   0.54557   0.55949
 Alpha virt. eigenvalues --    0.56531   0.57426   0.57977   0.58692   0.59411
 Alpha virt. eigenvalues --    0.59594   0.60010   0.61000   0.62208   0.62415
 Alpha virt. eigenvalues --    0.63442   0.63791   0.64317   0.64977   0.65070
 Alpha virt. eigenvalues --    0.65442   0.66493   0.67209   0.67454   0.68168
 Alpha virt. eigenvalues --    0.68824   0.69717   0.70071   0.70165   0.70422
 Alpha virt. eigenvalues --    0.71415   0.71607   0.72044   0.72844   0.73799
 Alpha virt. eigenvalues --    0.74048   0.74626   0.75053   0.75707   0.75880
 Alpha virt. eigenvalues --    0.77334   0.77686   0.78766   0.78879   0.79829
 Alpha virt. eigenvalues --    0.80541   0.82697   0.83029   0.83464   0.83860
 Alpha virt. eigenvalues --    0.84285   0.85100   0.85565   0.86103   0.86608
 Alpha virt. eigenvalues --    0.88739   0.89225   0.89542   0.90546   0.91068
 Alpha virt. eigenvalues --    0.91928   0.92604   0.93982   0.94398   0.94828
 Alpha virt. eigenvalues --    0.95548   0.96097   0.96231   0.97378   0.98240
 Alpha virt. eigenvalues --    0.98508   0.99290   1.00309   1.01059   1.01643
 Alpha virt. eigenvalues --    1.02993   1.04862   1.05580   1.06981   1.07403
 Alpha virt. eigenvalues --    1.08059   1.09189   1.09757   1.10940   1.11781
 Alpha virt. eigenvalues --    1.12343   1.14306   1.16113   1.17523   1.18091
 Alpha virt. eigenvalues --    1.19243   1.21220   1.21578   1.22806   1.23294
 Alpha virt. eigenvalues --    1.23723   1.24691   1.25767   1.26441   1.26996
 Alpha virt. eigenvalues --    1.27435   1.28301   1.30034   1.31219   1.31435
 Alpha virt. eigenvalues --    1.32737   1.33610   1.34365   1.35084   1.35898
 Alpha virt. eigenvalues --    1.37461   1.38427   1.38726   1.40419   1.41521
 Alpha virt. eigenvalues --    1.42576   1.44868   1.45445   1.47579   1.48146
 Alpha virt. eigenvalues --    1.50073   1.53382   1.54292   1.55284   1.56539
 Alpha virt. eigenvalues --    1.57256   1.58115   1.59021   1.59939   1.60239
 Alpha virt. eigenvalues --    1.62316   1.63732   1.65060   1.65501   1.66581
 Alpha virt. eigenvalues --    1.67147   1.68200   1.69305   1.70617   1.71937
 Alpha virt. eigenvalues --    1.73428   1.73711   1.74261   1.75809   1.77844
 Alpha virt. eigenvalues --    1.79346   1.80890   1.80951   1.82419   1.83384
 Alpha virt. eigenvalues --    1.84787   1.86507   1.87740   1.88116   1.89233
 Alpha virt. eigenvalues --    1.90504   1.94010   1.95979   1.96597   1.97199
 Alpha virt. eigenvalues --    1.97883   1.98398   2.01935   2.03598   2.04035
 Alpha virt. eigenvalues --    2.04757   2.05447   2.06924   2.07968   2.09075
 Alpha virt. eigenvalues --    2.10979   2.11944   2.14271   2.14595   2.17743
 Alpha virt. eigenvalues --    2.19034   2.20819   2.21378   2.21900   2.23758
 Alpha virt. eigenvalues --    2.24213   2.24744   2.26510   2.27826   2.28862
 Alpha virt. eigenvalues --    2.30432   2.31921   2.33140   2.34513   2.36073
 Alpha virt. eigenvalues --    2.37190   2.40227   2.42773   2.44714   2.47500
 Alpha virt. eigenvalues --    2.47713   2.48441   2.50065   2.50965   2.53178
 Alpha virt. eigenvalues --    2.55226   2.57832   2.59810   2.61546   2.65478
 Alpha virt. eigenvalues --    2.74710   2.79730   2.83642   2.87331   2.88826
 Alpha virt. eigenvalues --    2.90723   2.93602   2.97158   3.00172   3.04464
 Alpha virt. eigenvalues --    3.11773   3.13912   3.23471   3.29649   3.33127
 Alpha virt. eigenvalues --    3.41195   3.50952   3.52380   3.61705   3.75076
 Alpha virt. eigenvalues --    3.76392   3.79996   3.85765   3.90131   4.23066
 Alpha virt. eigenvalues --    4.28985   4.44424
          Condensed to atoms (all electrons):
               1          2          3          4          5          6
     1  C    6.444219  -0.427185  -0.891994   0.331562  -0.319910   0.242015
     2  C   -0.427185  10.525616  -2.663678   0.031753  -0.828728   0.066332
     3  C   -0.891994  -2.663678  11.551557  -1.245816   0.614294   0.090591
     4  C    0.331562   0.031753  -1.245816   6.797617   0.304645  -0.140188
     5  S   -0.319910  -0.828728   0.614294   0.304645  16.175736  -0.162166
     6  H    0.242015   0.066332   0.090591  -0.140188  -0.162166   1.272449
     7  C    0.462381   0.014852  -1.851712   0.100383  -0.608533  -0.004367
     8  S    0.133412   0.265238  -0.699715  -0.017672  -0.085646  -0.000495
     9  C    0.043198  -0.020835  -0.263052  -0.007264  -0.001285  -0.000462
    10  C   -0.008473   0.098310   0.352368  -0.004542   0.020509   0.000767
    11  C   -0.311672  -0.666794   0.489324  -0.098923   0.446894   0.002138
    12  H    0.004670   0.058267   0.050254   0.003169  -0.009492   0.000756
    13  S   -0.001252  -0.006467  -0.060968  -0.000840   0.002472  -0.000081
    14  C    0.000919   0.005082   0.014902  -0.000250  -0.002491   0.000014
    15  C    0.001820  -0.013433  -0.349297  -0.005184   0.003862  -0.000327
    16  H    0.000012   0.000395  -0.001207  -0.000028  -0.000045   0.000001
    17  H    0.000505   0.000229  -0.008798  -0.000370  -0.000107  -0.000017
    18  H    0.073604  -0.538903   0.363855  -0.056486   0.034388  -0.002081
    19  O   -0.264745  -0.074672   0.107256  -0.081604  -0.005207  -0.007702
    20  H   -0.033349  -0.059862  -0.024476   0.002028   0.003109  -0.006583
               7          8          9         10         11         12
     1  C    0.462381   0.133412   0.043198  -0.008473  -0.311672   0.004670
     2  C    0.014852   0.265238  -0.020835   0.098310  -0.666794   0.058267
     3  C   -1.851712  -0.699715  -0.263052   0.352368   0.489324   0.050254
     4  C    0.100383  -0.017672  -0.007264  -0.004542  -0.098923   0.003169
     5  S   -0.608533  -0.085646  -0.001285   0.020509   0.446894  -0.009492
     6  H   -0.004367  -0.000495  -0.000462   0.000767   0.002138   0.000756
     7  C   12.767650   0.399456  -0.050011  -0.881756  -4.359883   0.278412
     8  S    0.399456  16.472019   0.266592  -0.462652  -0.573066   0.033768
     9  C   -0.050011   0.266592  10.869179  -0.698262  -1.515866  -0.081610
    10  C   -0.881756  -0.462652  -0.698262  12.328030  -2.921575   0.666927
    11  C   -4.359883  -0.573066  -1.515866  -2.921575  16.313958  -1.154441
    12  H    0.278412   0.033768  -0.081610   0.666927  -1.154441   1.661716
    13  S   -0.277238   0.103046   0.008853  -0.288339   0.008636  -0.041049
    14  C    0.066211  -0.088321  -0.115519  -1.000233  -0.094629   0.015975
    15  C   -0.456580  -0.177572  -2.339680  -0.961207   0.258868  -0.042822
    16  H    0.007212   0.010248   0.098768  -0.065164   0.024473   0.001507
    17  H    0.097057   0.011347   0.536179   0.084591  -0.062702  -0.001350
    18  H   -0.090320   0.012837   0.009428  -0.003074   0.049513   0.003960
    19  O   -0.001712  -0.005686  -0.000151  -0.000884   0.016233   0.000015
    20  H   -0.005960   0.001703   0.000439   0.000000  -0.001016  -0.000017
              13         14         15         16         17         18
     1  C   -0.001252   0.000919   0.001820   0.000012   0.000505   0.073604
     2  C   -0.006467   0.005082  -0.013433   0.000395   0.000229  -0.538903
     3  C   -0.060968   0.014902  -0.349297  -0.001207  -0.008798   0.363855
     4  C   -0.000840  -0.000250  -0.005184  -0.000028  -0.000370  -0.056486
     5  S    0.002472  -0.002491   0.003862  -0.000045  -0.000107   0.034388
     6  H   -0.000081   0.000014  -0.000327   0.000001  -0.000017  -0.002081
     7  C   -0.277238   0.066211  -0.456580   0.007212   0.097057  -0.090320
     8  S    0.103046  -0.088321  -0.177572   0.010248   0.011347   0.012837
     9  C    0.008853  -0.115519  -2.339680   0.098768   0.536179   0.009428
    10  C   -0.288339  -1.000233  -0.961207  -0.065164   0.084591  -0.003074
    11  C    0.008636  -0.094629   0.258868   0.024473  -0.062702   0.049513
    12  H   -0.041049   0.015975  -0.042822   0.001507  -0.001350   0.003960
    13  S   15.942712   0.187104  -0.045170  -0.158657  -0.004439   0.000145
    14  C    0.187104   6.895545   0.128503   0.204953  -0.131227   0.000515
    15  C   -0.045170   0.128503   9.960030   0.031424  -0.560286  -0.001494
    16  H   -0.158657   0.204953   0.031424   1.291450  -0.069567   0.000090
    17  H   -0.004439  -0.131227  -0.560286  -0.069567   1.428503   0.000118
    18  H    0.000145   0.000515  -0.001494   0.000090   0.000118   1.757787
    19  O    0.000035  -0.000019   0.000110   0.000000   0.000008  -0.058028
    20  H   -0.000023  -0.000011   0.000183  -0.000001   0.000012  -0.012132
              19         20
     1  C   -0.264745  -0.033349
     2  C   -0.074672  -0.059862
     3  C    0.107256  -0.024476
     4  C   -0.081604   0.002028
     5  S   -0.005207   0.003109
     6  H   -0.007702  -0.006583
     7  C   -0.001712  -0.005960
     8  S   -0.005686   0.001703
     9  C   -0.000151   0.000439
    10  C   -0.000884   0.000000
    11  C    0.016233  -0.001016
    12  H    0.000015  -0.000017
    13  S    0.000035  -0.000023
    14  C   -0.000019  -0.000011
    15  C    0.000110   0.000183
    16  H    0.000000  -0.000001
    17  H    0.000008   0.000012
    18  H   -0.058028  -0.012132
    19  O    8.874122   0.348067
    20  H    0.348067   0.655648
 Mulliken charges:
               1
     1  C    0.520262
     2  C    0.234481
     3  C    0.426310
     4  C    0.088009
     5  S    0.417700
     6  H   -0.350595
     7  C    0.394457
     8  S    0.401159
     9  C   -0.738640
    10  C   -0.255341
    11  C    0.150532
    12  H   -0.448617
    13  S    0.631519
    14  C   -0.087022
    15  C    0.568251
    16  H   -0.375864
    17  H   -0.319688
    18  H   -0.543720
    19  O   -0.845434
    20  H    0.132242
 Sum of Mulliken charges =  -0.00000
 Mulliken charges with hydrogens summed into heavy atoms:
               1
     1  C    0.520262
     2  C   -0.309239
     3  C    0.426310
     4  C   -0.262586
     5  S    0.417700
     7  C    0.394457
     8  S    0.401159
     9  C   -0.738640
    10  C   -0.255341
    11  C   -0.298085
    13  S    0.631519
    14  C   -0.462886
    15  C    0.248563
    19  O   -0.713192
 Electronic spatial extent (au):  <R**2>=           4765.7784
 Charge=              0.0000 electrons
 Dipole moment (field-independent basis, Debye):
    X=             -1.0933    Y=              1.4789    Z=              1.0588  Tot=              2.1221
 Quadrupole moment (field-independent basis, Debye-Ang):
   XX=            -96.5669   YY=            -97.6355   ZZ=           -105.3323
   XY=             -0.7191   XZ=              3.7688   YZ=              2.1016
 Traceless Quadrupole moment (field-independent basis, Debye-Ang):
   XX=              3.2780   YY=              2.2094   ZZ=             -5.4874
   XY=             -0.7191   XZ=              3.7688   YZ=              2.1016
 Octapole moment (field-independent basis, Debye-Ang**2):
  XXX=            -74.5606  YYY=             13.8261  ZZZ=              9.9618  XYY=             19.1509
  XXY=             24.5144  XXZ=             -5.9089  XZZ=             21.2086  YZZ=              7.3186
  YYZ=              7.0216  XYZ=             26.7263
 Hexadecapole moment (field-independent basis, Debye-Ang**3):
 XXXX=          -5242.9116 YYYY=           -728.2745 ZZZZ=           -363.7279 XXXY=            -80.4165
 XXXZ=             -6.7050 YYYX=             34.3382 YYYZ=              7.6765 ZZZX=             45.4147
 ZZZY=             19.5599 XXYY=           -944.0659 XXZZ=           -982.9458 YYZZ=           -166.6114
 XXYZ=             60.0230 YYXZ=             43.2837 ZZXY=             30.3293
 N-N= 1.107922792502D+03 E-N=-6.122764843832D+03  KE= 1.649567554111D+03
 Unable to Open any file for archive entry.
 1\1\GINC-CX3-12-23\FOpt\RHF\Aug-CC-pVDZ\C10H6O1S3\NS5018\27-Oct-2021\0
 \\# opt=modredundant hf/aug-cc-pvdz\\pg2T_TT_65.pdb\\0,1\C,-4.24122742
 07,-1.2747141193,-0.3966120054\C,-2.8541171622,-1.050050406,-0.6963726
 044\C,-2.1085969967,-2.1736703811,-0.5863702396\C,-4.5158442695,-2.555
 4319408,-0.0767543818\S,-3.0831465678,-3.5306438263,-0.1207427576\H,-5
 .4720090639,-2.9738381622,0.1824708594\C,-0.6670584624,-2.3260315502,-
 0.8451251466\S,0.501952145,-1.4873645289,0.1635673525\C,1.8143000541,-
 2.1928233537,-0.7282034348\C,1.3520304111,-3.0218046381,-1.7085403334\
 C,-0.0768819435,-3.1065219495,-1.777920978\H,-0.629656906,-3.702762534
 4,-2.4852640555\S,2.6637640271,-3.7273168148,-2.6025538937\C,3.8191007
 964,-2.8727582552,-1.6143455704\C,3.2452889997,-2.1007918541,-0.668134
 2632\H,4.8723728541,-2.9996776505,-1.7989126933\H,3.7986902855,-1.5006
 149138,0.0354280159\H,-2.4472884701,-0.0940326681,-0.9911414468\O,-5.1
 895030953,-0.3113335977,-0.4402711658\H,-4.808169215,0.5281831447,-0.6
 342012575\\Version=ES64L-G16RevC.01\State=1-A\HF=-1649.6426187\RMSD=7.
 373e-09\RMSF=6.934e-04\Dipole=0.5101635,0.6256559,-0.2129346\Quadrupol
 e=3.0346785,2.0170592,-5.0517377,-0.6647198,1.5170831,1.0377872\PG=C01
  [X(C10H6O1S3)]\\@
 The archive entry for this job was punched.


 IT IS BY EATING THE LIGHT OF A STAR THAT WE EXIST, 
 IN THE FINAL ANALYSIS, 
 JUST AS IT IS BY PERCEIVING THE LIGHT OF STARS
 THAT WE DEFINE THE WORLD AROUND US.

                                    -- GILBERT GROSVENOR
 Job cpu time:       0 days  3 hours 52 minutes 19.2 seconds.
 Elapsed time:       0 days  0 hours 29 minutes 14.6 seconds.
 File lengths (MBytes):  RWF=     95 Int=      0 D2E=      0 Chk=     12 Scr=      1
 Normal termination of Gaussian 16 at Wed Oct 27 03:22:29 2021.
