 Entering Gaussian System, Link 0=g16
 Input=pg2T_TT_-120.gjf
 Output=pg2T_TT_-120.log
 Initial command:
 /apps/gaussian/g16-c01-avx/g16/l1.exe "/tmp/pbs.4766241[55].pbs/Gau-3558679.inp" -scrdir="/tmp/pbs.4766241[55].pbs/"
 Entering Link 1 = /apps/gaussian/g16-c01-avx/g16/l1.exe PID=   3558680.
  
 Copyright (c) 1988-2019, Gaussian, Inc.  All Rights Reserved.
  
 This is part of the Gaussian(R) 16 program.  It is based on
 the Gaussian(R) 09 system (copyright 2009, Gaussian, Inc.),
 the Gaussian(R) 03 system (copyright 2003, Gaussian, Inc.),
 the Gaussian(R) 98 system (copyright 1998, Gaussian, Inc.),
 the Gaussian(R) 94 system (copyright 1995, Gaussian, Inc.),
 the Gaussian 92(TM) system (copyright 1992, Gaussian, Inc.),
 the Gaussian 90(TM) system (copyright 1990, Gaussian, Inc.),
 the Gaussian 88(TM) system (copyright 1988, Gaussian, Inc.),
 the Gaussian 86(TM) system (copyright 1986, Carnegie Mellon
 University), and the Gaussian 82(TM) system (copyright 1983,
 Carnegie Mellon University). Gaussian is a federally registered
 trademark of Gaussian, Inc.
  
 This software contains proprietary and confidential information,
 including trade secrets, belonging to Gaussian, Inc.
  
 This software is provided under written license and may be
 used, copied, transmitted, or stored only in accord with that
 written license.
  
 The following legend is applicable only to US Government
 contracts under FAR:
  
                    RESTRICTED RIGHTS LEGEND
  
 Use, reproduction and disclosure by the US Government is
 subject to restrictions as set forth in subparagraphs (a)
 and (c) of the Commercial Computer Software - Restricted
 Rights clause in FAR 52.227-19.
  
 Gaussian, Inc.
 340 Quinnipiac St., Bldg. 40, Wallingford CT 06492
  
  
 ---------------------------------------------------------------
 Warning -- This program may not be used in any manner that
 competes with the business of Gaussian, Inc. or will provide
 assistance to any competitor of Gaussian, Inc.  The licensee
 of this program is prohibited from giving any competitor of
 Gaussian, Inc. access to this program.  By using this program,
 the user acknowledges that Gaussian, Inc. is engaged in the
 business of creating and licensing software in the field of
 computational chemistry and represents and warrants to the
 licensee that it is not a competitor of Gaussian, Inc. and that
 it will not use this program in any manner prohibited above.
 ---------------------------------------------------------------
  

 Cite this work as:
 Gaussian 16, Revision C.01,
 M. J. Frisch, G. W. Trucks, H. B. Schlegel, G. E. Scuseria, 
 M. A. Robb, J. R. Cheeseman, G. Scalmani, V. Barone, 
 G. A. Petersson, H. Nakatsuji, X. Li, M. Caricato, A. V. Marenich, 
 J. Bloino, B. G. Janesko, R. Gomperts, B. Mennucci, H. P. Hratchian, 
 J. V. Ortiz, A. F. Izmaylov, J. L. Sonnenberg, D. Williams-Young, 
 F. Ding, F. Lipparini, F. Egidi, J. Goings, B. Peng, A. Petrone, 
 T. Henderson, D. Ranasinghe, V. G. Zakrzewski, J. Gao, N. Rega, 
 G. Zheng, W. Liang, M. Hada, M. Ehara, K. Toyota, R. Fukuda, 
 J. Hasegawa, M. Ishida, T. Nakajima, Y. Honda, O. Kitao, H. Nakai, 
 T. Vreven, K. Throssell, J. A. Montgomery, Jr., J. E. Peralta, 
 F. Ogliaro, M. J. Bearpark, J. J. Heyd, E. N. Brothers, K. N. Kudin, 
 V. N. Staroverov, T. A. Keith, R. Kobayashi, J. Normand, 
 K. Raghavachari, A. P. Rendell, J. C. Burant, S. S. Iyengar, 
 J. Tomasi, M. Cossi, J. M. Millam, M. Klene, C. Adamo, R. Cammi, 
 J. W. Ochterski, R. L. Martin, K. Morokuma, O. Farkas, 
 J. B. Foresman, and D. J. Fox, Gaussian, Inc., Wallingford CT, 2019.
 
 ******************************************
 Gaussian 16:  ES64L-G16RevC.01  3-Jul-2019
                27-Oct-2021 
 ******************************************
 %mem=100GB
 %nprocshared=8
 Will use up to    8 processors via shared memory.
 ---------------------------------
 # opt=modredundant hf/aug-cc-pvdz
 ---------------------------------
 1/18=120,19=15,38=1/1,3;
 2/9=110,12=2,17=6,18=5,40=1/2;
 3/5=16,7=10,11=9,25=1,30=1,71=1/1,2,3;
 4//1;
 5/5=2,38=5/2;
 6/7=2,8=2,9=2,10=2,28=1/1;
 7//1,2,3,16;
 1/18=20,19=15/3(2);
 2/9=110/2;
 99//99;
 2/9=110/2;
 3/5=16,7=10,11=9,25=1,30=1,71=1/1,2,3;
 4/5=5,16=3,69=1/1;
 5/5=2,38=5/2;
 7//1,2,3,16;
 1/18=20,19=15/3(-5);
 2/9=110/2;
 6/7=2,8=2,9=2,10=2,19=2,28=1/1;
 99/9=1/99;
 ----------------
 pg2T_TT_-120.pdb
 ----------------
 Symbolic Z-matrix:
 Charge =  0 Multiplicity = 1
 C                    -4.25     -1.36     -0.21 
 C                    -2.93     -0.95     -0.61 
 C                    -1.97     -2.05     -0.62 
 C                    -4.33     -2.76      0.1 
 S                    -2.8      -3.56     -0.11 
 H                    -5.23     -3.27      0.41 
 C                    -0.56     -2.13     -0.97 
 S                     0.033    -3.196    -2.281 
 C                     1.677    -2.71     -2.046 
 C                     1.814    -1.723    -1.006 
 C                     0.561    -1.377    -0.404 
 H                     0.445    -0.545     0.273 
 S                     3.215    -0.725    -1.213 
 C                     3.669    -1.598    -2.679 
 C                     2.722    -2.636    -3.014 
 H                     4.457    -1.256    -3.335 
 H                     2.672    -3.089    -4. 
 H                    -2.89      0.24     -0.97 
 O                    -5.6      -0.36     -0.4 
 H                    -5.76      0.85     -0.75 
 
 Add virtual bond connecting atoms H20        and O19        Dist= 2.40D+00.
 Add virtual bond connecting atoms O19        and C1         Dist= 3.20D+00.
 The following ModRedundant input section has been read:
 D       2       3       7       8 F                                           
 

 GradGradGradGradGradGradGradGradGradGradGradGradGradGradGradGradGradGrad
 Berny optimization.
 Initialization pass.
                           ----------------------------
                           !    Initial Parameters    !
                           ! (Angstroms and Degrees)  !
 --------------------------                            --------------------------
 ! Name  Definition              Value          Derivative Info.                !
 --------------------------------------------------------------------------------
 ! R1    R(1,2)                  1.4389         estimate D2E/DX2                !
 ! R2    R(1,4)                  1.4361         estimate D2E/DX2                !
 ! R3    R(1,19)                 1.6907         estimate D2E/DX2                !
 ! R4    R(2,3)                  1.46           estimate D2E/DX2                !
 ! R5    R(2,18)                 1.2439         estimate D2E/DX2                !
 ! R6    R(3,5)                  1.797          estimate D2E/DX2                !
 ! R7    R(3,7)                  1.455          estimate D2E/DX2                !
 ! R8    R(4,5)                  1.7393         estimate D2E/DX2                !
 ! R9    R(4,6)                  1.0799         estimate D2E/DX2                !
 ! R10   R(7,8)                  1.7907         estimate D2E/DX2                !
 ! R11   R(7,11)                 1.4642         estimate D2E/DX2                !
 ! R12   R(8,9)                  1.7304         estimate D2E/DX2                !
 ! R13   R(9,10)                 1.4403         estimate D2E/DX2                !
 ! R14   R(9,15)                 1.4264         estimate D2E/DX2                !
 ! R15   R(10,11)                1.4325         estimate D2E/DX2                !
 ! R16   R(10,13)                1.7325         estimate D2E/DX2                !
 ! R17   R(11,12)                1.0789         estimate D2E/DX2                !
 ! R18   R(13,14)                1.7656         estimate D2E/DX2                !
 ! R19   R(14,15)                1.4445         estimate D2E/DX2                !
 ! R20   R(14,16)                1.0809         estimate D2E/DX2                !
 ! R21   R(15,17)                1.0862         estimate D2E/DX2                !
 ! R22   R(19,20)                1.2697         estimate D2E/DX2                !
 ! A1    A(2,1,4)              112.8843         estimate D2E/DX2                !
 ! A2    A(2,1,19)             122.1887         estimate D2E/DX2                !
 ! A3    A(4,1,19)             123.8039         estimate D2E/DX2                !
 ! A4    A(1,2,3)              112.9799         estimate D2E/DX2                !
 ! A5    A(1,2,18)             112.491          estimate D2E/DX2                !
 ! A6    A(3,2,18)             134.2373         estimate D2E/DX2                !
 ! A7    A(2,3,5)              109.1138         estimate D2E/DX2                !
 ! A8    A(2,3,7)              132.8639         estimate D2E/DX2                !
 ! A9    A(5,3,7)              118.0132         estimate D2E/DX2                !
 ! A10   A(1,4,5)              111.9209         estimate D2E/DX2                !
 ! A11   A(1,4,6)              124.6643         estimate D2E/DX2                !
 ! A12   A(5,4,6)              123.4062         estimate D2E/DX2                !
 ! A13   A(3,5,4)               93.0997         estimate D2E/DX2                !
 ! A14   A(3,7,8)              121.9884         estimate D2E/DX2                !
 ! A15   A(3,7,11)             128.3636         estimate D2E/DX2                !
 ! A16   A(8,7,11)             109.6091         estimate D2E/DX2                !
 ! A17   A(7,8,9)               92.7512         estimate D2E/DX2                !
 ! A18   A(8,9,10)             112.3894         estimate D2E/DX2                !
 ! A19   A(8,9,15)             128.2044         estimate D2E/DX2                !
 ! A20   A(10,9,15)            112.6304         estimate D2E/DX2                !
 ! A21   A(9,10,11)            112.6904         estimate D2E/DX2                !
 ! A22   A(9,10,13)            112.6674         estimate D2E/DX2                !
 ! A23   A(11,10,13)           128.1981         estimate D2E/DX2                !
 ! A24   A(7,11,10)            112.5189         estimate D2E/DX2                !
 ! A25   A(7,11,12)            123.8362         estimate D2E/DX2                !
 ! A26   A(10,11,12)           122.9563         estimate D2E/DX2                !
 ! A27   A(10,13,14)            91.2787         estimate D2E/DX2                !
 ! A28   A(13,14,15)           112.2901         estimate D2E/DX2                !
 ! A29   A(13,14,16)           122.3405         estimate D2E/DX2                !
 ! A30   A(15,14,16)           124.374          estimate D2E/DX2                !
 ! A31   A(9,15,14)            111.1129         estimate D2E/DX2                !
 ! A32   A(9,15,17)            124.1017         estimate D2E/DX2                !
 ! A33   A(14,15,17)           122.7096         estimate D2E/DX2                !
 ! A34   A(1,19,20)            134.0455         estimate D2E/DX2                !
 ! D1    D(4,1,2,3)              0.3915         estimate D2E/DX2                !
 ! D2    D(4,1,2,18)           175.0898         estimate D2E/DX2                !
 ! D3    D(19,1,2,3)          -167.9154         estimate D2E/DX2                !
 ! D4    D(19,1,2,18)            6.7829         estimate D2E/DX2                !
 ! D5    D(2,1,4,5)             -0.3845         estimate D2E/DX2                !
 ! D6    D(2,1,4,6)           -179.3471         estimate D2E/DX2                !
 ! D7    D(19,1,4,5)           167.7032         estimate D2E/DX2                !
 ! D8    D(19,1,4,6)           -11.2593         estimate D2E/DX2                !
 ! D9    D(2,1,19,20)           -7.6334         estimate D2E/DX2                !
 ! D10   D(4,1,19,20)         -174.6479         estimate D2E/DX2                !
 ! D11   D(1,2,3,5)             -0.2224         estimate D2E/DX2                !
 ! D12   D(1,2,3,7)            178.6265         estimate D2E/DX2                !
 ! D13   D(18,2,3,5)          -173.3787         estimate D2E/DX2                !
 ! D14   D(18,2,3,7)             5.4701         estimate D2E/DX2                !
 ! D15   D(2,3,5,4)              0.0033         estimate D2E/DX2                !
 ! D16   D(7,3,5,4)           -179.041          estimate D2E/DX2                !
 ! D17   D(2,3,7,8)           -120.0044         Frozen                          !
 ! D18   D(2,3,7,11)            57.4861         estimate D2E/DX2                !
 ! D19   D(5,3,7,8)             58.7635         estimate D2E/DX2                !
 ! D20   D(5,3,7,11)          -123.7459         estimate D2E/DX2                !
 ! D21   D(1,4,5,3)              0.2153         estimate D2E/DX2                !
 ! D22   D(6,4,5,3)            179.1932         estimate D2E/DX2                !
 ! D23   D(3,7,8,9)            179.7828         estimate D2E/DX2                !
 ! D24   D(11,7,8,9)             1.8713         estimate D2E/DX2                !
 ! D25   D(3,7,11,10)         -179.7985         estimate D2E/DX2                !
 ! D26   D(3,7,11,12)           -9.0795         estimate D2E/DX2                !
 ! D27   D(8,7,11,10)           -2.0578         estimate D2E/DX2                !
 ! D28   D(8,7,11,12)          168.6612         estimate D2E/DX2                !
 ! D29   D(7,8,9,10)            -1.2443         estimate D2E/DX2                !
 ! D30   D(7,8,9,15)          -149.8736         estimate D2E/DX2                !
 ! D31   D(8,9,10,11)            0.2561         estimate D2E/DX2                !
 ! D32   D(8,9,10,13)         -154.0319         estimate D2E/DX2                !
 ! D33   D(15,9,10,11)         153.9482         estimate D2E/DX2                !
 ! D34   D(15,9,10,13)          -0.3398         estimate D2E/DX2                !
 ! D35   D(8,9,15,14)          149.78           estimate D2E/DX2                !
 ! D36   D(8,9,15,17)          -14.1667         estimate D2E/DX2                !
 ! D37   D(10,9,15,14)           1.2117         estimate D2E/DX2                !
 ! D38   D(10,9,15,17)        -162.735          estimate D2E/DX2                !
 ! D39   D(9,10,11,7)            1.1985         estimate D2E/DX2                !
 ! D40   D(9,10,11,12)        -169.6148         estimate D2E/DX2                !
 ! D41   D(13,10,11,7)         150.5737         estimate D2E/DX2                !
 ! D42   D(13,10,11,12)        -20.2396         estimate D2E/DX2                !
 ! D43   D(9,10,13,14)          -0.4793         estimate D2E/DX2                !
 ! D44   D(11,10,13,14)       -149.8602         estimate D2E/DX2                !
 ! D45   D(10,13,14,15)          1.1749         estimate D2E/DX2                !
 ! D46   D(10,13,14,16)        170.2168         estimate D2E/DX2                !
 ! D47   D(13,14,15,9)          -1.567          estimate D2E/DX2                !
 ! D48   D(13,14,15,17)        162.6416         estimate D2E/DX2                !
 ! D49   D(16,14,15,9)        -170.3465         estimate D2E/DX2                !
 ! D50   D(16,14,15,17)         -6.1378         estimate D2E/DX2                !
 --------------------------------------------------------------------------------
 Trust Radius=3.00D-01 FncErr=1.00D-07 GrdErr=1.00D-07 EigMax=2.50D+02 EigMin=1.00D-04
 Number of steps in this run=    116 maximum allowed number of steps=    120.
 GradGradGradGradGradGradGradGradGradGradGradGradGradGradGradGradGradGrad

                          Input orientation:                          
 ---------------------------------------------------------------------
 Center     Atomic      Atomic             Coordinates (Angstroms)
 Number     Number       Type             X           Y           Z
 ---------------------------------------------------------------------
      1          6           0       -4.250000   -1.360000   -0.210000
      2          6           0       -2.930000   -0.950000   -0.610000
      3          6           0       -1.970000   -2.050000   -0.620000
      4          6           0       -4.330000   -2.760000    0.100000
      5         16           0       -2.800000   -3.560000   -0.110000
      6          1           0       -5.230000   -3.270000    0.410000
      7          6           0       -0.560000   -2.130000   -0.970000
      8         16           0        0.033000   -3.196000   -2.281000
      9          6           0        1.677000   -2.710000   -2.046000
     10          6           0        1.814000   -1.723000   -1.006000
     11          6           0        0.561000   -1.377000   -0.404000
     12          1           0        0.445000   -0.545000    0.273000
     13         16           0        3.215000   -0.725000   -1.213000
     14          6           0        3.669000   -1.598000   -2.679000
     15          6           0        2.722000   -2.636000   -3.014000
     16          1           0        4.457000   -1.256000   -3.335000
     17          1           0        2.672000   -3.089000   -4.000000
     18          1           0       -2.890000    0.240000   -0.970000
     19          8           0       -5.600000   -0.360000   -0.400000
     20          1           0       -5.760000    0.850000   -0.750000
 ---------------------------------------------------------------------
                    Distance matrix (angstroms):
                    1          2          3          4          5
     1  C    0.000000
     2  C    1.438923   0.000000
     3  C    2.417147   1.460034   0.000000
     4  C    1.436141   2.395871   2.567509   0.000000
     5  S    2.636759   2.660639   1.796970   1.739253   0.000000
     6  H    2.234480   3.422397   3.630000   1.079907   2.501879
     7  C    3.845335   2.671872   1.454991   3.969219   2.793224
     8  S    5.099414   4.076288   2.843281   4.989492   3.587705
     9  C    6.350018   5.136550   3.971106   6.379018   4.951174
    10  C    6.126784   4.822850   3.817667   6.328297   5.046423
    11  C    4.814940   3.523045   2.627841   5.107699   4.018488
    12  H    4.789628   3.512028   2.982398   5.266572   4.446003
    13  S    7.558800   6.178613   5.384375   7.924154   6.740479
    14  C    8.298383   6.946040   6.020142   8.547344   7.231678
    15  C    7.622295   6.369216   5.299952   7.709934   6.307097
    16  H    9.251394   7.879532   7.021965   9.553670   8.268802
    17  H    8.078838   6.888383   5.835416   8.120729   6.730284
    18  H    2.233204   1.243905   2.492589   3.495497   3.897140
    19  O    1.690739   2.742462   4.010162   2.760960   4.261936
    20  H    2.730531   3.356859   4.773992   3.974858   5.349701
                    6          7          8          9         10
     6  H    0.000000
     7  C    5.001290   0.000000
     8  S    5.911525   1.790733   0.000000
     9  C    7.352019   2.549185   1.730363   0.000000
    10  C    7.349571   2.408905   2.639567   1.440326   0.000000
    11  C    6.146684   1.464242   2.666585   2.391340   1.432525
    12  H    6.296826   2.251066   3.704114   3.403353   2.213072
    13  S    8.968232   4.035307   4.167924   2.645668   1.732528
    14  C    9.567116   4.592183   3.991554   2.367551   2.501116
    15  C    8.681016   3.899423   2.842817   1.426368   2.385392
    16  H   10.579187   5.614926   4.944319   3.391760   3.553559
    17  H    9.051103   4.532814   3.151306   2.225260   3.400905
    18  H    4.438479   3.323522   4.697738   5.542361   5.097282
    19  O    3.043206   5.372095   6.581166   7.822183   7.562566
    20  H    4.312876   5.997399   7.230002   8.346388   8.003208
                   11         12         13         14         15
    11  C    0.000000
    12  H    1.078892   0.000000
    13  S    2.850141   3.148570   0.000000
    14  C    3.857996   4.496364   1.765616   0.000000
    15  C    3.614845   4.512358   2.671810   1.444465   0.000000
    16  H    4.876907   5.442364   2.515434   1.080853   2.240015
    17  H    4.507603   5.448853   3.694687   2.227584   1.086234
    18  H    3.852849   3.644653   6.185572   7.022778   6.629016
    19  O    6.244376   6.085161   8.859933   9.625011   9.014924
    20  H    6.710759   6.441629   9.123904   9.930750   9.445751
                   16         17         18         19         20
    16  H    0.000000
    17  H    2.643547   0.000000
    18  H    7.861911   7.155347   0.000000
    19  O   10.514765   9.425149   2.833549   0.000000
    20  H   10.747304   9.857832   2.942346   1.269724   0.000000
 Stoichiometry    C10H6OS3
 Framework group  C1[X(C10H6OS3)]
 Deg. of freedom    54
 Full point group                 C1      NOp   1
 Largest Abelian subgroup         C1      NOp   1
 Largest concise Abelian subgroup C1      NOp   1
                         Standard orientation:                         
 ---------------------------------------------------------------------
 Center     Atomic      Atomic             Coordinates (Angstroms)
 Number     Number       Type             X           Y           Z
 ---------------------------------------------------------------------
      1          6           0        3.809496    0.714448    0.190250
      2          6           0        2.422816    1.064308    0.349049
      3          6           0        1.514643    0.032971   -0.144169
      4          6           0        3.994506   -0.569037   -0.426951
      5         16           0        2.478092   -1.336857   -0.795655
      6          1           0        4.954313   -1.021717   -0.627079
      7          6           0        0.064077   -0.076190   -0.174891
      8         16           0       -0.804759   -1.407207    0.649879
      9          6           0       -2.353267   -0.815818    0.153352
     10          6           0       -2.256366    0.400287   -0.612309
     11          6           0       -0.903005    0.834870   -0.790300
     12          1           0       -0.645292    1.802233   -1.192546
     13         16           0       -3.688266    1.370164   -0.509081
     14          6           0       -4.464357    0.182846    0.542280
     15          6           0       -3.603400   -0.941092    0.828627
     16          1           0       -5.395671    0.383756    1.052705
     17          1           0       -3.783840   -1.623301    1.654423
     18          1           0        2.269289    2.130570    0.970995
     19          8           0        5.049650    1.584987    0.940437
     20          1           0        5.092054    2.665407    1.606090
 ---------------------------------------------------------------------
 Rotational constants (GHZ):           1.3078637           0.2245897           0.2064055
 Standard basis: Aug-CC-pVDZ (5D, 7F)
 There are   416 symmetry adapted cartesian basis functions of A   symmetry.
 There are   388 symmetry adapted basis functions of A   symmetry.
   388 basis functions,   782 primitive gaussians,   416 cartesian basis functions
    61 alpha electrons       61 beta electrons
       nuclear repulsion energy      1076.9290592518 Hartrees.
 NAtoms=   20 NActive=   20 NUniq=   20 SFac= 1.00D+00 NAtFMM=   60 NAOKFM=F Big=F
 Integral buffers will be    131072 words long.
 Raffenetti 1 integral format.
 Two-electron integral symmetry is turned on.
 One-electron integrals computed using PRISM.
 NBasis=   388 RedAO= T EigKep=  6.89D-06  NBF=   388
 NBsUse=   388 1.00D-06 EigRej= -1.00D+00 NBFU=   388
 ExpMin= 2.97D-02 ExpMax= 1.11D+05 ExpMxC= 1.07D+03 IAcc=3 IRadAn=         5 AccDes= 0.00D+00
 Harris functional with IExCor=  205 and IRadAn=       5 diagonalized for initial guess.
 HarFok:  IExCor=  205 AccDes= 0.00D+00 IRadAn=         5 IDoV= 1 UseB2=F ITyADJ=14
 ICtDFT=  3500011 ScaDFX=  1.000000  1.000000  1.000000  1.000000
 FoFCou: FMM=F IPFlag=           0 FMFlag=      100000 FMFlg1=           0
         NFxFlg=           0 DoJE=T BraDBF=F KetDBF=T FulRan=T
         wScrn=  0.000000 ICntrl=       500 IOpCl=  0 I1Cent=   200000004 NGrid=           0
         NMat0=    1 NMatS0=      1 NMatT0=    0 NMatD0=    1 NMtDS0=    0 NMtDT0=    0
 Petite list used in FoFCou.
 Requested convergence on RMS density matrix=1.00D-08 within 128 cycles.
 Requested convergence on MAX density matrix=1.00D-06.
 Requested convergence on             energy=1.00D-06.
 No special actions if energy rises.
 SCF Done:  E(RHF) =  -1649.42021400     A.U. after   18 cycles
            NFock= 18  Conv=0.54D-08     -V/T= 2.0016

 **********************************************************************

            Population analysis using the SCF Density.

 **********************************************************************

 Orbital symmetries:
       Occupied  (A) (A) (A) (A) (A) (A) (A) (A) (A) (A) (A) (A)
                 (A) (A) (A) (A) (A) (A) (A) (A) (A) (A) (A) (A)
                 (A) (A) (A) (A) (A) (A) (A) (A) (A) (A) (A) (A)
                 (A) (A) (A) (A) (A) (A) (A) (A) (A) (A) (A) (A)
                 (A) (A) (A) (A) (A) (A) (A) (A) (A) (A) (A) (A)
                 (A)
       Virtual   (A) (A) (A) (A) (A) (A) (A) (A) (A) (A) (A) (A)
                 (A) (A) (A) (A) (A) (A) (A) (A) (A) (A) (A) (A)
                 (A) (A) (A) (A) (A) (A) (A) (A) (A) (A) (A) (A)
                 (A) (A) (A) (A) (A) (A) (A) (A) (A) (A) (A) (A)
                 (A) (A) (A) (A) (A) (A) (A) (A) (A) (A) (A) (A)
                 (A) (A) (A) (A) (A) (A) (A) (A) (A) (A) (A) (A)
                 (A) (A) (A) (A) (A) (A) (A) (A) (A) (A) (A) (A)
                 (A) (A) (A) (A) (A) (A) (A) (A) (A) (A) (A) (A)
                 (A) (A) (A) (A) (A) (A) (A) (A) (A) (A) (A) (A)
                 (A) (A) (A) (A) (A) (A) (A) (A) (A) (A) (A) (A)
                 (A) (A) (A) (A) (A) (A) (A) (A) (A) (A) (A) (A)
                 (A) (A) (A) (A) (A) (A) (A) (A) (A) (A) (A) (A)
                 (A) (A) (A) (A) (A) (A) (A) (A) (A) (A) (A) (A)
                 (A) (A) (A) (A) (A) (A) (A) (A) (A) (A) (A) (A)
                 (A) (A) (A) (A) (A) (A) (A) (A) (A) (A) (A) (A)
                 (A) (A) (A) (A) (A) (A) (A) (A) (A) (A) (A) (A)
                 (A) (A) (A) (A) (A) (A) (A) (A) (A) (A) (A) (A)
                 (A) (A) (A) (A) (A) (A) (A) (A) (A) (A) (A) (A)
                 (A) (A) (A) (A) (A) (A) (A) (A) (A) (A) (A) (A)
                 (A) (A) (A) (A) (A) (A) (A) (A) (A) (A) (A) (A)
                 (A) (A) (A) (A) (A) (A) (A) (A) (A) (A) (A) (A)
                 (A) (A) (A) (A) (A) (A) (A) (A) (A) (A) (A) (A)
                 (A) (A) (A) (A) (A) (A) (A) (A) (A) (A) (A) (A)
                 (A) (A) (A) (A) (A) (A) (A) (A) (A) (A) (A) (A)
                 (A) (A) (A) (A) (A) (A) (A) (A) (A) (A) (A) (A)
                 (A) (A) (A) (A) (A) (A) (A) (A) (A) (A) (A) (A)
                 (A) (A) (A) (A) (A) (A) (A) (A) (A) (A) (A) (A)
                 (A) (A) (A)
 The electronic state is 1-A.
 Alpha  occ. eigenvalues --  -92.01386 -92.00644 -92.00569 -20.59934 -11.34946
 Alpha  occ. eigenvalues --  -11.32029 -11.31364 -11.30051 -11.29937 -11.29887
 Alpha  occ. eigenvalues --  -11.29381 -11.29122 -11.28398 -11.27819  -9.01311
 Alpha  occ. eigenvalues --   -9.00700  -9.00598  -6.69466  -6.69361  -6.69188
 Alpha  occ. eigenvalues --   -6.68864  -6.68775  -6.68759  -6.68665  -6.68586
 Alpha  occ. eigenvalues --   -6.68476  -1.25166  -1.20470  -1.16515  -1.10984
 Alpha  occ. eigenvalues --   -1.03860  -1.01209  -0.99058  -0.94972  -0.93067
 Alpha  occ. eigenvalues --   -0.83496  -0.78031  -0.74532  -0.72811  -0.71376
 Alpha  occ. eigenvalues --   -0.66857  -0.65939  -0.60228  -0.57871  -0.57427
 Alpha  occ. eigenvalues --   -0.55457  -0.55160  -0.54704  -0.53645  -0.52730
 Alpha  occ. eigenvalues --   -0.50921  -0.49428  -0.48238  -0.47774  -0.47107
 Alpha  occ. eigenvalues --   -0.45696  -0.39572  -0.35863  -0.33689  -0.32545
 Alpha  occ. eigenvalues --   -0.27847
 Alpha virt. eigenvalues --    0.02472   0.03366   0.04202   0.04451   0.04575
 Alpha virt. eigenvalues --    0.04839   0.06088   0.07518   0.07973   0.08282
 Alpha virt. eigenvalues --    0.08978   0.09547   0.09728   0.10320   0.10562
 Alpha virt. eigenvalues --    0.10998   0.11581   0.11846   0.12433   0.13179
 Alpha virt. eigenvalues --    0.13463   0.13562   0.13963   0.14186   0.15134
 Alpha virt. eigenvalues --    0.15305   0.15641   0.15885   0.16064   0.16273
 Alpha virt. eigenvalues --    0.16906   0.17370   0.17423   0.17679   0.18270
 Alpha virt. eigenvalues --    0.18788   0.19195   0.19380   0.19710   0.20112
 Alpha virt. eigenvalues --    0.20346   0.20910   0.21661   0.22161   0.22609
 Alpha virt. eigenvalues --    0.22705   0.23576   0.24064   0.24779   0.25175
 Alpha virt. eigenvalues --    0.25771   0.26352   0.26449   0.26823   0.27160
 Alpha virt. eigenvalues --    0.27792   0.28117   0.29378   0.29825   0.30388
 Alpha virt. eigenvalues --    0.30429   0.31205   0.31877   0.31985   0.32458
 Alpha virt. eigenvalues --    0.32664   0.32851   0.33318   0.34062   0.34327
 Alpha virt. eigenvalues --    0.34719   0.35748   0.36401   0.36611   0.37194
 Alpha virt. eigenvalues --    0.37988   0.38772   0.39397   0.40338   0.40967
 Alpha virt. eigenvalues --    0.41045   0.41900   0.42573   0.43031   0.43954
 Alpha virt. eigenvalues --    0.44494   0.44784   0.45114   0.45422   0.46312
 Alpha virt. eigenvalues --    0.46418   0.47240   0.48232   0.49209   0.49831
 Alpha virt. eigenvalues --    0.50551   0.51078   0.51693   0.52604   0.53049
 Alpha virt. eigenvalues --    0.53717   0.54131   0.55048   0.55790   0.56682
 Alpha virt. eigenvalues --    0.57351   0.57990   0.58718   0.59324   0.59829
 Alpha virt. eigenvalues --    0.60591   0.61131   0.61558   0.62757   0.63061
 Alpha virt. eigenvalues --    0.64055   0.64676   0.65187   0.65439   0.66160
 Alpha virt. eigenvalues --    0.66754   0.67197   0.67521   0.68451   0.68836
 Alpha virt. eigenvalues --    0.69012   0.69971   0.70726   0.70848   0.71389
 Alpha virt. eigenvalues --    0.72007   0.72499   0.72956   0.74013   0.74310
 Alpha virt. eigenvalues --    0.74969   0.75421   0.75881   0.76746   0.77908
 Alpha virt. eigenvalues --    0.78339   0.79447   0.79493   0.81526   0.81969
 Alpha virt. eigenvalues --    0.82637   0.82748   0.84055   0.84402   0.85291
 Alpha virt. eigenvalues --    0.85742   0.87559   0.88085   0.88649   0.88917
 Alpha virt. eigenvalues --    0.90070   0.90423   0.92172   0.92764   0.93520
 Alpha virt. eigenvalues --    0.94279   0.94996   0.96300   0.96356   0.96737
 Alpha virt. eigenvalues --    0.97123   0.98020   0.98686   0.99103   0.99700
 Alpha virt. eigenvalues --    1.01428   1.02351   1.02906   1.04264   1.04688
 Alpha virt. eigenvalues --    1.04926   1.08341   1.08422   1.09667   1.11302
 Alpha virt. eigenvalues --    1.11706   1.11889   1.14163   1.15238   1.16401
 Alpha virt. eigenvalues --    1.16784   1.18871   1.19661   1.20290   1.21197
 Alpha virt. eigenvalues --    1.21722   1.22359   1.23642   1.24055   1.24403
 Alpha virt. eigenvalues --    1.25673   1.26224   1.26967   1.27205   1.27725
 Alpha virt. eigenvalues --    1.28869   1.29669   1.30290   1.31198   1.32532
 Alpha virt. eigenvalues --    1.35238   1.35680   1.36337   1.36660   1.37528
 Alpha virt. eigenvalues --    1.39621   1.41215   1.41956   1.44128   1.44708
 Alpha virt. eigenvalues --    1.47046   1.48063   1.49269   1.53613   1.54049
 Alpha virt. eigenvalues --    1.54552   1.55515   1.56820   1.57054   1.58327
 Alpha virt. eigenvalues --    1.58811   1.59642   1.61243   1.61685   1.62275
 Alpha virt. eigenvalues --    1.64092   1.65975   1.66625   1.67681   1.67844
 Alpha virt. eigenvalues --    1.69106   1.71097   1.72138   1.73329   1.74563
 Alpha virt. eigenvalues --    1.75303   1.77158   1.77440   1.79003   1.79621
 Alpha virt. eigenvalues --    1.80731   1.81903   1.82040   1.83326   1.84979
 Alpha virt. eigenvalues --    1.87507   1.88364   1.89815   1.90089   1.92173
 Alpha virt. eigenvalues --    1.93384   1.94767   1.95093   1.97398   1.98736
 Alpha virt. eigenvalues --    1.99733   1.99840   2.01409   2.02683   2.03870
 Alpha virt. eigenvalues --    2.04514   2.05544   2.06619   2.07659   2.07971
 Alpha virt. eigenvalues --    2.09919   2.11305   2.12707   2.13446   2.15316
 Alpha virt. eigenvalues --    2.16325   2.17521   2.18439   2.20946   2.22348
 Alpha virt. eigenvalues --    2.22720   2.24768   2.25333   2.26875   2.28965
 Alpha virt. eigenvalues --    2.30702   2.32903   2.33450   2.35002   2.35755
 Alpha virt. eigenvalues --    2.38093   2.39532   2.40300   2.43241   2.44240
 Alpha virt. eigenvalues --    2.45180   2.48374   2.51693   2.52580   2.56606
 Alpha virt. eigenvalues --    2.56987   2.66018   2.68916   2.74085   2.78768
 Alpha virt. eigenvalues --    2.79018   2.81874   2.83211   2.83806   2.87147
 Alpha virt. eigenvalues --    2.94773   3.00466   3.03448   3.09622   3.13550
 Alpha virt. eigenvalues --    3.20189   3.26969   3.36613   3.43730   3.73424
 Alpha virt. eigenvalues --    3.76195   3.78006   3.81333   3.83718   3.99060
 Alpha virt. eigenvalues --    4.09618   4.12191
          Condensed to atoms (all electrons):
               1          2          3          4          5          6
     1  C    5.811780  -0.181437  -0.192360   0.574807  -0.267110   0.056406
     2  C   -0.181437   7.749982  -0.721049   0.025998  -0.350996   0.043926
     3  C   -0.192360  -0.721049   8.569089  -0.726554   0.218433   0.073844
     4  C    0.574807   0.025998  -0.726554   5.625071   0.200156   0.097649
     5  S   -0.267110  -0.350996   0.218433   0.200156  15.773321  -0.166816
     6  H    0.056406   0.043926   0.073844   0.097649  -0.166816   1.193187
     7  C    0.113039  -0.704418  -1.667497   0.119553   0.009598   0.000861
     8  S   -0.000168  -0.110055  -0.262281  -0.024003   0.205081  -0.000307
     9  C    0.024758   0.018000   0.103156   0.011382  -0.029690   0.000659
    10  C   -0.014771   0.072667   0.223403   0.000623  -0.020552   0.000066
    11  C   -0.022493   0.376540  -0.237459   0.022682  -0.173330   0.002767
    12  H    0.019197   0.009797  -0.023885   0.003477  -0.004596   0.000405
    13  S   -0.003514  -0.006124   0.035021  -0.000081   0.001142  -0.000020
    14  C    0.001171  -0.000737   0.050177  -0.000000  -0.006796   0.000025
    15  C   -0.002392  -0.013429  -0.189336  -0.001296   0.024253  -0.000203
    16  H    0.000030   0.000031   0.002594   0.000008  -0.000319   0.000002
    17  H   -0.000391  -0.001392  -0.007240   0.000143   0.002474  -0.000003
    18  H   -0.078090   0.350781  -0.015587  -0.008258   0.012462  -0.001263
    19  O   -0.059914  -0.072033   0.009828  -0.038253   0.002450  -0.013157
    20  H    0.018318  -0.003030  -0.000420  -0.015238   0.001078  -0.002577
               7          8          9         10         11         12
     1  C    0.113039  -0.000168   0.024758  -0.014771  -0.022493   0.019197
     2  C   -0.704418  -0.110055   0.018000   0.072667   0.376540   0.009797
     3  C   -1.667497  -0.262281   0.103156   0.223403  -0.237459  -0.023885
     4  C    0.119553  -0.024003   0.011382   0.000623   0.022682   0.003477
     5  S    0.009598   0.205081  -0.029690  -0.020552  -0.173330  -0.004596
     6  H    0.000861  -0.000307   0.000659   0.000066   0.002767   0.000405
     7  C    9.962734   0.474149  -0.509071  -0.448601  -1.668178   0.229061
     8  S    0.474149  16.039081   0.103032  -0.245695  -0.575893   0.032047
     9  C   -0.509071   0.103032   7.643078   0.081318  -0.095775  -0.037272
    10  C   -0.448601  -0.245695   0.081318   8.238867  -1.639164   0.227841
    11  C   -1.668178  -0.575893  -0.095775  -1.639164  10.425107  -0.513695
    12  H    0.229061   0.032047  -0.037272   0.227841  -0.513695   1.517758
    13  S   -0.127122  -0.005321   0.000600   0.155087  -0.126510  -0.047953
    14  C    0.018400  -0.065005   0.121458  -0.266230  -0.270621   0.002906
    15  C   -0.060713  -0.040689  -1.099935   0.152132   0.320328  -0.000862
    16  H   -0.006140  -0.006654  -0.029168   0.018264   0.033717   0.001887
    17  H    0.043158  -0.028178   0.179204  -0.009964  -0.016353   0.000073
    18  H   -0.078135  -0.007977  -0.003840   0.010152   0.044767  -0.003986
    19  O    0.004886   0.001747  -0.000052  -0.000684  -0.001448   0.000299
    20  H   -0.000361   0.000070   0.000009  -0.000025   0.000144   0.000069
              13         14         15         16         17         18
     1  C   -0.003514   0.001171  -0.002392   0.000030  -0.000391  -0.078090
     2  C   -0.006124  -0.000737  -0.013429   0.000031  -0.001392   0.350781
     3  C    0.035021   0.050177  -0.189336   0.002594  -0.007240  -0.015587
     4  C   -0.000081  -0.000000  -0.001296   0.000008   0.000143  -0.008258
     5  S    0.001142  -0.006796   0.024253  -0.000319   0.002474   0.012462
     6  H   -0.000020   0.000025  -0.000203   0.000002  -0.000003  -0.001263
     7  C   -0.127122   0.018400  -0.060713  -0.006140   0.043158  -0.078135
     8  S   -0.005321  -0.065005  -0.040689  -0.006654  -0.028178  -0.007977
     9  C    0.000600   0.121458  -1.099935  -0.029168   0.179204  -0.003840
    10  C    0.155087  -0.266230   0.152132   0.018264  -0.009964   0.010152
    11  C   -0.126510  -0.270621   0.320328   0.033717  -0.016353   0.044767
    12  H   -0.047953   0.002906  -0.000862   0.001887   0.000073  -0.003986
    13  S   15.627905   0.210469  -0.282253  -0.134303   0.007959   0.001252
    14  C    0.210469   5.809817   0.230708   0.243638  -0.060342   0.000120
    15  C   -0.282253   0.230708   6.638109   0.037611  -0.112308   0.000601
    16  H   -0.134303   0.243638   0.037611   1.232855  -0.058523   0.000013
    17  H    0.007959  -0.060342  -0.112308  -0.058523   1.374423   0.000004
    18  H    0.001252   0.000120   0.000601   0.000013   0.000004   0.890420
    19  O    0.000023  -0.000017   0.000036  -0.000001   0.000010  -0.019555
    20  H   -0.000003   0.000000   0.000006   0.000000   0.000001   0.007178
              19         20
     1  C   -0.059914   0.018318
     2  C   -0.072033  -0.003030
     3  C    0.009828  -0.000420
     4  C   -0.038253  -0.015238
     5  S    0.002450   0.001078
     6  H   -0.013157  -0.002577
     7  C    0.004886  -0.000361
     8  S    0.001747   0.000070
     9  C   -0.000052   0.000009
    10  C   -0.000684  -0.000025
    11  C   -0.001448   0.000144
    12  H    0.000299   0.000069
    13  S    0.000023  -0.000003
    14  C   -0.000017   0.000000
    15  C    0.000036   0.000006
    16  H   -0.000001   0.000000
    17  H    0.000010   0.000001
    18  H   -0.019555   0.007178
    19  O    9.102792   0.219854
    20  H    0.219854   0.355202
 Mulliken charges:
               1
     1  C    0.203134
     2  C   -0.483022
     3  C    0.758122
     4  C    0.132135
     5  S    0.569756
     6  H   -0.285452
     7  C    0.294799
     8  S    0.517017
     9  C   -0.481851
    10  C   -0.534734
    11  C    0.114865
    12  H   -0.412568
    13  S    0.693746
    14  C   -0.019141
    15  C    0.399633
    16  H   -0.335543
    17  H   -0.312756
    18  H   -0.101059
    19  O   -1.136808
    20  H    0.419726
 Sum of Mulliken charges =  -0.00000
 Mulliken charges with hydrogens summed into heavy atoms:
               1
     1  C    0.203134
     2  C   -0.584081
     3  C    0.758122
     4  C   -0.153317
     5  S    0.569756
     7  C    0.294799
     8  S    0.517017
     9  C   -0.481851
    10  C   -0.534734
    11  C   -0.297703
    13  S    0.693746
    14  C   -0.354683
    15  C    0.086877
    19  O   -0.717083
 Electronic spatial extent (au):  <R**2>=           4992.2332
 Charge=              0.0000 electrons
 Dipole moment (field-independent basis, Debye):
    X=             -1.5898    Y=              1.4761    Z=              1.5121  Tot=              2.6444
 Quadrupole moment (field-independent basis, Debye-Ang):
   XX=           -102.1685   YY=            -95.3244   ZZ=           -104.9557
   XY=              1.9336   XZ=             -4.9616   YZ=              2.7443
 Traceless Quadrupole moment (field-independent basis, Debye-Ang):
   XX=             -1.3523   YY=              5.4918   ZZ=             -4.1395
   XY=              1.9336   XZ=             -4.9616   YZ=              2.7443
 Octapole moment (field-independent basis, Debye-Ang**2):
  XXX=            -66.2448  YYY=             33.2645  ZZZ=             13.3817  XYY=             40.4131
  XXY=              5.8075  XXZ=             38.9969  XZZ=              7.8528  YZZ=              8.9032
  YYZ=             19.1687  XYZ=             36.1502
 Hexadecapole moment (field-independent basis, Debye-Ang**3):
 XXXX=          -5670.1780 YYYY=           -792.6982 ZZZZ=           -384.9126 XXXY=            -57.6857
 XXXZ=           -158.1087 YYYX=            137.3134 YYYZ=             50.9970 ZZZX=             26.7647
 ZZZY=             15.2113 XXYY=           -920.9882 XXZZ=           -975.4182 YYZZ=           -167.5068
 XXYZ=            123.5676 YYXZ=             75.6464 ZZXY=             61.9374
 N-N= 1.076929059252D+03 E-N=-6.058075176747D+03  KE= 1.646825810571D+03
 Calling FoFJK, ICntrl=      2127 FMM=F ISym2X=0 I1Cent= 0 IOpClX= 0 NMat=1 NMatS=1 NMatT=0.
 ***** Axes restored to original set *****
 -------------------------------------------------------------------
 Center     Atomic                   Forces (Hartrees/Bohr)
 Number     Number              X              Y              Z
 -------------------------------------------------------------------
      1        6          -0.032769873   -0.004712456   -0.016970041
      2        6           0.019144767    0.018830560   -0.020192637
      3        6          -0.069607777    0.036255259    0.009502979
      4        6          -0.012652011    0.075140711   -0.013629097
      5       16          -0.005253008    0.040856013   -0.002743952
      6        1           0.004216593   -0.002546895   -0.002329370
      7        6           0.081374347    0.042997994    0.018431826
      8       16          -0.006494806    0.004547930    0.023080142
      9        6           0.007930119    0.048910503    0.024787697
     10        6          -0.031426768   -0.025206014   -0.039211630
     11        6          -0.055229675   -0.042861765   -0.036758889
     12        1          -0.004077468   -0.005668596    0.005181681
     13       16           0.010188113   -0.018541039   -0.013752966
     14        6          -0.058585108   -0.048787027   -0.014199361
     15        6           0.045440209    0.061171806    0.014278730
     16        1           0.003137080   -0.002465586    0.007750578
     17        1           0.007298720   -0.004134515    0.008521289
     18        1           0.016546841   -0.079117458    0.021197359
     19        8           0.034303961    0.036172636   -0.009892698
     20        1           0.046515744   -0.130842062    0.036948361
 -------------------------------------------------------------------
 Cartesian Forces:  Max     0.130842062 RMS     0.036863228

 GradGradGradGradGradGradGradGradGradGradGradGradGradGradGradGradGradGrad
 Berny optimization.
 FormGI is forming the generalized inverse of G from B-inverse, IUseBI=4.
 Internal  Forces:  Max     0.140733960 RMS     0.028726721
 Search for a local minimum.
 Step number   1 out of a maximum of  116
 All quantities printed in internal units (Hartrees-Bohrs-Radians)
 Mixed Optimization -- RFO/linear search
 Second derivative matrix not updated -- first step.
 ITU=  0
     Eigenvalues ---    0.00230   0.00983   0.01055   0.01222   0.01274
     Eigenvalues ---    0.01299   0.01386   0.01417   0.01425   0.01464
     Eigenvalues ---    0.01495   0.01554   0.01597   0.01769   0.02200
     Eigenvalues ---    0.02653   0.15087   0.15681   0.15734   0.15872
     Eigenvalues ---    0.15997   0.16000   0.17998   0.18458   0.20203
     Eigenvalues ---    0.21719   0.22443   0.23321   0.23380   0.23776
     Eigenvalues ---    0.23977   0.24292   0.24979   0.24995   0.26219
     Eigenvalues ---    0.26520   0.28353   0.30834   0.31302   0.31546
     Eigenvalues ---    0.34849   0.35251   0.35849   0.35891   0.36006
     Eigenvalues ---    0.36128   0.36365   0.37598   0.38341   0.38494
     Eigenvalues ---    0.39449   0.39711   0.405931000.000001000.00000
     Eigenvalues --- 1000.000001000.000001000.000001000.000001000.00000
     Eigenvalues --- 1000.000001000.000001000.000001000.000001000.00000
     Eigenvalues --- 1000.000001000.000001000.000001000.000001000.00000
     Eigenvalues --- 1000.000001000.000001000.000001000.000001000.00000
     Eigenvalues --- 1000.000001000.000001000.000001000.000001000.00000
     Eigenvalues --- 1000.000001000.000001000.000001000.000001000.00000
     Eigenvalues --- 1000.000001000.000001000.000001000.000001000.00000
     Eigenvalues --- 1000.000001000.000001000.000001000.000001000.00000
     Eigenvalues --- 1000.000001000.000001000.000001000.000001000.00000
     Eigenvalues --- 1000.000001000.000001000.000001000.000001000.00000
     Eigenvalues --- 1000.00000
 RFO step:  Lambda=-1.96125821D-01 EMin= 2.30000000D-03
 Linear search not attempted -- first point.
 Maximum step size (   0.300) exceeded in Quadratic search.
    -- Step size scaled by   0.451
 Iteration  1 RMS(Cart)=  0.05851082 RMS(Int)=  0.00115634
 Iteration  2 RMS(Cart)=  0.00146069 RMS(Int)=  0.00005753
 Iteration  3 RMS(Cart)=  0.00000609 RMS(Int)=  0.00005738
 Iteration  4 RMS(Cart)=  0.00000000 RMS(Int)=  0.00005738
 Iteration  1 RMS(Cart)=  0.00000164 RMS(Int)=  0.00000065
 Iteration  2 RMS(Cart)=  0.00000089 RMS(Int)=  0.00000072
 Variable       Old X    -DE/DX   Delta X   Delta X   Delta X     New X
                                 (Linear)    (Quad)   (Total)
    R1        2.71917  -0.01953   0.00000  -0.01579  -0.01571   2.70346
    R2        2.71391  -0.08752   0.00000  -0.06657  -0.06654   2.64737
    R3        3.19503  -0.12357   0.00000  -0.14645  -0.14645   3.04859
    R4        2.75906  -0.09294   0.00000  -0.07441  -0.07438   2.68469
    R5        2.35064  -0.08129   0.00000  -0.08874  -0.08874   2.26190
    R6        3.39578  -0.02762   0.00000  -0.02612  -0.02617   3.36961
    R7        2.74954  -0.00052   0.00000  -0.00041  -0.00041   2.74912
    R8        3.28671  -0.02145   0.00000  -0.01822  -0.01828   3.26843
    R9        2.04073  -0.00298   0.00000  -0.00242  -0.00242   2.03831
   R10        3.38400  -0.02080   0.00000  -0.01932  -0.01936   3.36464
   R11        2.76702  -0.08872   0.00000  -0.07162  -0.07162   2.69540
   R12        3.26991  -0.00528   0.00000  -0.00402  -0.00403   3.26588
   R13        2.72182  -0.05434   0.00000  -0.04206  -0.04199   2.67984
   R14        2.69544   0.00188   0.00000   0.00067   0.00072   2.69616
   R15        2.70708  -0.00871   0.00000  -0.00732  -0.00729   2.69979
   R16        3.27400  -0.00292   0.00000  -0.00185  -0.00187   3.27213
   R17        2.03881  -0.00068   0.00000  -0.00055  -0.00055   2.03826
   R18        3.33653  -0.01860   0.00000  -0.01669  -0.01675   3.31978
   R19        2.72964  -0.08012   0.00000  -0.06208  -0.06208   2.66756
   R20        2.04252  -0.00320   0.00000  -0.00260  -0.00260   2.03992
   R21        2.05269  -0.00635   0.00000  -0.00522  -0.00522   2.04747
   R22        2.39943  -0.14073   0.00000  -0.15948  -0.15948   2.23995
    A1        1.97020   0.02293   0.00000   0.02177   0.02188   1.99208
    A2        2.13260   0.00255   0.00000   0.00383   0.00379   2.13638
    A3        2.16079  -0.02486   0.00000  -0.02434  -0.02442   2.13636
    A4        1.97187  -0.00321   0.00000  -0.00502  -0.00491   1.96696
    A5        1.96334   0.02399   0.00000   0.03099   0.03094   1.99428
    A6        2.34288  -0.02058   0.00000  -0.02549  -0.02555   2.31733
    A7        1.90440   0.00023   0.00000   0.00092   0.00091   1.90530
    A8        2.31891  -0.01317   0.00000  -0.01367  -0.01367   2.30525
    A9        2.05972   0.01295   0.00000   0.01275   0.01276   2.07248
   A10        1.95339  -0.01786   0.00000  -0.01911  -0.01913   1.93426
   A11        2.17580   0.01320   0.00000   0.01498   0.01499   2.19079
   A12        2.15384   0.00469   0.00000   0.00419   0.00419   2.15804
   A13        1.62490  -0.00209   0.00000   0.00147   0.00127   1.62616
   A14        2.12910  -0.00376   0.00000  -0.00369  -0.00370   2.12540
   A15        2.24037  -0.00507   0.00000  -0.00504  -0.00505   2.23532
   A16        1.91304   0.00891   0.00000   0.00881   0.00883   1.92187
   A17        1.61881  -0.00800   0.00000  -0.00632  -0.00633   1.61248
   A18        1.96156  -0.01137   0.00000  -0.01025  -0.01035   1.95121
   A19        2.23759   0.00886   0.00000   0.01204   0.01192   2.24951
   A20        1.96577   0.00695   0.00000   0.00669   0.00675   1.97252
   A21        1.96682   0.00804   0.00000   0.00724   0.00726   1.97408
   A22        1.96642  -0.01410   0.00000  -0.01294  -0.01301   1.95340
   A23        2.23748   0.01024   0.00000   0.01362   0.01352   2.25100
   A24        1.96383   0.00245   0.00000   0.00054   0.00061   1.96444
   A25        2.16135  -0.00565   0.00000  -0.00550  -0.00557   2.15578
   A26        2.14599   0.00396   0.00000   0.00660   0.00654   2.15253
   A27        1.59311  -0.00001   0.00000   0.00130   0.00127   1.59438
   A28        1.95983   0.00125   0.00000   0.00071   0.00069   1.96052
   A29        2.13524  -0.00393   0.00000  -0.00407  -0.00412   2.13113
   A30        2.17074   0.00401   0.00000   0.00610   0.00606   2.17680
   A31        1.93929   0.00592   0.00000   0.00425   0.00432   1.94361
   A32        2.16598  -0.00000   0.00000   0.00253   0.00244   2.16842
   A33        2.14169  -0.00373   0.00000  -0.00234  -0.00244   2.13924
   A34        2.33954  -0.06956   0.00000  -0.08813  -0.08813   2.25140
    D1        0.00683  -0.00153   0.00000  -0.00351  -0.00354   0.00329
    D2        3.05589  -0.00106   0.00000  -0.00078  -0.00069   3.05521
    D3       -2.93068  -0.00188   0.00000  -0.00714  -0.00729  -2.93796
    D4        0.11838  -0.00141   0.00000  -0.00440  -0.00443   0.11396
    D5       -0.00671   0.00195   0.00000   0.00388   0.00387  -0.00284
    D6       -3.13020  -0.00015   0.00000   0.00014   0.00016  -3.13004
    D7        2.92697   0.00616   0.00000   0.01151   0.01144   2.93842
    D8       -0.19651   0.00406   0.00000   0.00778   0.00773  -0.18878
    D9       -0.13323   0.00201   0.00000   0.00218   0.00215  -0.13108
   D10       -3.04818  -0.00445   0.00000  -0.00773  -0.00770  -3.05588
   D11       -0.00388   0.00064   0.00000   0.00177   0.00172  -0.00216
   D12        3.11762   0.00198   0.00000   0.00198   0.00194   3.11956
   D13       -3.02603  -0.00356   0.00000  -0.00629  -0.00627  -3.03230
   D14        0.09547  -0.00223   0.00000  -0.00608  -0.00605   0.08942
   D15        0.00006   0.00046   0.00000   0.00042   0.00044   0.00050
   D16       -3.12486  -0.00032   0.00000   0.00057   0.00058  -3.12428
   D17       -2.09447  -0.00292   0.00000   0.00000  -0.00000  -2.09447
   D18        1.00332  -0.00021   0.00000   0.00288   0.00289   1.00621
   D19        1.02562  -0.00164   0.00000   0.00009   0.00009   1.02571
   D20       -2.15977   0.00107   0.00000   0.00297   0.00298  -2.15679
   D21        0.00376  -0.00138   0.00000  -0.00245  -0.00245   0.00131
   D22        3.12751   0.00079   0.00000   0.00136   0.00132   3.12883
   D23        3.13780   0.00126   0.00000   0.00147   0.00147   3.13927
   D24        0.03266  -0.00073   0.00000  -0.00067  -0.00069   0.03197
   D25       -3.13808  -0.00197   0.00000  -0.00245  -0.00243  -3.14051
   D26       -0.15847   0.00357   0.00000   0.00918   0.00917  -0.14930
   D27       -0.03592   0.00025   0.00000  -0.00007  -0.00003  -0.03595
   D28        2.94369   0.00579   0.00000   0.01156   0.01157   2.95526
   D29       -0.02172   0.00152   0.00000   0.00170   0.00169  -0.02002
   D30       -2.61579  -0.00902   0.00000  -0.01726  -0.01727  -2.63305
   D31        0.00447  -0.00115   0.00000  -0.00164  -0.00162   0.00285
   D32       -2.68836  -0.01184   0.00000  -0.02018  -0.02001  -2.70837
   D33        2.68690   0.00941   0.00000   0.01704   0.01693   2.70384
   D34       -0.00593  -0.00129   0.00000  -0.00150  -0.00145  -0.00738
   D35        2.61415   0.00687   0.00000   0.01557   0.01568   2.62984
   D36       -0.24726  -0.00088   0.00000  -0.00083  -0.00077  -0.24803
   D37        0.02115   0.00094   0.00000   0.00084   0.00082   0.02197
   D38       -2.84026  -0.00681   0.00000  -0.01555  -0.01564  -2.85590
   D39        0.02092   0.00063   0.00000   0.00110   0.00108   0.02200
   D40       -2.96034  -0.00383   0.00000  -0.00912  -0.00920  -2.96954
   D41        2.62801   0.00552   0.00000   0.01434   0.01448   2.64249
   D42       -0.35325   0.00106   0.00000   0.00412   0.00420  -0.34905
   D43       -0.00836   0.00137   0.00000   0.00162   0.00160  -0.00677
   D44       -2.61555  -0.00899   0.00000  -0.01661  -0.01660  -2.63215
   D45        0.02051  -0.00069   0.00000  -0.00103  -0.00104   0.01947
   D46        2.97084   0.00703   0.00000   0.01462   0.01457   2.98541
   D47       -0.02735   0.00017   0.00000   0.00045   0.00047  -0.02688
   D48        2.83863   0.00846   0.00000   0.01747   0.01750   2.85613
   D49       -2.97311  -0.00670   0.00000  -0.01425  -0.01428  -2.98739
   D50       -0.10712   0.00159   0.00000   0.00277   0.00274  -0.10438
         Item               Value     Threshold  Converged?
 Maximum Force            0.140734     0.000450     NO 
 RMS     Force            0.028860     0.000300     NO 
 Maximum Displacement     0.379783     0.001800     NO 
 RMS     Displacement     0.058063     0.001200     NO 
 Predicted change in Energy=-7.769349D-02
 GradGradGradGradGradGradGradGradGradGradGradGradGradGradGradGradGradGrad

                          Input orientation:                          
 ---------------------------------------------------------------------
 Center     Atomic      Atomic             Coordinates (Angstroms)
 Number     Number       Type             X           Y           Z
 ---------------------------------------------------------------------
      1          6           0       -4.224633   -1.362655   -0.217847
      2          6           0       -2.912195   -0.961117   -0.621478
      3          6           0       -1.985947   -2.038323   -0.624399
      4          6           0       -4.336308   -2.723444    0.095813
      5         16           0       -2.818988   -3.528086   -0.108489
      6          1           0       -5.239725   -3.222133    0.409798
      7          6           0       -0.576765   -2.111487   -0.978258
      8         16           0        0.008785   -3.174092   -2.281390
      9          6           0        1.647713   -2.677907   -2.047961
     10          6           0        1.762391   -1.705126   -1.022498
     11          6           0        0.508591   -1.369095   -0.425705
     12          1           0        0.379460   -0.544501    0.257484
     13         16           0        3.173092   -0.720703   -1.220131
     14          6           0        3.635845   -1.601615   -2.667902
     15          6           0        2.707949   -2.612106   -3.000420
     16          1           0        4.442665   -1.273688   -3.305694
     17          1           0        2.679441   -3.079143   -3.977649
     18          1           0       -2.834705    0.178504   -0.979160
     19          8           0       -5.512638   -0.406763   -0.390682
     20          1           0       -5.559028    0.728481   -0.728433
 ---------------------------------------------------------------------
                    Distance matrix (angstroms):
                    1          2          3          4          5
     1  C    0.000000
     2  C    1.430610   0.000000
     3  C    2.373506   1.420675   0.000000
     4  C    1.400929   2.376637   2.551920   0.000000
     5  S    2.583968   2.619384   1.783119   1.729580   0.000000
     6  H    2.209527   3.404867   3.613591   1.078628   2.494433
     7  C    3.800779   2.627713   1.454773   3.957561   2.791203
     8  S    5.045923   4.023019   2.830997   4.973330   3.583729
     9  C    6.289964   5.076907   3.954628   6.356599   4.943256
    10  C    6.050554   4.750380   3.784116   6.283448   5.014741
    11  C    4.737790   3.450587   2.590379   5.057597   3.979278
    12  H    4.700318   3.432366   2.933321   5.197345   4.389281
    13  S    7.492864   6.119388   5.357864   7.882498   6.709857
    14  C    8.236928   6.890204   5.997596   8.511865   7.206022
    15  C    7.573938   6.322274   5.292198   7.695494   6.304707
    16  H    9.201345   7.835603   7.007214   9.525881   8.248396
    17  H    8.046656   6.856844   5.838958   8.120366   6.738299
    18  H    2.210580   1.196945   2.400119   3.439721   3.807509
    19  O    1.613244   2.668872   3.892834   2.643376   4.132558
    20  H    2.532619   3.141959   4.520281   3.753694   5.100050
                    6          7          8          9         10
     6  H    0.000000
     7  C    4.990334   0.000000
     8  S    5.898445   1.780491   0.000000
     9  C    7.333046   2.532469   1.728228   0.000000
    10  C    7.306326   2.374602   2.611092   1.418108   0.000000
    11  C    6.097126   1.426344   2.636547   2.375353   1.428668
    12  H    6.226407   2.212887   3.673966   3.387472   2.213121
    13  S    8.926887   4.006771   4.142249   2.615862   1.731539
    14  C    9.532788   4.567378   3.972107   2.344227   2.495576
    15  C    8.669905   3.889615   2.849267   1.426748   2.372524
    16  H   10.552250   5.595850   4.931534   3.371273   3.547251
    17  H    9.054464   4.531619   3.165235   2.224668   3.385531
    18  H    4.390633   3.215954   4.584881   5.421577   4.968222
    19  O    2.939653   5.254919   6.459024   7.692548   7.416938
    20  H    4.123698   5.740277   6.974402   8.079712   7.720886
                   11         12         13         14         15
    11  C    0.000000
    12  H    1.078601   0.000000
    13  S    2.855012   3.165245   0.000000
    14  C    3.855026   4.503268   1.756754   0.000000
    15  C    3.607133   4.506750   2.638786   1.411613   0.000000
    16  H    4.876512   5.453218   2.503433   1.079478   2.212192
    17  H    4.500350   5.445243   3.661944   2.193909   1.083472
    18  H    3.725454   3.518932   6.079496   6.920165   6.526409
    19  O    6.097746   5.929241   8.730890   9.503059   8.902377
    20  H    6.427089   6.152898   8.865203   9.681765   9.201324
                   16         17         18         19         20
    16  H    0.000000
    17  H    2.611542   0.000000
    18  H    7.777000   7.071704   0.000000
    19  O   10.409461   9.333707   2.803599   0.000000
    20  H   10.520684   9.639905   2.790568   1.185330   0.000000
 Stoichiometry    C10H6OS3
 Framework group  C1[X(C10H6OS3)]
 Deg. of freedom    54
 Full point group                 C1      NOp   1
 Largest Abelian subgroup         C1      NOp   1
 Largest concise Abelian subgroup C1      NOp   1
                         Standard orientation:                         
 ---------------------------------------------------------------------
 Center     Atomic      Atomic             Coordinates (Angstroms)
 Number     Number       Type             X           Y           Z
 ---------------------------------------------------------------------
      1          6           0        3.768391    0.712083    0.209066
      2          6           0        2.386571    1.045698    0.370061
      3          6           0        1.517715    0.041095   -0.134100
      4          6           0        3.990757   -0.524254   -0.411116
      5         16           0        2.492266   -1.295163   -0.800567
      6          1           0        4.956871   -0.959065   -0.613605
      7          6           0        0.067319   -0.066791   -0.166889
      8         16           0       -0.791439   -1.407286    0.630453
      9          6           0       -2.335581   -0.804688    0.141296
     10          6           0       -2.221107    0.404216   -0.591148
     11          6           0       -0.868706    0.834724   -0.754754
     12          1           0       -0.598100    1.802534   -1.146538
     13         16           0       -3.663372    1.357527   -0.494729
     14          6           0       -4.443650    0.150171    0.515044
     15          6           0       -3.598804   -0.947003    0.789079
     16          1           0       -5.391116    0.332567    0.999102
     17          1           0       -3.798685   -1.651998    1.587165
     18          1           0        2.192529    2.055865    0.982099
     19          8           0        4.947864    1.540111    0.934165
     20          1           0        4.878872    2.546436    1.556709
 ---------------------------------------------------------------------
 Rotational constants (GHZ):           1.3533214           0.2285681           0.2102218
 Standard basis: Aug-CC-pVDZ (5D, 7F)
 There are   416 symmetry adapted cartesian basis functions of A   symmetry.
 There are   388 symmetry adapted basis functions of A   symmetry.
   388 basis functions,   782 primitive gaussians,   416 cartesian basis functions
    61 alpha electrons       61 beta electrons
       nuclear repulsion energy      1088.0261103450 Hartrees.
 NAtoms=   20 NActive=   20 NUniq=   20 SFac= 1.00D+00 NAtFMM=   60 NAOKFM=F Big=F
 Integral buffers will be    131072 words long.
 Raffenetti 1 integral format.
 Two-electron integral symmetry is turned on.
 One-electron integrals computed using PRISM.
 NBasis=   388 RedAO= T EigKep=  6.16D-06  NBF=   388
 NBsUse=   388 1.00D-06 EigRej= -1.00D+00 NBFU=   388
 Initial guess from the checkpoint file:  "/tmp/pbs.4766241[55].pbs/Gau-3558680.chk"
 B after Tr=     0.000000    0.000000    0.000000
         Rot=    0.999971   -0.007248    0.001543   -0.001702 Ang=  -0.87 deg.
 ExpMin= 2.97D-02 ExpMax= 1.11D+05 ExpMxC= 1.07D+03 IAcc=3 IRadAn=         5 AccDes= 0.00D+00
 Harris functional with IExCor=  205 and IRadAn=       5 diagonalized for initial guess.
 HarFok:  IExCor=  205 AccDes= 0.00D+00 IRadAn=         5 IDoV= 1 UseB2=F ITyADJ=14
 ICtDFT=  3500011 ScaDFX=  1.000000  1.000000  1.000000  1.000000
 FoFCou: FMM=F IPFlag=           0 FMFlag=      100000 FMFlg1=           0
         NFxFlg=           0 DoJE=T BraDBF=F KetDBF=T FulRan=T
         wScrn=  0.000000 ICntrl=       500 IOpCl=  0 I1Cent=   200000004 NGrid=           0
         NMat0=    1 NMatS0=      1 NMatT0=    0 NMatD0=    1 NMtDS0=    0 NMtDT0=    0
 Petite list used in FoFCou.
 Requested convergence on RMS density matrix=1.00D-08 within 128 cycles.
 Requested convergence on MAX density matrix=1.00D-06.
 Requested convergence on             energy=1.00D-06.
 No special actions if energy rises.
 SCF Done:  E(RHF) =  -1649.50216394     A.U. after   15 cycles
            NFock= 15  Conv=0.46D-08     -V/T= 2.0012
 Calling FoFJK, ICntrl=      2127 FMM=F ISym2X=0 I1Cent= 0 IOpClX= 0 NMat=1 NMatS=1 NMatT=0.
 ***** Axes restored to original set *****
 -------------------------------------------------------------------
 Center     Atomic                   Forces (Hartrees/Bohr)
 Number     Number              X              Y              Z
 -------------------------------------------------------------------
      1        6          -0.051358023    0.017158864   -0.018316784
      2        6           0.016624612    0.022445293   -0.018187633
      3        6          -0.054106265    0.024412995    0.007892366
      4        6          -0.009576338    0.057019167   -0.009044310
      5       16           0.001792761    0.025221935   -0.001503156
      6        1           0.003409377   -0.002545620   -0.002301142
      7        6           0.063647604    0.032463812    0.012847983
      8       16          -0.007395635   -0.000472418    0.017212159
      9        6           0.003418718    0.038950525    0.018811231
     10        6          -0.020308062   -0.018249404   -0.033971235
     11        6          -0.044023447   -0.030088302   -0.025136724
     12        1          -0.002660455   -0.005297140    0.005284475
     13       16           0.010965073   -0.011820450   -0.006814631
     14        6          -0.043916714   -0.035530674   -0.011818427
     15        6           0.034071593    0.045133237    0.007647253
     16        1           0.003338011   -0.001870058    0.006865139
     17        1           0.005988146   -0.005282650    0.006941036
     18        1           0.013123819   -0.064104255    0.017822135
     19        8           0.044543361    0.040068636   -0.011222239
     20        1           0.032421864   -0.127613492    0.036992503
 -------------------------------------------------------------------
 Cartesian Forces:  Max     0.127613492 RMS     0.031380065

 GradGradGradGradGradGradGradGradGradGradGradGradGradGradGradGradGradGrad
 Berny optimization.
 Using GEDIIS/GDIIS optimizer.
 FormGI is forming the generalized inverse of G from B-inverse, IUseBI=4.
 Internal  Forces:  Max     0.134030848 RMS     0.023871124
 Search for a local minimum.
 Step number   2 out of a maximum of  116
 All quantities printed in internal units (Hartrees-Bohrs-Radians)
 Mixed Optimization -- RFO/linear search
 Update second derivatives using D2CorX and points    1    2
 DE= -8.19D-02 DEPred=-7.77D-02 R= 1.05D+00
 TightC=F SS=  1.41D+00  RLast= 3.06D-01 DXNew= 5.0454D-01 9.1714D-01
 Trust test= 1.05D+00 RLast= 3.06D-01 DXMaxT set to 5.05D-01
 ITU=  1  0
 Use linear search instead of GDIIS.
 Linear search step of   0.600 exceeds DXMaxT=   0.505 but not scaled.
 Quartic linear search produced a step of  2.00000.
 Iteration  1 RMS(Cart)=  0.10153336 RMS(Int)=  0.01774218
 Iteration  2 RMS(Cart)=  0.01985314 RMS(Int)=  0.00036403
 Iteration  3 RMS(Cart)=  0.00016612 RMS(Int)=  0.00034785
 Iteration  4 RMS(Cart)=  0.00000008 RMS(Int)=  0.00034785
 Iteration  1 RMS(Cart)=  0.00000995 RMS(Int)=  0.00000409
 Iteration  2 RMS(Cart)=  0.00000542 RMS(Int)=  0.00000456
 Iteration  3 RMS(Cart)=  0.00000295 RMS(Int)=  0.00000516
 Iteration  4 RMS(Cart)=  0.00000161 RMS(Int)=  0.00000554
 Iteration  5 RMS(Cart)=  0.00000088 RMS(Int)=  0.00000577
 Variable       Old X    -DE/DX   Delta X   Delta X   Delta X     New X
                                 (Linear)    (Quad)   (Total)
    R1        2.70346  -0.00878  -0.03142   0.00000  -0.03092   2.67254
    R2        2.64737  -0.06078  -0.13308   0.00000  -0.13289   2.51449
    R3        3.04859  -0.11608  -0.29289   0.00000  -0.29289   2.75570
    R4        2.68469  -0.06530  -0.14876   0.00000  -0.14853   2.53615
    R5        2.26190  -0.06551  -0.17748   0.00000  -0.17748   2.08442
    R6        3.36961  -0.02062  -0.05235   0.00000  -0.05270   3.31691
    R7        2.74912   0.00315  -0.00083   0.00000  -0.00083   2.74829
    R8        3.26843  -0.01033  -0.03656   0.00000  -0.03693   3.23150
    R9        2.03831  -0.00235  -0.00484   0.00000  -0.00484   2.03348
   R10        3.36464  -0.01475  -0.03871   0.00000  -0.03894   3.32570
   R11        2.69540  -0.06473  -0.14324   0.00000  -0.14324   2.55216
   R12        3.26588  -0.00101  -0.00807   0.00000  -0.00815   3.25772
   R13        2.67984  -0.03909  -0.08397   0.00000  -0.08353   2.59631
   R14        2.69616   0.00388   0.00144   0.00000   0.00175   2.69791
   R15        2.69979  -0.00237  -0.01458   0.00000  -0.01436   2.68543
   R16        3.27213   0.00026  -0.00374   0.00000  -0.00386   3.26828
   R17        2.03826  -0.00038  -0.00110   0.00000  -0.00110   2.03716
   R18        3.31978  -0.01234  -0.03349   0.00000  -0.03382   3.28597
   R19        2.66756  -0.05701  -0.12416   0.00000  -0.12418   2.54338
   R20        2.03992  -0.00213  -0.00520   0.00000  -0.00520   2.03472
   R21        2.04747  -0.00414  -0.01044   0.00000  -0.01044   2.03703
   R22        2.23995  -0.13403  -0.31896   0.00000  -0.31896   1.92099
    A1        1.99208   0.01322   0.04376   0.00000   0.04441   2.03649
    A2        2.13638   0.00464   0.00757   0.00000   0.00730   2.14368
    A3        2.13636  -0.01719  -0.04885   0.00000  -0.04932   2.08704
    A4        1.96696  -0.00191  -0.00982   0.00000  -0.00910   1.95786
    A5        1.99428   0.02044   0.06188   0.00000   0.06152   2.05580
    A6        2.31733  -0.01834  -0.05110   0.00000  -0.05150   2.26583
    A7        1.90530   0.00273   0.00182   0.00000   0.00178   1.90708
    A8        2.30525  -0.01202  -0.02733   0.00000  -0.02731   2.27793
    A9        2.07248   0.00931   0.02552   0.00000   0.02554   2.09801
   A10        1.93426  -0.01014  -0.03826   0.00000  -0.03838   1.89588
   A11        2.19079   0.00889   0.02998   0.00000   0.03002   2.22081
   A12        2.15804   0.00127   0.00839   0.00000   0.00843   2.16647
   A13        1.62616  -0.00390   0.00253   0.00000   0.00129   1.62745
   A14        2.12540  -0.00342  -0.00741   0.00000  -0.00747   2.11792
   A15        2.23532  -0.00429  -0.01010   0.00000  -0.01017   2.22515
   A16        1.92187   0.00778   0.01766   0.00000   0.01779   1.93966
   A17        1.61248  -0.00661  -0.01266   0.00000  -0.01273   1.59975
   A18        1.95121  -0.00759  -0.02071   0.00000  -0.02131   1.92990
   A19        2.24951   0.00712   0.02384   0.00000   0.02310   2.27260
   A20        1.97252   0.00447   0.01350   0.00000   0.01385   1.98637
   A21        1.97408   0.00481   0.01453   0.00000   0.01464   1.98872
   A22        1.95340  -0.00908  -0.02603   0.00000  -0.02644   1.92696
   A23        2.25100   0.00810   0.02703   0.00000   0.02642   2.27741
   A24        1.96444   0.00165   0.00122   0.00000   0.00165   1.96609
   A25        2.15578  -0.00385  -0.01113   0.00000  -0.01151   2.14427
   A26        2.15253   0.00287   0.01307   0.00000   0.01270   2.16523
   A27        1.59438  -0.00129   0.00254   0.00000   0.00231   1.59670
   A28        1.96052   0.00209   0.00137   0.00000   0.00125   1.96177
   A29        2.13113  -0.00431  -0.00824   0.00000  -0.00853   2.12259
   A30        2.17680   0.00340   0.01212   0.00000   0.01189   2.18869
   A31        1.94361   0.00383   0.00864   0.00000   0.00904   1.95265
   A32        2.16842  -0.00020   0.00487   0.00000   0.00428   2.17270
   A33        2.13924  -0.00173  -0.00489   0.00000  -0.00551   2.13374
   A34        2.25140  -0.06088  -0.17627   0.00000  -0.17627   2.07514
    D1        0.00329  -0.00117  -0.00709   0.00000  -0.00727  -0.00398
    D2        3.05521  -0.00038  -0.00138   0.00000  -0.00084   3.05437
    D3       -2.93796  -0.00280  -0.01457   0.00000  -0.01543  -2.95339
    D4        0.11396  -0.00200  -0.00886   0.00000  -0.00899   0.10496
    D5       -0.00284   0.00154   0.00775   0.00000   0.00775   0.00491
    D6       -3.13004  -0.00025   0.00032   0.00000   0.00042  -3.12961
    D7        2.93842   0.00597   0.02289   0.00000   0.02246   2.96088
    D8       -0.18878   0.00419   0.01546   0.00000   0.01514  -0.17364
    D9       -0.13108   0.00153   0.00429   0.00000   0.00408  -0.12700
   D10       -3.05588  -0.00394  -0.01540   0.00000  -0.01519  -3.07107
   D11       -0.00216   0.00033   0.00344   0.00000   0.00314   0.00098
   D12        3.11956   0.00175   0.00388   0.00000   0.00362   3.12318
   D13       -3.03230  -0.00359  -0.01254   0.00000  -0.01240  -3.04470
   D14        0.08942  -0.00218  -0.01209   0.00000  -0.01191   0.07751
   D15        0.00050   0.00048   0.00088   0.00000   0.00096   0.00145
   D16       -3.12428  -0.00046   0.00116   0.00000   0.00119  -3.12309
   D17       -2.09447  -0.00287  -0.00001   0.00000  -0.00000  -2.09447
   D18        1.00621  -0.00020   0.00577   0.00000   0.00579   1.01199
   D19        1.02571  -0.00143   0.00019   0.00000   0.00023   1.02594
   D20       -2.15679   0.00123   0.00596   0.00000   0.00602  -2.15077
   D21        0.00131  -0.00113  -0.00490   0.00000  -0.00486  -0.00355
   D22        3.12883   0.00069   0.00264   0.00000   0.00241   3.13124
   D23        3.13927   0.00104   0.00294   0.00000   0.00294  -3.14097
   D24        0.03197  -0.00098  -0.00138   0.00000  -0.00148   0.03049
   D25       -3.14051  -0.00152  -0.00486   0.00000  -0.00474   3.13794
   D26       -0.14930   0.00362   0.01834   0.00000   0.01829  -0.13100
   D27       -0.03595   0.00071  -0.00007   0.00000   0.00013  -0.03581
   D28        2.95526   0.00585   0.02314   0.00000   0.02317   2.97843
   D29       -0.02002   0.00138   0.00339   0.00000   0.00335  -0.01667
   D30       -2.63305  -0.00807  -0.03453   0.00000  -0.03453  -2.66758
   D31        0.00285  -0.00084  -0.00325   0.00000  -0.00312  -0.00028
   D32       -2.70837  -0.01037  -0.04002   0.00000  -0.03900  -2.74737
   D33        2.70384   0.00860   0.03386   0.00000   0.03321   2.73705
   D34       -0.00738  -0.00093  -0.00291   0.00000  -0.00266  -0.01005
   D35        2.62984   0.00708   0.03136   0.00000   0.03202   2.66186
   D36       -0.24803  -0.00041  -0.00155   0.00000  -0.00122  -0.24925
   D37        0.02197   0.00044   0.00164   0.00000   0.00148   0.02344
   D38       -2.85590  -0.00705  -0.03127   0.00000  -0.03176  -2.88766
   D39        0.02200   0.00010   0.00216   0.00000   0.00204   0.02403
   D40       -2.96954  -0.00435  -0.01841   0.00000  -0.01889  -2.98843
   D41        2.64249   0.00617   0.02896   0.00000   0.02974   2.67222
   D42       -0.34905   0.00171   0.00839   0.00000   0.00881  -0.34024
   D43       -0.00677   0.00119   0.00319   0.00000   0.00304  -0.00373
   D44       -2.63215  -0.00804  -0.03319   0.00000  -0.03309  -2.66524
   D45        0.01947  -0.00084  -0.00207   0.00000  -0.00209   0.01738
   D46        2.98541   0.00652   0.02914   0.00000   0.02883   3.01424
   D47       -0.02688   0.00051   0.00094   0.00000   0.00109  -0.02579
   D48        2.85613   0.00810   0.03499   0.00000   0.03513   2.89126
   D49       -2.98739  -0.00615  -0.02856   0.00000  -0.02873  -3.01612
   D50       -0.10438   0.00144   0.00549   0.00000   0.00531  -0.09907
         Item               Value     Threshold  Converged?
 Maximum Force            0.134031     0.000450     NO 
 RMS     Force            0.023981     0.000300     NO 
 Maximum Displacement     0.688211     0.001800     NO 
 RMS     Displacement     0.113063     0.001200     NO 
 Predicted change in Energy=-1.209637D-01
 GradGradGradGradGradGradGradGradGradGradGradGradGradGradGradGradGradGrad

                          Input orientation:                          
 ---------------------------------------------------------------------
 Center     Atomic      Atomic             Coordinates (Angstroms)
 Number     Number       Type             X           Y           Z
 ---------------------------------------------------------------------
      1          6           0       -4.172205   -1.363706   -0.233984
      2          6           0       -2.873879   -0.981197   -0.644023
      3          6           0       -2.015007   -2.012408   -0.633785
      4          6           0       -4.345136   -2.643870    0.085063
      5         16           0       -2.855120   -3.460691   -0.106976
      6          1           0       -5.256365   -3.117642    0.406201
      7          6           0       -0.607680   -2.073513   -0.995431
      8         16           0       -0.038224   -3.129735   -2.282795
      9          6           0        1.590931   -2.615256   -2.052484
     10          6           0        1.663151   -1.672097   -1.056064
     11          6           0        0.408049   -1.355228   -0.469765
     12          1           0        0.253670   -0.546299    0.225880
     13         16           0        3.093097   -0.715591   -1.233578
     14          6           0        3.570781   -1.610398   -2.645940
     15          6           0        2.680670   -2.565314   -2.973473
     16          1           0        4.413105   -1.310612   -3.245907
     17          1           0        2.693227   -3.059222   -3.931529
     18          1           0       -2.729261    0.055117   -0.993027
     19          8           0       -5.333962   -0.493602   -0.374489
     20          1           0       -5.194842    0.466264   -0.678894
 ---------------------------------------------------------------------
                    Distance matrix (angstroms):
                    1          2          3          4          5
     1  C    0.000000
     2  C    1.414247   0.000000
     3  C    2.287828   1.342074   0.000000
     4  C    1.330608   2.336803   2.518926   0.000000
     5  S    2.479554   2.537058   1.755233   1.710035   0.000000
     6  H    2.159058   3.368027   3.579038   1.076070   2.479316
     7  C    3.713417   2.540137   1.454335   3.932093   2.786504
     8  S    4.940272   3.916980   2.806301   4.938857   3.574721
     9  C    6.171471   4.958673   3.921597   6.309265   4.926169
    10  C    5.901043   4.607794   3.717927   6.192418   4.951224
    11  C    4.586327   3.307766   2.515947   4.955927   3.900368
    12  H    4.524157   3.275275   2.834677   5.056546   4.274231
    13  S    7.362326   6.001909   5.304169   7.796434   6.647262
    14  C    8.113705   6.777699   5.950748   8.437309   7.152771
    15  C    7.477336   6.228064   5.275341   7.663078   6.297895
    16  H    9.098464   7.744575   6.973974   9.464657   8.203830
    17  H    7.980023   6.791064   5.842807   8.114437   6.750744
    18  H    2.161317   1.103025   2.216725   3.325337   3.627924
    19  O    1.458253   2.522381   3.659162   2.410937   3.875543
    20  H    2.143016   2.735549   4.032022   3.313392   4.606773
                    6          7          8          9         10
     6  H    0.000000
     7  C    4.966391   0.000000
     8  S    5.870250   1.759884   0.000000
     9  C    7.292666   2.498947   1.723913   0.000000
    10  C    7.218554   2.306835   2.554262   1.373905   0.000000
    11  C    5.996583   1.350543   2.575872   2.343476   1.421068
    12  H    6.083157   2.136799   3.612865   3.355561   2.213016
    13  S    8.841506   3.949230   4.090735   2.556528   1.729497
    14  C    9.460753   4.516436   3.932578   2.298202   2.484061
    15  C    8.644292   3.868820   2.861466   1.427671   2.347262
    16  H   10.492945   5.554723   4.904194   3.330318   3.533883
    17  H    9.056231   4.526398   3.191256   2.223279   3.354618
    18  H    4.290745   3.005358   4.364455   5.188198   4.720225
    19  O    2.738810   5.021895   6.215760   7.434462   7.128323
    20  H    3.745076   5.252877   6.488021   7.578208   7.193533
                   11         12         13         14         15
    11  C    0.000000
    12  H    1.078017   0.000000
    13  S    2.863918   3.197033   0.000000
    14  C    3.847560   4.514740   1.738858   0.000000
    15  C    3.591333   4.494731   2.572704   1.345897   0.000000
    16  H    4.873338   5.471597   2.479100   1.076727   2.156346
    17  H    4.484355   5.436016   3.596031   2.126483   1.077948
    18  H    3.479309   3.278004   5.878069   6.722840   6.328995
    19  O    5.807080   5.620040   8.473643   9.257493   8.676465
    20  H    5.895249   5.615174   8.390136   9.220517   8.745241
                   16         17         18         19         20
    16  H    0.000000
    17  H    2.546703   0.000000
    18  H    7.612757   6.909216   0.000000
    19  O   10.194011   9.147169   2.732792   0.000000
    20  H   10.102450   9.232027   2.519288   1.016543   0.000000
 Stoichiometry    C10H6OS3
 Framework group  C1[X(C10H6OS3)]
 Deg. of freedom    54
 Full point group                 C1      NOp   1
 Largest Abelian subgroup         C1      NOp   1
 Largest concise Abelian subgroup C1      NOp   1
                         Standard orientation:                         
 ---------------------------------------------------------------------
 Center     Atomic      Atomic             Coordinates (Angstroms)
 Number     Number       Type             X           Y           Z
 ---------------------------------------------------------------------
      1          6           0        3.687611    0.704091    0.245362
      2          6           0        2.315506    1.004900    0.409493
      3          6           0        1.522881    0.056745   -0.113870
      4          6           0        3.979235   -0.435407   -0.376746
      5         16           0        2.517879   -1.210975   -0.809361
[...]
 Number     Number       Type             X           Y           Z
 ---------------------------------------------------------------------
      1          6           0        3.765275    0.665445    0.292187
      2          6           0        2.370483    0.920381    0.526400
      3          6           0        1.566059    0.009260   -0.068059
      4          6           0        3.986124   -0.434120   -0.455326
      5         16           0        2.494102   -1.190098   -0.913458
      6          1           0        4.934893   -0.837430   -0.761251
      7          6           0        0.096412   -0.028643   -0.027336
      8         16           0       -0.750306   -1.416164    0.641510
      9          6           0       -2.281610   -0.650083    0.351875
     10          6           0       -2.118004    0.583347   -0.207682
     11          6           0       -0.749769    0.945749   -0.431393
     12          1           0       -0.417154    1.866525   -0.881659
     13         16           0       -3.650628    1.347235   -0.500129
     14          6           0       -4.484641   -0.038272    0.153306
     15          6           0       -3.652579   -1.017793    0.563969
     16          1           0       -5.560729   -0.040426    0.192629
     17          1           0       -3.985080   -1.948712    0.993246
     18          1           0        1.997834    1.737707    1.125773
     19          8           0        4.766032    1.436113    0.775572
     20          1           0        4.424775    2.146255    1.292268
 ---------------------------------------------------------------------
 Rotational constants (GHZ):           1.4686723           0.2337177           0.2150166

 **********************************************************************

            Population analysis using the SCF Density.

 **********************************************************************

 Orbital symmetries:
       Occupied  (A) (A) (A) (A) (A) (A) (A) (A) (A) (A) (A) (A)
                 (A) (A) (A) (A) (A) (A) (A) (A) (A) (A) (A) (A)
                 (A) (A) (A) (A) (A) (A) (A) (A) (A) (A) (A) (A)
                 (A) (A) (A) (A) (A) (A) (A) (A) (A) (A) (A) (A)
                 (A) (A) (A) (A) (A) (A) (A) (A) (A) (A) (A) (A)
                 (A)
       Virtual   (A) (A) (A) (A) (A) (A) (A) (A) (A) (A) (A) (A)
                 (A) (A) (A) (A) (A) (A) (A) (A) (A) (A) (A) (A)
                 (A) (A) (A) (A) (A) (A) (A) (A) (A) (A) (A) (A)
                 (A) (A) (A) (A) (A) (A) (A) (A) (A) (A) (A) (A)
                 (A) (A) (A) (A) (A) (A) (A) (A) (A) (A) (A) (A)
                 (A) (A) (A) (A) (A) (A) (A) (A) (A) (A) (A) (A)
                 (A) (A) (A) (A) (A) (A) (A) (A) (A) (A) (A) (A)
                 (A) (A) (A) (A) (A) (A) (A) (A) (A) (A) (A) (A)
                 (A) (A) (A) (A) (A) (A) (A) (A) (A) (A) (A) (A)
                 (A) (A) (A) (A) (A) (A) (A) (A) (A) (A) (A) (A)
                 (A) (A) (A) (A) (A) (A) (A) (A) (A) (A) (A) (A)
                 (A) (A) (A) (A) (A) (A) (A) (A) (A) (A) (A) (A)
                 (A) (A) (A) (A) (A) (A) (A) (A) (A) (A) (A) (A)
                 (A) (A) (A) (A) (A) (A) (A) (A) (A) (A) (A) (A)
                 (A) (A) (A) (A) (A) (A) (A) (A) (A) (A) (A) (A)
                 (A) (A) (A) (A) (A) (A) (A) (A) (A) (A) (A) (A)
                 (A) (A) (A) (A) (A) (A) (A) (A) (A) (A) (A) (A)
                 (A) (A) (A) (A) (A) (A) (A) (A) (A) (A) (A) (A)
                 (A) (A) (A) (A) (A) (A) (A) (A) (A) (A) (A) (A)
                 (A) (A) (A) (A) (A) (A) (A) (A) (A) (A) (A) (A)
                 (A) (A) (A) (A) (A) (A) (A) (A) (A) (A) (A) (A)
                 (A) (A) (A) (A) (A) (A) (A) (A) (A) (A) (A) (A)
                 (A) (A) (A) (A) (A) (A) (A) (A) (A) (A) (A) (A)
                 (A) (A) (A) (A) (A) (A) (A) (A) (A) (A) (A) (A)
                 (A) (A) (A) (A) (A) (A) (A) (A) (A) (A) (A) (A)
                 (A) (A) (A) (A) (A) (A) (A) (A) (A) (A) (A) (A)
                 (A) (A) (A) (A) (A) (A) (A) (A) (A) (A) (A) (A)
                 (A) (A) (A)
 The electronic state is 1-A.
 Alpha  occ. eigenvalues --  -91.99491 -91.99408 -91.98908 -20.60739 -11.31344
 Alpha  occ. eigenvalues --  -11.29438 -11.29357 -11.28146 -11.27733 -11.27575
 Alpha  occ. eigenvalues --  -11.26357 -11.26136 -11.25638 -11.25505  -8.99651
 Alpha  occ. eigenvalues --   -8.99590  -8.99100  -6.67814  -6.67757  -6.67733
 Alpha  occ. eigenvalues --   -6.67678  -6.67523  -6.67472  -6.67268  -6.67178
 Alpha  occ. eigenvalues --   -6.66978  -1.42600  -1.22223  -1.18638  -1.13224
 Alpha  occ. eigenvalues --   -1.03167  -1.02608  -0.99024  -0.96159  -0.94985
 Alpha  occ. eigenvalues --   -0.84178  -0.78681  -0.77785  -0.74646  -0.72812
 Alpha  occ. eigenvalues --   -0.72266  -0.67614  -0.66184  -0.61181  -0.60634
 Alpha  occ. eigenvalues --   -0.58247  -0.57470  -0.56502  -0.54947  -0.54108
 Alpha  occ. eigenvalues --   -0.52644  -0.51029  -0.49789  -0.48523  -0.46807
 Alpha  occ. eigenvalues --   -0.46628  -0.39283  -0.35399  -0.32926  -0.32633
 Alpha  occ. eigenvalues --   -0.29825
 Alpha virt. eigenvalues --    0.02969   0.03382   0.04535   0.04730   0.04800
 Alpha virt. eigenvalues --    0.05999   0.07545   0.08214   0.08219   0.09077
 Alpha virt. eigenvalues --    0.09441   0.10288   0.10485   0.10816   0.11434
 Alpha virt. eigenvalues --    0.11955   0.12493   0.12675   0.12959   0.13474
 Alpha virt. eigenvalues --    0.13590   0.13736   0.13968   0.14714   0.14966
 Alpha virt. eigenvalues --    0.15387   0.15807   0.16114   0.16399   0.17111
 Alpha virt. eigenvalues --    0.17512   0.18009   0.18234   0.18420   0.18883
 Alpha virt. eigenvalues --    0.19500   0.19942   0.20052   0.20795   0.20922
 Alpha virt. eigenvalues --    0.21845   0.22423   0.22703   0.22929   0.23101
 Alpha virt. eigenvalues --    0.24019   0.24462   0.24602   0.24831   0.25804
 Alpha virt. eigenvalues --    0.26306   0.27278   0.27445   0.27705   0.27844
 Alpha virt. eigenvalues --    0.28375   0.28758   0.30337   0.30794   0.30927
 Alpha virt. eigenvalues --    0.31423   0.31630   0.32024   0.32605   0.32829
 Alpha virt. eigenvalues --    0.33763   0.34040   0.34894   0.35268   0.35428
 Alpha virt. eigenvalues --    0.36513   0.36733   0.37508   0.38565   0.38935
 Alpha virt. eigenvalues --    0.39643   0.40082   0.40873   0.41207   0.41819
 Alpha virt. eigenvalues --    0.42331   0.43370   0.43727   0.44619   0.45033
 Alpha virt. eigenvalues --    0.45441   0.45755   0.45945   0.46879   0.48166
 Alpha virt. eigenvalues --    0.48368   0.49135   0.49362   0.50462   0.51814
 Alpha virt. eigenvalues --    0.52555   0.53335   0.53789   0.54619   0.55580
 Alpha virt. eigenvalues --    0.56564   0.57150   0.58124   0.58881   0.59043
 Alpha virt. eigenvalues --    0.59763   0.60026   0.60969   0.62001   0.62367
 Alpha virt. eigenvalues --    0.62836   0.63835   0.64152   0.65253   0.65476
 Alpha virt. eigenvalues --    0.66329   0.66761   0.67309   0.68041   0.68428
 Alpha virt. eigenvalues --    0.68519   0.69204   0.70261   0.70543   0.70871
 Alpha virt. eigenvalues --    0.71400   0.72001   0.72148   0.73146   0.73304
 Alpha virt. eigenvalues --    0.73860   0.73999   0.75181   0.75604   0.76231
 Alpha virt. eigenvalues --    0.76503   0.77505   0.77876   0.78610   0.79865
 Alpha virt. eigenvalues --    0.80717   0.82281   0.82712   0.83202   0.83959
 Alpha virt. eigenvalues --    0.84280   0.84446   0.85917   0.86735   0.87343
 Alpha virt. eigenvalues --    0.88436   0.89225   0.89876   0.90679   0.91321
 Alpha virt. eigenvalues --    0.92174   0.92857   0.94206   0.94389   0.95065
 Alpha virt. eigenvalues --    0.95297   0.95646   0.96048   0.97121   0.97838
 Alpha virt. eigenvalues --    0.98412   0.99858   1.01774   1.01890   1.02794
 Alpha virt. eigenvalues --    1.03603   1.04362   1.05567   1.05960   1.06903
 Alpha virt. eigenvalues --    1.08282   1.08412   1.09705   1.10937   1.11709
 Alpha virt. eigenvalues --    1.13193   1.14189   1.17142   1.17526   1.18667
 Alpha virt. eigenvalues --    1.19867   1.21086   1.21979   1.22478   1.22745
 Alpha virt. eigenvalues --    1.23356   1.24608   1.25112   1.26051   1.26737
 Alpha virt. eigenvalues --    1.27272   1.27535   1.29251   1.29768   1.31553
 Alpha virt. eigenvalues --    1.32223   1.33743   1.34602   1.35789   1.36446
 Alpha virt. eigenvalues --    1.37276   1.38283   1.39893   1.40830   1.42013
 Alpha virt. eigenvalues --    1.43484   1.44239   1.45035   1.45995   1.49828
 Alpha virt. eigenvalues --    1.49948   1.52699   1.54774   1.56177   1.56617
 Alpha virt. eigenvalues --    1.57414   1.58182   1.59410   1.60290   1.60605
 Alpha virt. eigenvalues --    1.63146   1.63600   1.64554   1.65536   1.66231
 Alpha virt. eigenvalues --    1.67125   1.68330   1.69539   1.70519   1.71231
 Alpha virt. eigenvalues --    1.72876   1.73227   1.75274   1.76113   1.77926
 Alpha virt. eigenvalues --    1.79351   1.80029   1.81361   1.82246   1.83184
 Alpha virt. eigenvalues --    1.84252   1.84636   1.86245   1.88278   1.88735
 Alpha virt. eigenvalues --    1.91507   1.93181   1.95535   1.96089   1.97139
 Alpha virt. eigenvalues --    1.98101   1.99120   2.02554   2.03233   2.04520
 Alpha virt. eigenvalues --    2.04652   2.06346   2.07240   2.08919   2.09559
 Alpha virt. eigenvalues --    2.11228   2.11621   2.14379   2.14769   2.15672
 Alpha virt. eigenvalues --    2.17523   2.19633   2.19910   2.21599   2.23651
 Alpha virt. eigenvalues --    2.24086   2.24336   2.27253   2.28914   2.30405
 Alpha virt. eigenvalues --    2.30838   2.31973   2.32923   2.35218   2.36412
 Alpha virt. eigenvalues --    2.38130   2.39618   2.42140   2.42592   2.46053
 Alpha virt. eigenvalues --    2.47521   2.48853   2.50631   2.52120   2.54800
 Alpha virt. eigenvalues --    2.56762   2.57830   2.60287   2.61719   2.66607
 Alpha virt. eigenvalues --    2.72378   2.80525   2.83376   2.87055   2.89129
 Alpha virt. eigenvalues --    2.89988   2.95637   2.96461   3.00320   3.03605
 Alpha virt. eigenvalues --    3.11080   3.13166   3.23467   3.28842   3.34156
 Alpha virt. eigenvalues --    3.41762   3.52986   3.55104   3.60821   3.75274
 Alpha virt. eigenvalues --    3.76305   3.79293   3.85778   3.88371   4.20425
 Alpha virt. eigenvalues --    4.27516   4.44196
          Condensed to atoms (all electrons):
               1          2          3          4          5          6
     1  C    6.301338  -0.675350  -0.554016   0.312903  -0.270208   0.238732
     2  C   -0.675350  10.341039  -1.752711   0.034267  -0.877116   0.077212
     3  C   -0.554016  -1.752711  11.113029  -1.212001   0.322793   0.092918
     4  C    0.312903   0.034267  -1.212001   6.876260   0.300774  -0.149316
     5  S   -0.270208  -0.877116   0.322793   0.300774  16.254302  -0.158815
     6  H    0.238732   0.077212   0.092918  -0.149316  -0.158815   1.277200
     7  C    0.414145  -0.921994  -1.592103  -0.026036  -0.117013  -0.016745
     8  S   -0.028012  -0.147225  -0.388423  -0.001845   0.276348   0.001364
     9  C    0.054803  -0.066451  -0.376322  -0.012456   0.038685  -0.000605
    10  C   -0.056404  -0.012541   0.623196   0.016204   0.050988   0.001662
    11  C   -0.005341   0.493843  -0.843333  -0.063961  -0.322852   0.001477
    12  H    0.015992  -0.007673   0.064164   0.001714   0.007452   0.000691
    13  S   -0.002373   0.019711  -0.095229  -0.000478  -0.000931  -0.000102
    14  C   -0.000090  -0.020637   0.031704   0.000668   0.007661   0.000064
    15  C    0.004029  -0.017291  -0.375981  -0.007025   0.011017  -0.000398
    16  H   -0.000005  -0.000324  -0.000649   0.000007   0.000236   0.000002
    17  H   -0.000194  -0.000436  -0.009090  -0.000219   0.001419  -0.000014
    18  H    0.027279  -0.525759   0.403694  -0.030580   0.024249  -0.001386
    19  O   -0.244802  -0.061128   0.091029  -0.111545  -0.008127  -0.008299
    20  H   -0.036833  -0.065149  -0.024811   0.004127   0.004459  -0.006463
               7          8          9         10         11         12
     1  C    0.414145  -0.028012   0.054803  -0.056404  -0.005341   0.015992
     2  C   -0.921994  -0.147225  -0.066451  -0.012541   0.493843  -0.007673
     3  C   -1.592103  -0.388423  -0.376322   0.623196  -0.843333   0.064164
     4  C   -0.026036  -0.001845  -0.012456   0.016204  -0.063961   0.001714
     5  S   -0.117013   0.276348   0.038685   0.050988  -0.322852   0.007452
     6  H   -0.016745   0.001364  -0.000605   0.001662   0.001477   0.000691
     7  C   11.893136   0.277448  -0.108878  -0.423575  -3.366127   0.362640
     8  S    0.277448  16.536293   0.366855  -0.518857  -0.610636   0.031315
     9  C   -0.108878   0.366855  10.758377  -0.677188  -1.274358  -0.064710
    10  C   -0.423575  -0.518857  -0.677188  12.129306  -3.290128   0.559404
    11  C   -3.366127  -0.610636  -1.274358  -3.290128  15.994225  -1.121054
    12  H    0.362640   0.031315  -0.064710   0.559404  -1.121054   1.651053
    13  S   -0.281074   0.104556  -0.078627  -0.339885   0.103909  -0.043506
    14  C    0.062806  -0.116367  -0.221402  -0.921739  -0.115310   0.014740
    15  C   -0.513443  -0.203178  -2.160146  -1.055264   0.320877  -0.028499
    16  H    0.005024   0.010292   0.081140  -0.056870   0.030600   0.001541
    17  H    0.099253   0.014325   0.544456   0.070721  -0.064674  -0.000851
    18  H   -0.115296  -0.009714  -0.006975   0.030791   0.059072  -0.015611
    19  O    0.010925   0.004171  -0.000005   0.000226  -0.000285   0.001013
    20  H   -0.000072   0.001154   0.001019  -0.001691  -0.000582   0.000098
              13         14         15         16         17         18
     1  C   -0.002373  -0.000090   0.004029  -0.000005  -0.000194   0.027279
     2  C    0.019711  -0.020637  -0.017291  -0.000324  -0.000436  -0.525759
     3  C   -0.095229   0.031704  -0.375981  -0.000649  -0.009090   0.403694
     4  C   -0.000478   0.000668  -0.007025   0.000007  -0.000219  -0.030580
     5  S   -0.000931   0.007661   0.011017   0.000236   0.001419   0.024249
     6  H   -0.000102   0.000064  -0.000398   0.000002  -0.000014  -0.001386
     7  C   -0.281074   0.062806  -0.513443   0.005024   0.099253  -0.115296
     8  S    0.104556  -0.116367  -0.203178   0.010292   0.014325  -0.009714
     9  C   -0.078627  -0.221402  -2.160146   0.081140   0.544456  -0.006975
    10  C   -0.339885  -0.921739  -1.055264  -0.056870   0.070721   0.030791
    11  C    0.103909  -0.115310   0.320877   0.030600  -0.064674   0.059072
    12  H   -0.043506   0.014740  -0.028499   0.001541  -0.000851  -0.015611
    13  S   15.992465   0.183836  -0.026420  -0.161572  -0.003649   0.000729
    14  C    0.183836   6.920805   0.171131   0.192799  -0.122611  -0.000864
    15  C   -0.026420   0.171131   9.828664   0.051785  -0.566448  -0.003580
    16  H   -0.161572   0.192799   0.051785   1.292351  -0.068955   0.000025
    17  H   -0.003649  -0.122611  -0.566448  -0.068955   1.427111   0.000054
    18  H    0.000729  -0.000864  -0.003580   0.000025   0.000054   1.781619
    19  O    0.000073  -0.000009   0.000085   0.000000   0.000017  -0.062759
    20  H   -0.000043  -0.000005   0.000241   0.000000   0.000008  -0.013110
              19         20
     1  C   -0.244802  -0.036833
     2  C   -0.061128  -0.065149
     3  C    0.091029  -0.024811
     4  C   -0.111545   0.004127
     5  S   -0.008127   0.004459
     6  H   -0.008299  -0.006463
     7  C    0.010925  -0.000072
     8  S    0.004171   0.001154
     9  C   -0.000005   0.001019
    10  C    0.000226  -0.001691
    11  C   -0.000285  -0.000582
    12  H    0.001013   0.000098
    13  S    0.000073  -0.000043
    14  C   -0.000009  -0.000005
    15  C    0.000085   0.000241
    16  H    0.000000   0.000000
    17  H    0.000017   0.000008
    18  H   -0.062759  -0.013110
    19  O    8.886475   0.348766
    20  H    0.348766   0.657398
 Mulliken charges:
               1
     1  C    0.504409
     2  C    0.185712
     3  C    0.482145
     4  C    0.068540
     5  S    0.454678
     6  H   -0.349177
     7  C    0.356981
     8  S    0.400136
     9  C   -0.797213
    10  C   -0.128357
    11  C    0.074639
    12  H   -0.429913
    13  S    0.628611
    14  C   -0.067180
    15  C    0.569847
    16  H   -0.377426
    17  H   -0.320223
    18  H   -0.541876
    19  O   -0.845819
    20  H    0.131487
 Sum of Mulliken charges =  -0.00000
 Mulliken charges with hydrogens summed into heavy atoms:
               1
     1  C    0.504409
     2  C   -0.356164
     3  C    0.482145
     4  C   -0.280636
     5  S    0.454678
     7  C    0.356981
     8  S    0.400136
     9  C   -0.797213
    10  C   -0.128357
    11  C   -0.355274
    13  S    0.628611
    14  C   -0.444606
    15  C    0.249623
    19  O   -0.714331
 Electronic spatial extent (au):  <R**2>=           4765.8795
 Charge=             -0.0000 electrons
 Dipole moment (field-independent basis, Debye):
    X=             -1.2319    Y=              1.3750    Z=              1.0757  Tot=              2.1366
 Quadrupole moment (field-independent basis, Debye-Ang):
   XX=            -96.9305   YY=            -97.2346   ZZ=           -105.7222
   XY=              6.3432   XZ=             -0.1580   YZ=              1.9127
 Traceless Quadrupole moment (field-independent basis, Debye-Ang):
   XX=              3.0320   YY=              2.7278   ZZ=             -5.7598
   XY=              6.3432   XZ=             -0.1580   YZ=              1.9127
 Octapole moment (field-independent basis, Debye-Ang**2):
  XXX=            -76.4889  YYY=             20.0339  ZZZ=              7.4649  XYY=             20.1907
  XXY=            -20.0489  XXZ=              9.6714  XZZ=             18.3839  YZZ=              7.4425
  YYZ=             10.8721  XYZ=             25.3386
 Hexadecapole moment (field-independent basis, Debye-Ang**3):
 XXXX=          -5198.2275 YYYY=           -757.0325 ZZZZ=           -339.1247 XXXY=             -7.7593
 XXXZ=            -72.5302 YYYX=            103.6360 YYYZ=             17.4331 ZZZX=             34.7987
 ZZZY=             17.0527 XXYY=           -971.9998 XXZZ=           -980.5576 YYZZ=           -167.9880
 XXYZ=             46.8835 YYXZ=             30.1138 ZZXY=             35.8868
 N-N= 1.108534352962D+03 E-N=-6.123984975065D+03  KE= 1.649568907913D+03
 Unable to Open any file for archive entry.
 1\1\GINC-CX3-12-27\FOpt\RHF\Aug-CC-pVDZ\C10H6O1S3\NS5018\27-Oct-2021\0
 \\# opt=modredundant hf/aug-cc-pvdz\\pg2T_TT_-120.pdb\\0,1\C,-4.263946
 0746,-1.3717216958,-0.2137728656\C,-2.9670013947,-0.993150192,-0.70357
 87368\C,-2.0873662346,-2.0211867909,-0.7012173787\C,-4.3427181075,-2.6
 722816932,0.1310927462\S,-2.827531079,-3.4787903862,-0.1164344582\H,-5
 .1994402776,-3.1963928924,0.5154700968\C,-0.6840622244,-1.9814854172,-
 1.139531032\S,-0.1208270294,-3.0080763414,-2.4503992478\C,1.473301393,
 -2.3305307578,-2.3265130784\C,1.5310648251,-1.3812448591,-1.3483823438
 \C,0.2915057876,-1.1778319185,-0.6587684916\H,0.1403338358,-0.48934868
 72,0.1563013815\S,3.1270771145,-0.7066859687,-1.2230861448\C,3.6822150
 414,-1.7373491025,-2.5160436664\C,2.7182362306,-2.5428865014,-3.008270
 1559\H,4.7086719598,-1.6809963825,-2.8365538585\H,2.8742219772,-3.2482
 528426,-3.8080021487\H,-2.7190012771,-0.002388761,-1.0543268108\O,-5.3
 115588808,-0.5222596624,-0.113637782\H,-5.0781755854,0.3378608529,-0.4
 193460246\\Version=ES64L-G16RevC.01\State=1-A\HF=-1649.6425227\RMSD=4.
 724e-09\RMSF=3.594e-04\Dipole=0.3865705,0.6749241,-0.3188824\Quadrupol
 e=1.1967139,1.8206038,-3.0173178,-3.9499741,-3.358494,2.0579804\PG=C01
  [X(C10H6O1S3)]\\@
 The archive entry for this job was punched.


 IF GOD HAD MEANT MAN TO SEE THE SUN RISE, HE
 WOULD HAVE SCHEDULED IT FOR A LATER HOUR.
 Job cpu time:       0 days  4 hours 23 minutes 38.2 seconds.
 Elapsed time:       0 days  0 hours 33 minutes 10.5 seconds.
 File lengths (MBytes):  RWF=     95 Int=      0 D2E=      0 Chk=     12 Scr=      1
 Normal termination of Gaussian 16 at Wed Oct 27 02:01:25 2021.
