 Entering Gaussian System, Link 0=g16
 Input=pg2T_TT_20.gjf
 Output=pg2T_TT_20.log
 Initial command:
 /apps/gaussian/g16-c01-avx/g16/l1.exe "/tmp/pbs.4766241[195].pbs/Gau-4075130.inp" -scrdir="/tmp/pbs.4766241[195].pbs/"
 Entering Link 1 = /apps/gaussian/g16-c01-avx/g16/l1.exe PID=   4075131.
  
 Copyright (c) 1988-2019, Gaussian, Inc.  All Rights Reserved.
  
 This is part of the Gaussian(R) 16 program.  It is based on
 the Gaussian(R) 09 system (copyright 2009, Gaussian, Inc.),
 the Gaussian(R) 03 system (copyright 2003, Gaussian, Inc.),
 the Gaussian(R) 98 system (copyright 1998, Gaussian, Inc.),
 the Gaussian(R) 94 system (copyright 1995, Gaussian, Inc.),
 the Gaussian 92(TM) system (copyright 1992, Gaussian, Inc.),
 the Gaussian 90(TM) system (copyright 1990, Gaussian, Inc.),
 the Gaussian 88(TM) system (copyright 1988, Gaussian, Inc.),
 the Gaussian 86(TM) system (copyright 1986, Carnegie Mellon
 University), and the Gaussian 82(TM) system (copyright 1983,
 Carnegie Mellon University). Gaussian is a federally registered
 trademark of Gaussian, Inc.
  
 This software contains proprietary and confidential information,
 including trade secrets, belonging to Gaussian, Inc.
  
 This software is provided under written license and may be
 used, copied, transmitted, or stored only in accord with that
 written license.
  
 The following legend is applicable only to US Government
 contracts under FAR:
  
                    RESTRICTED RIGHTS LEGEND
  
 Use, reproduction and disclosure by the US Government is
 subject to restrictions as set forth in subparagraphs (a)
 and (c) of the Commercial Computer Software - Restricted
 Rights clause in FAR 52.227-19.
  
 Gaussian, Inc.
 340 Quinnipiac St., Bldg. 40, Wallingford CT 06492
  
  
 ---------------------------------------------------------------
 Warning -- This program may not be used in any manner that
 competes with the business of Gaussian, Inc. or will provide
 assistance to any competitor of Gaussian, Inc.  The licensee
 of this program is prohibited from giving any competitor of
 Gaussian, Inc. access to this program.  By using this program,
 the user acknowledges that Gaussian, Inc. is engaged in the
 business of creating and licensing software in the field of
 computational chemistry and represents and warrants to the
 licensee that it is not a competitor of Gaussian, Inc. and that
 it will not use this program in any manner prohibited above.
 ---------------------------------------------------------------
  

 Cite this work as:
 Gaussian 16, Revision C.01,
 M. J. Frisch, G. W. Trucks, H. B. Schlegel, G. E. Scuseria, 
 M. A. Robb, J. R. Cheeseman, G. Scalmani, V. Barone, 
 G. A. Petersson, H. Nakatsuji, X. Li, M. Caricato, A. V. Marenich, 
 J. Bloino, B. G. Janesko, R. Gomperts, B. Mennucci, H. P. Hratchian, 
 J. V. Ortiz, A. F. Izmaylov, J. L. Sonnenberg, D. Williams-Young, 
 F. Ding, F. Lipparini, F. Egidi, J. Goings, B. Peng, A. Petrone, 
 T. Henderson, D. Ranasinghe, V. G. Zakrzewski, J. Gao, N. Rega, 
 G. Zheng, W. Liang, M. Hada, M. Ehara, K. Toyota, R. Fukuda, 
 J. Hasegawa, M. Ishida, T. Nakajima, Y. Honda, O. Kitao, H. Nakai, 
 T. Vreven, K. Throssell, J. A. Montgomery, Jr., J. E. Peralta, 
 F. Ogliaro, M. J. Bearpark, J. J. Heyd, E. N. Brothers, K. N. Kudin, 
 V. N. Staroverov, T. A. Keith, R. Kobayashi, J. Normand, 
 K. Raghavachari, A. P. Rendell, J. C. Burant, S. S. Iyengar, 
 J. Tomasi, M. Cossi, J. M. Millam, M. Klene, C. Adamo, R. Cammi, 
 J. W. Ochterski, R. L. Martin, K. Morokuma, O. Farkas, 
 J. B. Foresman, and D. J. Fox, Gaussian, Inc., Wallingford CT, 2019.
 
 ******************************************
 Gaussian 16:  ES64L-G16RevC.01  3-Jul-2019
                27-Oct-2021 
 ******************************************
 %mem=100GB
 %nprocshared=8
 Will use up to    8 processors via shared memory.
 ---------------------------------
 # opt=modredundant hf/aug-cc-pvdz
 ---------------------------------
 1/18=120,19=15,38=1/1,3;
 2/9=110,12=2,17=6,18=5,40=1/2;
 3/5=16,7=10,11=9,25=1,30=1,71=1/1,2,3;
 4//1;
 5/5=2,38=5/2;
 6/7=2,8=2,9=2,10=2,28=1/1;
 7//1,2,3,16;
 1/18=20,19=15/3(2);
 2/9=110/2;
 99//99;
 2/9=110/2;
 3/5=16,7=10,11=9,25=1,30=1,71=1/1,2,3;
 4/5=5,16=3,69=1/1;
 5/5=2,38=5/2;
 7//1,2,3,16;
 1/18=20,19=15/3(-5);
 2/9=110/2;
 6/7=2,8=2,9=2,10=2,19=2,28=1/1;
 99/9=1/99;
 --------------
 pg2T_TT_20.pdb
 --------------
 Symbolic Z-matrix:
 Charge =  0 Multiplicity = 1
 C                    -4.25     -1.36     -0.21 
 C                    -2.93     -0.95     -0.61 
 C                    -1.97     -2.05     -0.62 
 C                    -4.33     -2.76      0.1 
 S                    -2.8      -3.56     -0.11 
 H                    -5.23     -3.27      0.41 
 C                    -0.56     -2.13     -0.97 
 S                     0.49     -0.681    -1.012 
 C                     1.882    -1.6      -1.472 
 C                     1.6      -3.009    -1.577 
 C                     0.233    -3.321    -1.281 
 H                    -0.123    -4.331    -1.149 
 S                     3.003    -3.992    -1.322 
 C                     4.01     -2.562    -1.083 
 C                     3.252    -1.336    -1.176 
 H                     5.027    -2.625    -0.723 
 H                     3.621    -0.387    -0.794 
 H                    -2.89      0.24     -0.97 
 O                    -5.6      -0.36     -0.4 
 H                    -5.76      0.85     -0.75 
 
 Add virtual bond connecting atoms H20        and O19        Dist= 2.40D+00.
 Add virtual bond connecting atoms O19        and C1         Dist= 3.20D+00.
 The following ModRedundant input section has been read:
 D       2       3       7       8 F                                           
 

 GradGradGradGradGradGradGradGradGradGradGradGradGradGradGradGradGradGrad
 Berny optimization.
 Initialization pass.
                           ----------------------------
                           !    Initial Parameters    !
                           ! (Angstroms and Degrees)  !
 --------------------------                            --------------------------
 ! Name  Definition              Value          Derivative Info.                !
 --------------------------------------------------------------------------------
 ! R1    R(1,2)                  1.4389         estimate D2E/DX2                !
 ! R2    R(1,4)                  1.4361         estimate D2E/DX2                !
 ! R3    R(1,19)                 1.6907         estimate D2E/DX2                !
 ! R4    R(2,3)                  1.46           estimate D2E/DX2                !
 ! R5    R(2,18)                 1.2439         estimate D2E/DX2                !
 ! R6    R(3,5)                  1.797          estimate D2E/DX2                !
 ! R7    R(3,7)                  1.455          estimate D2E/DX2                !
 ! R8    R(4,5)                  1.7393         estimate D2E/DX2                !
 ! R9    R(4,6)                  1.0799         estimate D2E/DX2                !
 ! R10   R(7,8)                  1.7899         estimate D2E/DX2                !
 ! R11   R(7,11)                 1.4643         estimate D2E/DX2                !
 ! R12   R(8,9)                  1.7303         estimate D2E/DX2                !
 ! R13   R(9,10)                 1.4408         estimate D2E/DX2                !
 ! R14   R(9,15)                 1.4263         estimate D2E/DX2                !
 ! R15   R(10,11)                1.4331         estimate D2E/DX2                !
 ! R16   R(10,13)                1.732          estimate D2E/DX2                !
 ! R17   R(11,12)                1.079          estimate D2E/DX2                !
 ! R18   R(13,14)                1.7652         estimate D2E/DX2                !
 ! R19   R(14,15)                1.4444         estimate D2E/DX2                !
 ! R20   R(14,16)                1.0807         estimate D2E/DX2                !
 ! R21   R(15,17)                1.0875         estimate D2E/DX2                !
 ! R22   R(19,20)                1.2697         estimate D2E/DX2                !
 ! A1    A(2,1,4)              112.8843         estimate D2E/DX2                !
 ! A2    A(2,1,19)             122.1887         estimate D2E/DX2                !
 ! A3    A(4,1,19)             123.8039         estimate D2E/DX2                !
 ! A4    A(1,2,3)              112.9799         estimate D2E/DX2                !
 ! A5    A(1,2,18)             112.491          estimate D2E/DX2                !
 ! A6    A(3,2,18)             134.2373         estimate D2E/DX2                !
 ! A7    A(2,3,5)              109.1138         estimate D2E/DX2                !
 ! A8    A(2,3,7)              132.8639         estimate D2E/DX2                !
 ! A9    A(5,3,7)              118.0132         estimate D2E/DX2                !
 ! A10   A(1,4,5)              111.9209         estimate D2E/DX2                !
 ! A11   A(1,4,6)              124.6643         estimate D2E/DX2                !
 ! A12   A(5,4,6)              123.4062         estimate D2E/DX2                !
 ! A13   A(3,5,4)               93.0997         estimate D2E/DX2                !
 ! A14   A(3,7,8)              121.979          estimate D2E/DX2                !
 ! A15   A(3,7,11)             128.3628         estimate D2E/DX2                !
 ! A16   A(8,7,11)             109.6198         estimate D2E/DX2                !
 ! A17   A(7,8,9)               92.7629         estimate D2E/DX2                !
 ! A18   A(8,9,10)             112.4161         estimate D2E/DX2                !
 ! A19   A(8,9,15)             128.2636         estimate D2E/DX2                !
 ! A20   A(10,9,15)            112.591          estimate D2E/DX2                !
 ! A21   A(9,10,11)            112.6169         estimate D2E/DX2                !
 ! A22   A(9,10,13)            112.6911         estimate D2E/DX2                !
 ! A23   A(11,10,13)           128.2243         estimate D2E/DX2                !
 ! A24   A(7,11,10)            112.5439         estimate D2E/DX2                !
 ! A25   A(7,11,12)            123.8276         estimate D2E/DX2                !
 ! A26   A(10,11,12)           122.9417         estimate D2E/DX2                !
 ! A27   A(10,13,14)            91.2759         estimate D2E/DX2                !
 ! A28   A(13,14,15)           112.3035         estimate D2E/DX2                !
 ! A29   A(13,14,16)           122.3253         estimate D2E/DX2                !
 ! A30   A(15,14,16)           124.3881         estimate D2E/DX2                !
 ! A31   A(9,15,14)            111.1209         estimate D2E/DX2                !
 ! A32   A(9,15,17)            124.0797         estimate D2E/DX2                !
 ! A33   A(14,15,17)           122.6842         estimate D2E/DX2                !
 ! A34   A(1,19,20)            134.0455         estimate D2E/DX2                !
 ! D1    D(4,1,2,3)              0.3915         estimate D2E/DX2                !
 ! D2    D(4,1,2,18)           175.0898         estimate D2E/DX2                !
 ! D3    D(19,1,2,3)          -167.9154         estimate D2E/DX2                !
 ! D4    D(19,1,2,18)            6.7829         estimate D2E/DX2                !
 ! D5    D(2,1,4,5)             -0.3845         estimate D2E/DX2                !
 ! D6    D(2,1,4,6)           -179.3471         estimate D2E/DX2                !
 ! D7    D(19,1,4,5)           167.7032         estimate D2E/DX2                !
 ! D8    D(19,1,4,6)           -11.2593         estimate D2E/DX2                !
 ! D9    D(2,1,19,20)           -7.6334         estimate D2E/DX2                !
 ! D10   D(4,1,19,20)         -174.6479         estimate D2E/DX2                !
 ! D11   D(1,2,3,5)             -0.2224         estimate D2E/DX2                !
 ! D12   D(1,2,3,7)            178.6265         estimate D2E/DX2                !
 ! D13   D(18,2,3,5)          -173.3787         estimate D2E/DX2                !
 ! D14   D(18,2,3,7)             5.4701         estimate D2E/DX2                !
 ! D15   D(2,3,5,4)              0.0033         estimate D2E/DX2                !
 ! D16   D(7,3,5,4)           -179.041          estimate D2E/DX2                !
 ! D17   D(2,3,7,8)             19.9833         Frozen                          !
 ! D18   D(2,3,7,11)          -162.513          estimate D2E/DX2                !
 ! D19   D(5,3,7,8)           -161.2487         estimate D2E/DX2                !
 ! D20   D(5,3,7,11)            16.255          estimate D2E/DX2                !
 ! D21   D(1,4,5,3)              0.2153         estimate D2E/DX2                !
 ! D22   D(6,4,5,3)            179.1932         estimate D2E/DX2                !
 ! D23   D(3,7,8,9)            179.7677         estimate D2E/DX2                !
 ! D24   D(11,7,8,9)             1.8455         estimate D2E/DX2                !
 ! D25   D(3,7,11,10)         -179.8107         estimate D2E/DX2                !
 ! D26   D(3,7,11,12)           -9.0808         estimate D2E/DX2                !
 ! D27   D(8,7,11,10)           -2.0586         estimate D2E/DX2                !
 ! D28   D(8,7,11,12)          168.6713         estimate D2E/DX2                !
 ! D29   D(7,8,9,10)            -1.199          estimate D2E/DX2                !
 ! D30   D(7,8,9,15)          -149.9139         estimate D2E/DX2                !
 ! D31   D(8,9,10,11)            0.2022         estimate D2E/DX2                !
 ! D32   D(8,9,10,13)         -154.0505         estimate D2E/DX2                !
 ! D33   D(15,9,10,11)         153.9948         estimate D2E/DX2                !
 ! D34   D(15,9,10,13)          -0.2579         estimate D2E/DX2                !
 ! D35   D(8,9,15,14)          149.758          estimate D2E/DX2                !
 ! D36   D(8,9,15,17)          -14.0366         estimate D2E/DX2                !
 ! D37   D(10,9,15,14)           1.0872         estimate D2E/DX2                !
 ! D38   D(10,9,15,17)        -162.7074         estimate D2E/DX2                !
 ! D39   D(9,10,11,7)            1.232          estimate D2E/DX2                !
 ! D40   D(9,10,11,12)        -169.5926         estimate D2E/DX2                !
 ! D41   D(13,10,11,7)         150.5576         estimate D2E/DX2                !
 ! D42   D(13,10,11,12)        -20.2671         estimate D2E/DX2                !
 ! D43   D(9,10,13,14)          -0.4916         estimate D2E/DX2                !
 ! D44   D(11,10,13,14)       -149.7988         estimate D2E/DX2                !
 ! D45   D(10,13,14,15)          1.1161         estimate D2E/DX2                !
 ! D46   D(10,13,14,16)        170.2273         estimate D2E/DX2                !
 ! D47   D(13,14,15,9)          -1.4525         estimate D2E/DX2                !
 ! D48   D(13,14,15,17)        162.6071         estimate D2E/DX2                !
 ! D49   D(16,14,15,9)        -170.2992         estimate D2E/DX2                !
 ! D50   D(16,14,15,17)         -6.2396         estimate D2E/DX2                !
 --------------------------------------------------------------------------------
 Trust Radius=3.00D-01 FncErr=1.00D-07 GrdErr=1.00D-07 EigMax=2.50D+02 EigMin=1.00D-04
 Number of steps in this run=    116 maximum allowed number of steps=    120.
 GradGradGradGradGradGradGradGradGradGradGradGradGradGradGradGradGradGrad

                          Input orientation:                          
 ---------------------------------------------------------------------
 Center     Atomic      Atomic             Coordinates (Angstroms)
 Number     Number       Type             X           Y           Z
 ---------------------------------------------------------------------
      1          6           0       -4.250000   -1.360000   -0.210000
      2          6           0       -2.930000   -0.950000   -0.610000
      3          6           0       -1.970000   -2.050000   -0.620000
      4          6           0       -4.330000   -2.760000    0.100000
      5         16           0       -2.800000   -3.560000   -0.110000
      6          1           0       -5.230000   -3.270000    0.410000
      7          6           0       -0.560000   -2.130000   -0.970000
      8         16           0        0.490000   -0.681000   -1.012000
      9          6           0        1.882000   -1.600000   -1.472000
     10          6           0        1.600000   -3.009000   -1.577000
     11          6           0        0.233000   -3.321000   -1.281000
     12          1           0       -0.123000   -4.331000   -1.149000
     13         16           0        3.003000   -3.992000   -1.322000
     14          6           0        4.010000   -2.562000   -1.083000
     15          6           0        3.252000   -1.336000   -1.176000
     16          1           0        5.027000   -2.625000   -0.723000
     17          1           0        3.621000   -0.387000   -0.794000
     18          1           0       -2.890000    0.240000   -0.970000
     19          8           0       -5.600000   -0.360000   -0.400000
     20          1           0       -5.760000    0.850000   -0.750000
 ---------------------------------------------------------------------
                    Distance matrix (angstroms):
                    1          2          3          4          5
     1  C    0.000000
     2  C    1.438923   0.000000
     3  C    2.417147   1.460034   0.000000
     4  C    1.436141   2.395871   2.567509   0.000000
     5  S    2.636759   2.660639   1.796970   1.739253   0.000000
     6  H    2.234480   3.422397   3.630000   1.079907   2.501879
     7  C    3.845335   2.671872   1.454991   3.969219   2.793224
     8  S    4.855084   3.454036   2.842433   5.365742   4.463893
     9  C    6.265115   4.931621   3.970681   6.511968   5.255261
    10  C    6.229799   5.069070   3.818433   6.167595   4.670727
    11  C    5.008977   4.009545   2.627845   4.800297   3.259977
    12  H    5.171140   4.427294   2.982316   4.661211   2.973263
    13  S    7.795510   6.705311   5.384691   7.570522   5.943936
    14  C    8.392528   7.140439   6.019710   8.425811   6.951175
    15  C    7.563976   6.219845   5.299832   7.819378   6.535230
    16  H    9.376893   8.132173   7.021342   9.394094   7.906448
    17  H    7.952385   6.577722   5.835677   8.345584   7.194792
    18  H    2.233204   1.243905   2.492589   3.495497   3.897140
    19  O    1.690739   2.742462   4.010162   2.760960   4.261936
    20  H    2.730531   3.356859   4.773992   3.974858   5.349701
                    6          7          8          9         10
     6  H    0.000000
     7  C    5.001290   0.000000
     8  S    6.437655   1.789934   0.000000
     9  C    7.543962   2.548778   1.730267   0.000000
    10  C    7.117948   2.409707   2.640248   1.440774   0.000000
    11  C    5.718955   1.464258   2.666085   2.391134   1.433056
    12  H    5.444047   2.251091   3.703652   3.403339   2.213503
    13  S    8.444134   4.035581   4.168212   2.645903   1.731971
    14  C    9.386582   4.591764   3.991692   2.367520   2.500389
    15  C    8.843081   3.899258   2.843337   1.426258   2.385128
    16  H   10.339524   5.614321   4.944393   3.391556   3.552619
    17  H    9.386240   4.533187   3.152320   2.226022   3.401825
    18  H    4.438479   3.323522   3.503485   5.139026   5.575352
    19  O    3.043206   5.372095   6.129085   7.659446   7.761606
    20  H    4.312876   5.997399   6.440117   8.057540   8.351372
                   11         12         13         14         15
    11  C    0.000000
    12  H    1.079009   0.000000
    13  S    2.850407   3.149083   0.000000
    14  C    3.857592   4.496155   1.765239   0.000000
    15  C    3.614638   4.512358   2.671639   1.444399   0.000000
    16  H    4.876291   5.441913   2.514770   1.080675   2.239945
    17  H    4.508222   5.449651   3.695502   2.228333   1.087514
    18  H    4.746638   5.346248   7.263689   7.448085   6.344318
    19  O    6.600574   6.806421   9.383662   9.882681   8.939388
    20  H    7.320878   7.666664  10.028076  10.354010   9.283115
                   16         17         18         19         20
    16  H    0.000000
    17  H    2.643959   0.000000
    18  H    8.423071   6.543487   0.000000
    19  O   10.870496   9.229453   2.833549   0.000000
    20  H   11.332949   9.462308   2.942346   1.269724   0.000000
 Stoichiometry    C10H6OS3
 Framework group  C1[X(C10H6OS3)]
 Deg. of freedom    54
 Full point group                 C1      NOp   1
 Largest Abelian subgroup         C1      NOp   1
 Largest concise Abelian subgroup C1      NOp   1
                         Standard orientation:                         
 ---------------------------------------------------------------------
 Center     Atomic      Atomic             Coordinates (Angstroms)
 Number     Number       Type             X           Y           Z
 ---------------------------------------------------------------------
      1          6           0       -3.910301    0.293726    0.099090
      2          6           0       -2.620223    0.910309   -0.062226
      3          6           0       -1.520440   -0.048974   -0.018033
      4          6           0       -3.830912   -1.129132    0.277054
      5         16           0       -2.187901   -1.698109    0.234852
      6          1           0       -4.682639   -1.780630    0.404769
      7          6           0       -0.078861    0.090908   -0.156907
      8         16           0        0.748380    1.660526    0.079383
      9          6           0        2.307684    0.981868   -0.239709
     10          6           0        2.247650   -0.433601   -0.501763
     11          6           0        0.911819   -0.948985   -0.441910
     12          1           0        0.689408   -2.004801   -0.448760
     13         16           0        3.728264   -1.247134   -0.120099
     14          6           0        4.477322    0.269406    0.384967
     15          6           0        3.571662    1.389709    0.280135
     16          1           0        5.433367    0.302388    0.887707
     17          1           0        3.744643    2.334441    0.790277
     18          1           0       -2.701832    2.125983   -0.312781
     19          8           0       -5.350377    1.124249   -0.209152
     20          1           0       -5.632235    2.332673   -0.478351
 ---------------------------------------------------------------------
 Rotational constants (GHZ):           1.3900477           0.2305206           0.2001359
 Standard basis: Aug-CC-pVDZ (5D, 7F)
 There are   416 symmetry adapted cartesian basis functions of A   symmetry.
 There are   388 symmetry adapted basis functions of A   symmetry.
   388 basis functions,   782 primitive gaussians,   416 cartesian basis functions
    61 alpha electrons       61 beta electrons
       nuclear repulsion energy      1077.1772866903 Hartrees.
 NAtoms=   20 NActive=   20 NUniq=   20 SFac= 1.00D+00 NAtFMM=   60 NAOKFM=F Big=F
 Integral buffers will be    131072 words long.
 Raffenetti 1 integral format.
 Two-electron integral symmetry is turned on.
 One-electron integrals computed using PRISM.
 NBasis=   388 RedAO= T EigKep=  5.90D-06  NBF=   388
 NBsUse=   388 1.00D-06 EigRej= -1.00D+00 NBFU=   388
 ExpMin= 2.97D-02 ExpMax= 1.11D+05 ExpMxC= 1.07D+03 IAcc=3 IRadAn=         5 AccDes= 0.00D+00
 Harris functional with IExCor=  205 and IRadAn=       5 diagonalized for initial guess.
 HarFok:  IExCor=  205 AccDes= 0.00D+00 IRadAn=         5 IDoV= 1 UseB2=F ITyADJ=14
 ICtDFT=  3500011 ScaDFX=  1.000000  1.000000  1.000000  1.000000
 FoFCou: FMM=F IPFlag=           0 FMFlag=      100000 FMFlg1=           0
         NFxFlg=           0 DoJE=T BraDBF=F KetDBF=T FulRan=T
         wScrn=  0.000000 ICntrl=       500 IOpCl=  0 I1Cent=   200000004 NGrid=           0
         NMat0=    1 NMatS0=      1 NMatT0=    0 NMatD0=    1 NMtDS0=    0 NMtDT0=    0
 Petite list used in FoFCou.
 Requested convergence on RMS density matrix=1.00D-08 within 128 cycles.
 Requested convergence on MAX density matrix=1.00D-06.
 Requested convergence on             energy=1.00D-06.
 No special actions if energy rises.
 SCF Done:  E(RHF) =  -1649.42294455     A.U. after   18 cycles
            NFock= 18  Conv=0.98D-08     -V/T= 2.0016

 **********************************************************************

            Population analysis using the SCF Density.

 **********************************************************************

 Orbital symmetries:
       Occupied  (A) (A) (A) (A) (A) (A) (A) (A) (A) (A) (A) (A)
                 (A) (A) (A) (A) (A) (A) (A) (A) (A) (A) (A) (A)
                 (A) (A) (A) (A) (A) (A) (A) (A) (A) (A) (A) (A)
                 (A) (A) (A) (A) (A) (A) (A) (A) (A) (A) (A) (A)
                 (A) (A) (A) (A) (A) (A) (A) (A) (A) (A) (A) (A)
                 (A)
       Virtual   (A) (A) (A) (A) (A) (A) (A) (A) (A) (A) (A) (A)
                 (A) (A) (A) (A) (A) (A) (A) (A) (A) (A) (A) (A)
                 (A) (A) (A) (A) (A) (A) (A) (A) (A) (A) (A) (A)
                 (A) (A) (A) (A) (A) (A) (A) (A) (A) (A) (A) (A)
                 (A) (A) (A) (A) (A) (A) (A) (A) (A) (A) (A) (A)
                 (A) (A) (A) (A) (A) (A) (A) (A) (A) (A) (A) (A)
                 (A) (A) (A) (A) (A) (A) (A) (A) (A) (A) (A) (A)
                 (A) (A) (A) (A) (A) (A) (A) (A) (A) (A) (A) (A)
                 (A) (A) (A) (A) (A) (A) (A) (A) (A) (A) (A) (A)
                 (A) (A) (A) (A) (A) (A) (A) (A) (A) (A) (A) (A)
                 (A) (A) (A) (A) (A) (A) (A) (A) (A) (A) (A) (A)
                 (A) (A) (A) (A) (A) (A) (A) (A) (A) (A) (A) (A)
                 (A) (A) (A) (A) (A) (A) (A) (A) (A) (A) (A) (A)
                 (A) (A) (A) (A) (A) (A) (A) (A) (A) (A) (A) (A)
                 (A) (A) (A) (A) (A) (A) (A) (A) (A) (A) (A) (A)
                 (A) (A) (A) (A) (A) (A) (A) (A) (A) (A) (A) (A)
                 (A) (A) (A) (A) (A) (A) (A) (A) (A) (A) (A) (A)
                 (A) (A) (A) (A) (A) (A) (A) (A) (A) (A) (A) (A)
                 (A) (A) (A) (A) (A) (A) (A) (A) (A) (A) (A) (A)
                 (A) (A) (A) (A) (A) (A) (A) (A) (A) (A) (A) (A)
                 (A) (A) (A) (A) (A) (A) (A) (A) (A) (A) (A) (A)
                 (A) (A) (A) (A) (A) (A) (A) (A) (A) (A) (A) (A)
                 (A) (A) (A) (A) (A) (A) (A) (A) (A) (A) (A) (A)
                 (A) (A) (A) (A) (A) (A) (A) (A) (A) (A) (A) (A)
                 (A) (A) (A) (A) (A) (A) (A) (A) (A) (A) (A) (A)
                 (A) (A) (A) (A) (A) (A) (A) (A) (A) (A) (A) (A)
                 (A) (A) (A) (A) (A) (A) (A) (A) (A) (A) (A) (A)
                 (A) (A) (A)
 The electronic state is 1-A.
 Alpha  occ. eigenvalues --  -92.01507 -92.00664 -92.00573 -20.60014 -11.35152
 Alpha  occ. eigenvalues --  -11.32455 -11.31819 -11.29990 -11.29935 -11.29821
 Alpha  occ. eigenvalues --  -11.29389 -11.29283 -11.28390 -11.27836  -9.01468
 Alpha  occ. eigenvalues --   -9.00717  -9.00624  -6.69631  -6.69530  -6.69347
 Alpha  occ. eigenvalues --   -6.68882  -6.68793  -6.68790  -6.68698  -6.68603
 Alpha  occ. eigenvalues --   -6.68505  -1.25238  -1.20564  -1.16709  -1.11109
 Alpha  occ. eigenvalues --   -1.03965  -1.01380  -0.99248  -0.95087  -0.93074
 Alpha  occ. eigenvalues --   -0.83686  -0.78206  -0.75298  -0.72088  -0.71455
 Alpha  occ. eigenvalues --   -0.66846  -0.66030  -0.60357  -0.58313  -0.57144
 Alpha  occ. eigenvalues --   -0.55922  -0.55042  -0.54453  -0.54026  -0.53019
 Alpha  occ. eigenvalues --   -0.51088  -0.49400  -0.48568  -0.47748  -0.46949
 Alpha  occ. eigenvalues --   -0.46026  -0.40177  -0.36254  -0.34868  -0.32593
 Alpha  occ. eigenvalues --   -0.26451
 Alpha virt. eigenvalues --    0.02501   0.02780   0.03401   0.04215   0.04550
 Alpha virt. eigenvalues --    0.04984   0.05958   0.08068   0.08238   0.08902
 Alpha virt. eigenvalues --    0.09395   0.10186   0.10272   0.10594   0.10787
 Alpha virt. eigenvalues --    0.11100   0.11248   0.12104   0.12689   0.13166
 Alpha virt. eigenvalues --    0.13719   0.14033   0.14360   0.14570   0.14807
 Alpha virt. eigenvalues --    0.15156   0.15721   0.15794   0.16336   0.16706
 Alpha virt. eigenvalues --    0.16766   0.16973   0.17289   0.17836   0.18212
 Alpha virt. eigenvalues --    0.18842   0.19343   0.19623   0.19813   0.20322
 Alpha virt. eigenvalues --    0.20654   0.21175   0.22009   0.22222   0.22707
 Alpha virt. eigenvalues --    0.23105   0.23605   0.24120   0.24801   0.25214
 Alpha virt. eigenvalues --    0.25566   0.26397   0.26826   0.27115   0.27702
 Alpha virt. eigenvalues --    0.28161   0.28646   0.29199   0.29465   0.29887
 Alpha virt. eigenvalues --    0.30649   0.31090   0.31533   0.32119   0.32888
 Alpha virt. eigenvalues --    0.33181   0.33500   0.33997   0.34219   0.34488
 Alpha virt. eigenvalues --    0.34869   0.35748   0.36529   0.36897   0.37447
 Alpha virt. eigenvalues --    0.38287   0.38941   0.39395   0.40213   0.40464
 Alpha virt. eigenvalues --    0.40897   0.41340   0.42464   0.42687   0.43209
 Alpha virt. eigenvalues --    0.43607   0.44185   0.44836   0.45199   0.45541
 Alpha virt. eigenvalues --    0.46440   0.47242   0.47674   0.48859   0.49789
 Alpha virt. eigenvalues --    0.50573   0.50820   0.51426   0.52284   0.53450
 Alpha virt. eigenvalues --    0.53776   0.54110   0.54884   0.55942   0.56167
 Alpha virt. eigenvalues --    0.57269   0.57978   0.58950   0.59339   0.60425
 Alpha virt. eigenvalues --    0.60529   0.61767   0.62549   0.62794   0.62914
 Alpha virt. eigenvalues --    0.63865   0.64135   0.64844   0.65299   0.66446
 Alpha virt. eigenvalues --    0.66732   0.67027   0.67782   0.68276   0.68643
 Alpha virt. eigenvalues --    0.69628   0.69872   0.69978   0.71146   0.71296
 Alpha virt. eigenvalues --    0.72650   0.73061   0.73590   0.73907   0.75211
 Alpha virt. eigenvalues --    0.75994   0.76032   0.76658   0.77568   0.78022
 Alpha virt. eigenvalues --    0.79237   0.79953   0.80857   0.81745   0.82850
 Alpha virt. eigenvalues --    0.83252   0.83884   0.84282   0.85055   0.85376
 Alpha virt. eigenvalues --    0.86660   0.87662   0.88592   0.89260   0.89587
 Alpha virt. eigenvalues --    0.89875   0.90970   0.91453   0.92989   0.93874
 Alpha virt. eigenvalues --    0.94576   0.94925   0.95508   0.96707   0.96837
 Alpha virt. eigenvalues --    0.98296   0.98544   0.99398   0.99506   1.00299
 Alpha virt. eigenvalues --    1.01592   1.02002   1.03387   1.04710   1.06475
 Alpha virt. eigenvalues --    1.06740   1.07340   1.08868   1.10003   1.10283
 Alpha virt. eigenvalues --    1.11442   1.14161   1.14525   1.16138   1.16636
 Alpha virt. eigenvalues --    1.17570   1.19041   1.19242   1.20637   1.21097
 Alpha virt. eigenvalues --    1.21428   1.22403   1.22626   1.24256   1.24699
 Alpha virt. eigenvalues --    1.25964   1.26584   1.27150   1.27941   1.28313
 Alpha virt. eigenvalues --    1.29438   1.30393   1.31925   1.33198   1.34162
 Alpha virt. eigenvalues --    1.35398   1.35745   1.37979   1.38539   1.39240
 Alpha virt. eigenvalues --    1.41113   1.41911   1.43451   1.43617   1.46673
 Alpha virt. eigenvalues --    1.46924   1.48694   1.50255   1.52592   1.53823
 Alpha virt. eigenvalues --    1.55118   1.57114   1.57457   1.58460   1.59152
 Alpha virt. eigenvalues --    1.60080   1.60659   1.61912   1.63808   1.63887
 Alpha virt. eigenvalues --    1.64719   1.65470   1.67153   1.68561   1.69203
 Alpha virt. eigenvalues --    1.69509   1.72875   1.73470   1.74843   1.75213
 Alpha virt. eigenvalues --    1.76251   1.77035   1.78387   1.78894   1.79698
 Alpha virt. eigenvalues --    1.80503   1.82034   1.83160   1.83399   1.85360
 Alpha virt. eigenvalues --    1.86812   1.88053   1.89892   1.91488   1.93023
 Alpha virt. eigenvalues --    1.93951   1.94613   1.95785   1.96632   1.97861
 Alpha virt. eigenvalues --    1.99796   2.00541   2.02300   2.02994   2.03661
 Alpha virt. eigenvalues --    2.05564   2.06661   2.07475   2.08643   2.08840
 Alpha virt. eigenvalues --    2.09718   2.11873   2.12351   2.13927   2.15268
 Alpha virt. eigenvalues --    2.17845   2.18457   2.18831   2.21242   2.22716
 Alpha virt. eigenvalues --    2.23435   2.25682   2.27127   2.28972   2.29672
 Alpha virt. eigenvalues --    2.31548   2.32913   2.33565   2.35530   2.36967
 Alpha virt. eigenvalues --    2.38296   2.39076   2.40158   2.42911   2.44262
 Alpha virt. eigenvalues --    2.47246   2.48629   2.50710   2.53379   2.54358
 Alpha virt. eigenvalues --    2.61828   2.64812   2.70739   2.74587   2.77618
 Alpha virt. eigenvalues --    2.81351   2.81784   2.84856   2.86353   2.91119
 Alpha virt. eigenvalues --    2.95909   3.00125   3.05327   3.09368   3.13690
 Alpha virt. eigenvalues --    3.25587   3.28049   3.37041   3.51147   3.73133
 Alpha virt. eigenvalues --    3.76104   3.78006   3.81108   3.82990   3.95088
 Alpha virt. eigenvalues --    4.06845   4.10749
          Condensed to atoms (all electrons):
               1          2          3          4          5          6
     1  C    6.458138  -0.418811  -0.330114   0.592166  -0.220772   0.088465
     2  C   -0.418811   8.760718  -1.278032   0.043531  -0.440399   0.038991
     3  C   -0.330114  -1.278032   9.899248  -1.073247   0.255922   0.037172
     4  C    0.592166   0.043531  -1.073247   6.142390  -0.008539   0.054345
     5  S   -0.220772  -0.440399   0.255922  -0.008539  16.104961  -0.118656
     6  H    0.088465   0.038991   0.037172   0.054345  -0.118656   1.238257
     7  C   -0.031962  -0.285147  -2.468729   0.483370  -0.087202   0.000390
     8  S   -0.047011   0.178892  -0.318479   0.040439   0.032518  -0.000375
     9  C   -0.010633  -0.038027   0.185702   0.022658   0.006039   0.000300
    10  C    0.012755   0.045392   0.298087  -0.107521  -0.261566  -0.000492
    11  C   -0.020222  -0.549415   0.130843  -0.311400   0.132208   0.004052
    12  H   -0.008596   0.042781   0.026655   0.011778  -0.017522   0.002508
    13  S    0.000740  -0.003393   0.003100  -0.002294  -0.011444  -0.000037
    14  C   -0.000509  -0.006842   0.027261  -0.002375  -0.013089  -0.000091
    15  C   -0.001821   0.022844  -0.163082   0.003202   0.021287   0.000123
    16  H   -0.000032  -0.000409   0.001229  -0.000130  -0.000462  -0.000006
    17  H    0.000341   0.002685  -0.001653   0.000412   0.000807   0.000023
    18  H   -0.068529   0.282053   0.008095  -0.006843   0.020249  -0.000179
    19  O   -0.048688  -0.095554   0.027495  -0.038558   0.003728  -0.014231
    20  H    0.017492  -0.004510  -0.000138  -0.014631   0.001894  -0.002795
               7          8          9         10         11         12
     1  C   -0.031962  -0.047011  -0.010633   0.012755  -0.020222  -0.008596
     2  C   -0.285147   0.178892  -0.038027   0.045392  -0.549415   0.042781
     3  C   -2.468729  -0.318479   0.185702   0.298087   0.130843   0.026655
     4  C    0.483370   0.040439   0.022658  -0.107521  -0.311400   0.011778
     5  S   -0.087202   0.032518   0.006039  -0.261566   0.132208  -0.017522
     6  H    0.000390  -0.000375   0.000300  -0.000492   0.004052   0.002508
     7  C   10.577625   0.356514  -0.662420  -0.465819  -2.063222   0.474703
     8  S    0.356514  16.140875  -0.070777  -0.146971  -0.640603   0.040850
     9  C   -0.662420  -0.070777   7.673909   0.092390   0.066039  -0.069126
    10  C   -0.465819  -0.146971   0.092390   9.721074  -2.758786   0.099406
    11  C   -2.063222  -0.640603   0.066039  -2.758786  12.577399  -0.736672
    12  H    0.474703   0.040850  -0.069126   0.099406  -0.736672   1.672216
    13  S   -0.134378  -0.001766   0.010645   0.105240  -0.065399  -0.062928
    14  C    0.061364  -0.100867   0.164780  -0.262907  -0.239550   0.002573
    15  C    0.065293   0.047750  -1.174179   0.184133   0.107306  -0.009353
    16  H   -0.006894  -0.006543  -0.028382   0.002778   0.041629   0.001686
    17  H    0.029903  -0.014447   0.191721  -0.020090  -0.011903   0.000382
    18  H    0.007921  -0.001670  -0.001425  -0.000540  -0.008019   0.002283
    19  O   -0.003181   0.001066   0.000057   0.000247   0.003759   0.000095
    20  H   -0.000840   0.000271   0.000177  -0.000074   0.000596   0.000016
              13         14         15         16         17         18
     1  C    0.000740  -0.000509  -0.001821  -0.000032   0.000341  -0.068529
     2  C   -0.003393  -0.006842   0.022844  -0.000409   0.002685   0.282053
     3  C    0.003100   0.027261  -0.163082   0.001229  -0.001653   0.008095
     4  C   -0.002294  -0.002375   0.003202  -0.000130   0.000412  -0.006843
     5  S   -0.011444  -0.013089   0.021287  -0.000462   0.000807   0.020249
     6  H   -0.000037  -0.000091   0.000123  -0.000006   0.000023  -0.000179
     7  C   -0.134378   0.061364   0.065293  -0.006894   0.029903   0.007921
     8  S   -0.001766  -0.100867   0.047750  -0.006543  -0.014447  -0.001670
     9  C    0.010645   0.164780  -1.174179  -0.028382   0.191721  -0.001425
    10  C    0.105240  -0.262907   0.184133   0.002778  -0.020090  -0.000540
    11  C   -0.065399  -0.239550   0.107306   0.041629  -0.011903  -0.008019
    12  H   -0.062928   0.002573  -0.009353   0.001686   0.000382   0.002283
    13  S   15.689361   0.188267  -0.258057  -0.130978   0.010134  -0.000306
    14  C    0.188267   5.834909   0.159374   0.248721  -0.063136  -0.000768
    15  C   -0.258057   0.159374   6.742348   0.038455  -0.105836   0.002312
    16  H   -0.130978   0.248721   0.038455   1.241732  -0.059454  -0.000046
    17  H    0.010134  -0.063136  -0.105836  -0.059454   1.361019   0.000578
    18  H   -0.000306  -0.000768   0.002312  -0.000046   0.000578   0.928478
    19  O    0.000013   0.000004   0.000026   0.000001   0.000004  -0.019957
    20  H    0.000005   0.000005   0.000001   0.000000  -0.000002   0.007350
              19         20
     1  C   -0.048688   0.017492
     2  C   -0.095554  -0.004510
     3  C    0.027495  -0.000138
     4  C   -0.038558  -0.014631
     5  S    0.003728   0.001894
     6  H   -0.014231  -0.002795
     7  C   -0.003181  -0.000840
     8  S    0.001066   0.000271
     9  C    0.000057   0.000177
    10  C    0.000247  -0.000074
    11  C    0.003759   0.000596
    12  H    0.000095   0.000016
    13  S    0.000013   0.000005
    14  C    0.000004   0.000005
    15  C    0.000026   0.000001
    16  H    0.000001   0.000000
    17  H    0.000004  -0.000002
    18  H   -0.019957   0.007350
    19  O    9.107599   0.218515
    20  H    0.218515   0.353953
 Mulliken charges:
               1
     1  C    0.037601
     2  C   -0.297349
     3  C    0.732665
     4  C    0.171248
     5  S    0.600039
     6  H   -0.327766
     7  C    0.152714
     8  S    0.510333
     9  C   -0.359448
    10  C   -0.536735
    11  C    0.341360
    12  H   -0.473737
    13  S    0.663475
    14  C    0.002875
    15  C    0.317874
    16  H   -0.342897
    17  H   -0.321487
    18  H   -0.151037
    19  O   -1.142442
    20  H    0.422712
 Sum of Mulliken charges =  -0.00000
 Mulliken charges with hydrogens summed into heavy atoms:
               1
     1  C    0.037601
     2  C   -0.448387
     3  C    0.732665
     4  C   -0.156518
     5  S    0.600039
     7  C    0.152714
     8  S    0.510333
     9  C   -0.359448
    10  C   -0.536735
    11  C   -0.132378
    13  S    0.663475
    14  C   -0.340022
    15  C   -0.003612
    19  O   -0.719729
 Electronic spatial extent (au):  <R**2>=           4992.2629
 Charge=             -0.0000 electrons
 Dipole moment (field-independent basis, Debye):
    X=              1.3791    Y=              0.9572    Z=              0.7677  Tot=              1.8460
 Quadrupole moment (field-independent basis, Debye-Ang):
   XX=            -99.9932   YY=            -90.6517   ZZ=           -111.1869
   XY=             -2.9417   XZ=              6.6791   YZ=             -0.2949
 Traceless Quadrupole moment (field-independent basis, Debye-Ang):
   XX=              0.6174   YY=              9.9589   ZZ=            -10.5763
   XY=             -2.9417   XZ=              6.6791   YZ=             -0.2949
 Octapole moment (field-independent basis, Debye-Ang**2):
  XXX=             57.8921  YYY=             20.1747  ZZZ=              2.1206  XYY=            -50.9554
  XXY=             40.9340  XXZ=             23.9296  XZZ=             -1.2920  YZZ=              1.5860
  YYZ=             -0.6587  XYZ=             19.9263
 Hexadecapole moment (field-independent basis, Debye-Ang**3):
 XXXX=          -5615.3008 YYYY=           -920.9887 ZZZZ=           -190.5680 XXXY=           -176.6604
 XXXZ=            219.9380 YYYX=           -107.9680 YYYZ=             -4.1261 ZZZX=             16.0818
 ZZZY=              0.0189 XXYY=           -828.5793 XXZZ=          -1045.8930 YYZZ=           -208.0190
 XXYZ=            -50.6077 YYXZ=             41.3198 ZZXY=             -9.1278
 N-N= 1.077177286690D+03 E-N=-6.058462007729D+03  KE= 1.646837459726D+03
 Calling FoFJK, ICntrl=      2127 FMM=F ISym2X=0 I1Cent= 0 IOpClX= 0 NMat=1 NMatS=1 NMatT=0.
 ***** Axes restored to original set *****
 -------------------------------------------------------------------
 Center     Atomic                   Forces (Hartrees/Bohr)
 Number     Number              X              Y              Z
 -------------------------------------------------------------------
      1        6          -0.033286163   -0.005561590   -0.018105187
      2        6           0.018192434    0.020852622   -0.019809866
      3        6          -0.061696687    0.035020942    0.004919104
      4        6          -0.014816965    0.077548284   -0.013537399
      5       16          -0.003368945    0.040017626   -0.002294693
      6        1           0.004660581   -0.002676153   -0.002005492
      7        6           0.057438200   -0.045862875   -0.019405628
      8       16          -0.017041058   -0.015435563   -0.009145306
      9        6           0.000990678   -0.054618335    0.011154626
     10        6          -0.014437661    0.050770945    0.022152610
     11        6          -0.033702182    0.066265283    0.015535050
     12        1          -0.004586146    0.001789617   -0.005598533
     13       16           0.013834938    0.019599858   -0.006687495
     14        6          -0.048247989    0.060143635   -0.000251707
     15        6           0.036910882   -0.065549818    0.013908162
     16        1          -0.000699005   -0.003563536   -0.007955086
     17        1           0.002178721   -0.004554802   -0.011392210
     18        1           0.016262002   -0.079050319    0.021277078
     19        8           0.034791688    0.035619712   -0.009706431
     20        1           0.046622675   -0.130755533    0.036948402
 -------------------------------------------------------------------
 Cartesian Forces:  Max     0.130755533 RMS     0.035864448

 GradGradGradGradGradGradGradGradGradGradGradGradGradGradGradGradGradGrad
 Berny optimization.
 FormGI is forming the generalized inverse of G from B-inverse, IUseBI=4.
 Internal  Forces:  Max     0.140664989 RMS     0.028623839
 Search for a local minimum.
 Step number   1 out of a maximum of  116
 All quantities printed in internal units (Hartrees-Bohrs-Radians)
 Mixed Optimization -- RFO/linear search
 Second derivative matrix not updated -- first step.
 ITU=  0
     Eigenvalues ---    0.00230   0.00983   0.01058   0.01223   0.01275
     Eigenvalues ---    0.01300   0.01386   0.01417   0.01426   0.01464
     Eigenvalues ---    0.01492   0.01554   0.01595   0.01773   0.02198
     Eigenvalues ---    0.02650   0.15073   0.15683   0.15737   0.15872
     Eigenvalues ---    0.15997   0.16000   0.17998   0.18458   0.20203
     Eigenvalues ---    0.21719   0.22444   0.23322   0.23380   0.23776
     Eigenvalues ---    0.23979   0.24292   0.24979   0.24995   0.26219
     Eigenvalues ---    0.26577   0.28383   0.30834   0.31350   0.31555
     Eigenvalues ---    0.34839   0.35102   0.35849   0.35913   0.36006
     Eigenvalues ---    0.36114   0.36350   0.37598   0.38337   0.38494
     Eigenvalues ---    0.39449   0.39643   0.406041000.000001000.00000
     Eigenvalues --- 1000.000001000.000001000.000001000.000001000.00000
     Eigenvalues --- 1000.000001000.000001000.000001000.000001000.00000
     Eigenvalues --- 1000.000001000.000001000.000001000.000001000.00000
     Eigenvalues --- 1000.000001000.000001000.000001000.000001000.00000
     Eigenvalues --- 1000.000001000.000001000.000001000.000001000.00000
     Eigenvalues --- 1000.000001000.000001000.000001000.000001000.00000
     Eigenvalues --- 1000.000001000.000001000.000001000.000001000.00000
     Eigenvalues --- 1000.000001000.000001000.000001000.000001000.00000
     Eigenvalues --- 1000.000001000.000001000.000001000.000001000.00000
     Eigenvalues --- 1000.000001000.000001000.000001000.000001000.00000
     Eigenvalues --- 1000.00000
 RFO step:  Lambda=-1.95452159D-01 EMin= 2.30000000D-03
 Linear search not attempted -- first point.
 Maximum step size (   0.300) exceeded in Quadratic search.
    -- Step size scaled by   0.451
 Iteration  1 RMS(Cart)=  0.06158029 RMS(Int)=  0.00129932
 Iteration  2 RMS(Cart)=  0.00170525 RMS(Int)=  0.00005879
 Iteration  3 RMS(Cart)=  0.00000742 RMS(Int)=  0.00005859
 Iteration  4 RMS(Cart)=  0.00000000 RMS(Int)=  0.00005859
 Iteration  1 RMS(Cart)=  0.00000142 RMS(Int)=  0.00000070
 Iteration  2 RMS(Cart)=  0.00000077 RMS(Int)=  0.00000078
 Variable       Old X    -DE/DX   Delta X   Delta X   Delta X     New X
                                 (Linear)    (Quad)   (Total)
    R1        2.71917  -0.01971   0.00000  -0.01595  -0.01587   2.70330
    R2        2.71391  -0.08851   0.00000  -0.06742  -0.06739   2.64652
    R3        3.19503  -0.12434   0.00000  -0.14762  -0.14762   3.04742
    R4        2.75906  -0.09078   0.00000  -0.07275  -0.07271   2.68635
    R5        2.35064  -0.08126   0.00000  -0.08885  -0.08885   2.26179
    R6        3.39578  -0.02784   0.00000  -0.02634  -0.02639   3.36939
    R7        2.74954  -0.00818   0.00000  -0.00646  -0.00646   2.74307
    R8        3.28671  -0.01937   0.00000  -0.01643  -0.01649   3.27022
    R9        2.04073  -0.00320   0.00000  -0.00260  -0.00260   2.03813
   R10        3.38249  -0.02127   0.00000  -0.01972  -0.01976   3.36272
   R11        2.76705  -0.08526   0.00000  -0.06889  -0.06889   2.69816
   R12        3.26973  -0.00448   0.00000  -0.00335  -0.00336   3.26637
   R13        2.72267  -0.05448   0.00000  -0.04232  -0.04225   2.68042
   R14        2.69524   0.00121   0.00000   0.00016   0.00022   2.69545
   R15        2.70808  -0.01047   0.00000  -0.00868  -0.00864   2.69944
   R16        3.27295  -0.00283   0.00000  -0.00178  -0.00179   3.27116
   R17        2.03903  -0.00085   0.00000  -0.00069  -0.00069   2.03834
   R18        3.33582  -0.01837   0.00000  -0.01647  -0.01653   3.31929
   R19        2.72952  -0.07978   0.00000  -0.06186  -0.06187   2.66765
   R20        2.04218  -0.00310   0.00000  -0.00252  -0.00252   2.03966
   R21        2.05510  -0.00724   0.00000  -0.00598  -0.00598   2.04913
   R22        2.39943  -0.14066   0.00000  -0.15967  -0.15967   2.23976
    A1        1.97020   0.02325   0.00000   0.02209   0.02220   1.99241
    A2        2.13260   0.00237   0.00000   0.00371   0.00366   2.13626
    A3        2.16079  -0.02492   0.00000  -0.02438  -0.02446   2.13632
    A4        1.97187  -0.00339   0.00000  -0.00522  -0.00510   1.96677
    A5        1.96334   0.02372   0.00000   0.03069   0.03063   1.99397
    A6        2.34288  -0.02016   0.00000  -0.02503  -0.02510   2.31779
    A7        1.90440   0.00018   0.00000   0.00094   0.00093   1.90532
    A8        2.31891  -0.01370   0.00000  -0.01427  -0.01426   2.30465
    A9        2.05972   0.01355   0.00000   0.01334   0.01335   2.07307
   A10        1.95339  -0.01765   0.00000  -0.01899  -0.01901   1.93438
   A11        2.17580   0.01346   0.00000   0.01540   0.01540   2.19120
   A12        2.15384   0.00422   0.00000   0.00366   0.00367   2.15751
   A13        1.62490  -0.00238   0.00000   0.00119   0.00099   1.62589
   A14        2.12894  -0.00584   0.00000  -0.00584  -0.00585   2.12309
   A15        2.24035  -0.00265   0.00000  -0.00263  -0.00264   2.23771
   A16        1.91323   0.00858   0.00000   0.00858   0.00860   1.92183
   A17        1.61902  -0.00791   0.00000  -0.00620  -0.00621   1.61281
   A18        1.96203  -0.01147   0.00000  -0.01046  -0.01056   1.95147
   A19        2.23862   0.00857   0.00000   0.01181   0.01169   2.25031
   A20        1.96508   0.00723   0.00000   0.00695   0.00701   1.97209
   A21        1.96554   0.00890   0.00000   0.00812   0.00814   1.97368
   A22        1.96683  -0.01431   0.00000  -0.01315  -0.01322   1.95361
   A23        2.23794   0.00962   0.00000   0.01303   0.01293   2.25087
   A24        1.96426   0.00194   0.00000  -0.00001   0.00006   1.96433
   A25        2.16120  -0.00371   0.00000  -0.00309  -0.00315   2.15805
   A26        2.14574   0.00250   0.00000   0.00469   0.00463   2.15036
   A27        1.59306   0.00012   0.00000   0.00146   0.00142   1.59449
   A28        1.96007   0.00089   0.00000   0.00034   0.00031   1.96038
   A29        2.13498  -0.00378   0.00000  -0.00393  -0.00398   2.13100
   A30        2.17098   0.00419   0.00000   0.00629   0.00626   2.17724
   A31        1.93942   0.00607   0.00000   0.00441   0.00448   1.94390
   A32        2.16560  -0.00001   0.00000   0.00257   0.00247   2.16807
   A33        2.14124  -0.00379   0.00000  -0.00238  -0.00248   2.13876
   A34        2.33954  -0.06984   0.00000  -0.08865  -0.08865   2.25089
    D1        0.00683  -0.00110   0.00000  -0.00251  -0.00253   0.00431
    D2        3.05589  -0.00079   0.00000  -0.00015  -0.00006   3.05584
    D3       -2.93068  -0.00182   0.00000  -0.00698  -0.00713  -2.93781
    D4        0.11838  -0.00151   0.00000  -0.00462  -0.00466   0.11372
    D5       -0.00671   0.00166   0.00000   0.00329   0.00329  -0.00342
    D6       -3.13020  -0.00056   0.00000  -0.00078  -0.00077  -3.13096
    D7        2.92697   0.00623   0.00000   0.01179   0.01171   2.93869
    D8       -0.19651   0.00401   0.00000   0.00771   0.00765  -0.18886
    D9       -0.13323   0.00221   0.00000   0.00260   0.00256  -0.13067
   D10       -3.04818  -0.00471   0.00000  -0.00830  -0.00826  -3.05644
   D11       -0.00388   0.00027   0.00000   0.00081   0.00077  -0.00311
   D12        3.11762   0.00190   0.00000   0.00207   0.00203   3.11965
   D13       -3.02603  -0.00366   0.00000  -0.00669  -0.00668  -3.03271
   D14        0.09547  -0.00204   0.00000  -0.00543  -0.00541   0.09006
   D15        0.00006   0.00064   0.00000   0.00096   0.00098   0.00104
   D16       -3.12486  -0.00037   0.00000   0.00025   0.00025  -3.12461
   D17        0.34877  -0.00245   0.00000   0.00000  -0.00000   0.34877
   D18       -2.83639   0.00053   0.00000   0.00395   0.00395  -2.83244
   D19       -2.81432  -0.00087   0.00000   0.00121   0.00121  -2.81311
   D20        0.28370   0.00211   0.00000   0.00515   0.00516   0.28887
   D21        0.00376  -0.00132   0.00000  -0.00244  -0.00244   0.00132
   D22        3.12751   0.00098   0.00000   0.00172   0.00168   3.12919
   D23        3.13754   0.00147   0.00000   0.00213   0.00214   3.13967
   D24        0.03221  -0.00083   0.00000  -0.00096  -0.00098   0.03123
   D25       -3.13829  -0.00212   0.00000  -0.00311  -0.00310  -3.14139
   D26       -0.15849   0.00310   0.00000   0.00801   0.00801  -0.15048
   D27       -0.03593   0.00030   0.00000   0.00018   0.00022  -0.03571
   D28        2.94387   0.00552   0.00000   0.01130   0.01132   2.95519
   D29       -0.02093   0.00161   0.00000   0.00195   0.00194  -0.01899
   D30       -2.61649  -0.00882   0.00000  -0.01678  -0.01679  -2.63328
   D31        0.00353  -0.00126   0.00000  -0.00182  -0.00180   0.00173
   D32       -2.68869  -0.01182   0.00000  -0.02032  -0.02014  -2.70883
   D33        2.68772   0.00903   0.00000   0.01652   0.01642   2.70413
   D34       -0.00450  -0.00152   0.00000  -0.00198  -0.00193  -0.00643
   D35        2.61377   0.00692   0.00000   0.01579   0.01591   2.62968
   D36       -0.24498  -0.00099   0.00000  -0.00104  -0.00099  -0.24597
   D37        0.01897   0.00119   0.00000   0.00141   0.00139   0.02036
   D38       -2.83978  -0.00673   0.00000  -0.01543  -0.01551  -2.85529
   D39        0.02150   0.00067   0.00000   0.00105   0.00103   0.02253
   D40       -2.95995  -0.00383   0.00000  -0.00912  -0.00919  -2.96914
   D41        2.62773   0.00561   0.00000   0.01445   0.01458   2.64231
   D42       -0.35373   0.00110   0.00000   0.00428   0.00436  -0.34936
   D43       -0.00858   0.00145   0.00000   0.00179   0.00177  -0.00681
   D44       -2.61448  -0.00924   0.00000  -0.01689  -0.01687  -2.63135
   D45        0.01948  -0.00064   0.00000  -0.00089  -0.00089   0.01859
   D46        2.97103   0.00701   0.00000   0.01467   0.01462   2.98564
   D47       -0.02535  -0.00003   0.00000  -0.00000   0.00002  -0.02533
   D48        2.83803   0.00844   0.00000   0.01748   0.01750   2.85553
   D49       -2.97228  -0.00684   0.00000  -0.01460  -0.01463  -2.98691
   D50       -0.10890   0.00163   0.00000   0.00288   0.00285  -0.10605
         Item               Value     Threshold  Converged?
 Maximum Force            0.140665     0.000450     NO 
 RMS     Force            0.028758     0.000300     NO 
 Maximum Displacement     0.407614     0.001800     NO 
 RMS     Displacement     0.061074     0.001200     NO 
 Predicted change in Energy=-7.742736D-02
 GradGradGradGradGradGradGradGradGradGradGradGradGradGradGradGradGradGrad

                          Input orientation:                          
 ---------------------------------------------------------------------
 Center     Atomic      Atomic             Coordinates (Angstroms)
 Number     Number       Type             X           Y           Z
 ---------------------------------------------------------------------
      1          6           0       -4.224372   -1.368438   -0.226567
      2          6           0       -2.906992   -0.971297   -0.617963
      3          6           0       -1.984953   -2.053271   -0.616397
      4          6           0       -4.344547   -2.728935    0.083179
      5         16           0       -2.828430   -3.540466   -0.110533
      6          1           0       -5.252311   -3.224565    0.389039
      7          6           0       -0.576266   -2.130601   -0.957986
      8         16           0        0.457211   -0.682374   -0.991093
      9          6           0        1.850649   -1.597971   -1.446815
     10          6           0        1.560383   -2.982403   -1.551720
     11          6           0        0.196550   -3.292295   -1.261050
     12          1           0       -0.167313   -4.300479   -1.140032
     13         16           0        2.971423   -3.958198   -1.321012
     14          6           0        3.971321   -2.532199   -1.092974
     15          6           0        3.225132   -1.336323   -1.169553
     16          1           0        4.996351   -2.597542   -0.761283
     17          1           0        3.603836   -0.388106   -0.804469
     18          1           0       -2.822130    0.168944   -0.971782
     19          8           0       -5.506242   -0.406845   -0.407399
     20          1           0       -5.544300    0.729363   -0.742592
 ---------------------------------------------------------------------
                    Distance matrix (angstroms):
                    1          2          3          4          5
     1  C    0.000000
     2  C    1.430525   0.000000
     3  C    2.374017   1.421557   0.000000
     4  C    1.400478   2.376438   2.552178   0.000000
     5  S    2.584535   2.619978   1.783003   1.730526   0.000000
     6  H    2.209262   3.404672   3.613650   1.078534   2.494908
     7  C    3.797965   2.625240   1.451572   3.954993   2.788931
     8  S    4.792953   3.397141   2.825583   5.329104   4.442917
     9  C    6.200611   4.869791   3.950790   6.480773   5.239534
    10  C    6.150146   4.987372   3.782528   6.132319   4.652970
    11  C    4.931118   3.928430   2.590311   4.769265   3.245886
    12  H    5.088320   4.343022   2.937338   4.627664   2.952800
    13  S    7.725551   6.631110   5.356388   7.550249   5.939533
    14  C    8.323123   7.069175   5.994472   8.400935   6.943947
    15  C    7.509019   6.167694   5.288193   7.797997   6.528812
    16  H    9.317636   8.070194   7.003986   9.379912   7.908209
    17  H    7.910490   6.539555   5.834613   8.333318   7.196733
    18  H    2.210242   1.196888   2.401125   3.439244   3.808085
    19  O    1.612623   2.668154   3.892798   2.642405   4.132601
    20  H    2.531652   3.140569   4.519726   3.752483   5.099695
                    6          7          8          9         10
     6  H    0.000000
     7  C    4.987648   0.000000
     8  S    6.400480   1.779476   0.000000
     9  C    7.514534   2.532305   1.728488   0.000000
    10  C    7.087876   2.375574   2.611785   1.418418   0.000000
    11  C    5.693634   1.427804   2.636761   2.375140   1.428483
    12  H    5.417827   2.215570   3.674628   3.386715   2.211729
    13  S    8.431625   4.007243   4.142600   2.615842   1.731022
    14  C    9.367557   4.567281   3.972556   2.344191   2.495146
    15  C    8.823929   3.889251   2.849717   1.426372   2.372134
    16  H   10.332061   5.595604   4.931984   3.371132   3.546658
    17  H    9.375570   4.531348   3.165860   2.224870   3.385921
    18  H    4.390161   3.214344   3.388096   5.018218   5.428972
    19  O    2.939105   5.251585   5.998282   7.524827   7.607901
    20  H    4.123032   5.736475   6.170323   7.784452   8.056575
                   11         12         13         14         15
    11  C    0.000000
    12  H    1.078645   0.000000
    13  S    2.854286   3.162527   0.000000
    14  C    3.854205   4.500814   1.756494   0.000000
    15  C    3.606454   4.505084   2.638473   1.411659   0.000000
    16  H    4.875504   5.450401   2.503001   1.079340   2.212368
    17  H    4.500265   5.444340   3.662284   2.194406   1.084352
    18  H    4.601769   5.201163   7.121834   7.311760   6.234928
    19  O    6.447974   6.648405   9.236753   9.737112   8.813723
    20  H    7.028505   7.373551   9.737830  10.065167   9.019551
                   16         17         18         19         20
    16  H    0.000000
    17  H    2.612005   0.000000
    18  H    8.296168   6.452235   0.000000
    19  O   10.734470   9.118746   2.802591   0.000000
    20  H   11.053233   9.216342   2.788692   1.185230   0.000000
 Stoichiometry    C10H6OS3
 Framework group  C1[X(C10H6OS3)]
 Deg. of freedom    54
 Full point group                 C1      NOp   1
 Largest Abelian subgroup         C1      NOp   1
 Largest concise Abelian subgroup C1      NOp   1
                         Standard orientation:                         
 ---------------------------------------------------------------------
 Center     Atomic      Atomic             Coordinates (Angstroms)
 Number     Number       Type             X           Y           Z
 ---------------------------------------------------------------------
      1          6           0       -3.865392    0.311108    0.084271
      2          6           0       -2.573400    0.904661   -0.073377
      3          6           0       -1.521187   -0.049618   -0.018394
      4          6           0       -3.839983   -1.077386    0.265318
      5         16           0       -2.215041   -1.671966    0.237838
      6          1           0       -4.704889   -1.709098    0.392252
      7          6           0       -0.081618    0.081873   -0.150352
      8         16           0        0.738671    1.643403    0.084775
      9          6           0        2.293680    0.956279   -0.227441
     10          6           0        2.212763   -0.436685   -0.482415
     11          6           0        0.877179   -0.940061   -0.424182
     12          1           0        0.641422   -1.992534   -0.438097
     13         16           0        3.698498   -1.247717   -0.120117
     14          6           0        4.452831    0.262345    0.365647
     15          6           0        3.567895    1.358195    0.271936
     16          1           0        5.421459    0.292729    0.840843
     17          1           0        3.759296    2.306097    0.762514
     18          1           0       -2.597243    2.075547   -0.320354
     19          8           0       -5.229363    1.119290   -0.210649
     20          1           0       -5.375801    2.269142   -0.457972
 ---------------------------------------------------------------------
 Rotational constants (GHZ):           1.4286846           0.2349062           0.2040939
 Standard basis: Aug-CC-pVDZ (5D, 7F)
 There are   416 symmetry adapted cartesian basis functions of A   symmetry.
 There are   388 symmetry adapted basis functions of A   symmetry.
   388 basis functions,   782 primitive gaussians,   416 cartesian basis functions
    61 alpha electrons       61 beta electrons
       nuclear repulsion energy      1088.5125057860 Hartrees.
 NAtoms=   20 NActive=   20 NUniq=   20 SFac= 1.00D+00 NAtFMM=   60 NAOKFM=F Big=F
 Integral buffers will be    131072 words long.
 Raffenetti 1 integral format.
 Two-electron integral symmetry is turned on.
 One-electron integrals computed using PRISM.
 NBasis=   388 RedAO= T EigKep=  5.23D-06  NBF=   388
 NBsUse=   388 1.00D-06 EigRej= -1.00D+00 NBFU=   388
 Initial guess from the checkpoint file:  "/tmp/pbs.4766241[195].pbs/Gau-4075131.chk"
 B after Tr=     0.000000   -0.000000    0.000000
         Rot=    0.999996    0.000953    0.000225    0.002789 Ang=   0.34 deg.
 ExpMin= 2.97D-02 ExpMax= 1.11D+05 ExpMxC= 1.07D+03 IAcc=3 IRadAn=         5 AccDes= 0.00D+00
 Harris functional with IExCor=  205 and IRadAn=       5 diagonalized for initial guess.
 HarFok:  IExCor=  205 AccDes= 0.00D+00 IRadAn=         5 IDoV= 1 UseB2=F ITyADJ=14
 ICtDFT=  3500011 ScaDFX=  1.000000  1.000000  1.000000  1.000000
 FoFCou: FMM=F IPFlag=           0 FMFlag=      100000 FMFlg1=           0
         NFxFlg=           0 DoJE=T BraDBF=F KetDBF=T FulRan=T
         wScrn=  0.000000 ICntrl=       500 IOpCl=  0 I1Cent=   200000004 NGrid=           0
         NMat0=    1 NMatS0=      1 NMatT0=    0 NMatD0=    1 NMtDS0=    0 NMtDT0=    0
 Petite list used in FoFCou.
 Requested convergence on RMS density matrix=1.00D-08 within 128 cycles.
 Requested convergence on MAX density matrix=1.00D-06.
 Requested convergence on             energy=1.00D-06.
 No special actions if energy rises.
 SCF Done:  E(RHF) =  -1649.50463459     A.U. after   16 cycles
            NFock= 16  Conv=0.44D-08     -V/T= 2.0012
 Calling FoFJK, ICntrl=      2127 FMM=F ISym2X=0 I1Cent= 0 IOpClX= 0 NMat=1 NMatS=1 NMatT=0.
 ***** Axes restored to original set *****
 -------------------------------------------------------------------
 Center     Atomic                   Forces (Hartrees/Bohr)
 Number     Number              X              Y              Z
 -------------------------------------------------------------------
      1        6          -0.051632172    0.016995750   -0.019779928
      2        6           0.015993577    0.023571194   -0.017635200
      3        6          -0.048804514    0.024800383    0.004243625
      4        6          -0.010762331    0.058664983   -0.008930557
      5       16           0.002941776    0.024746904   -0.000758818
      6        1           0.003729914   -0.002700267   -0.002025429
      7        6           0.046829319   -0.034659860   -0.015717486
      8       16          -0.014801589   -0.008032488   -0.008087025
      9        6          -0.001310888   -0.042214786    0.010201477
     10        6          -0.005986716    0.039364918    0.018959769
     11        6          -0.028753296    0.047832785    0.012577648
     12        1          -0.003710167    0.001174913   -0.005770428
     13       16           0.011931981    0.010325775   -0.007154315
     14        6          -0.035909229    0.044701233    0.001449885
     15        6           0.029281251   -0.046548392    0.011728853
     16        1          -0.000110664   -0.003473658   -0.007054009
     17        1           0.001750739   -0.002095889   -0.010486480
     18        1           0.012427607   -0.064094858    0.017882400
     19        8           0.045323693    0.039425860   -0.010589227
     20        1           0.031571709   -0.127784499    0.036945247
 -------------------------------------------------------------------
 Cartesian Forces:  Max     0.127784499 RMS     0.030777860

 GradGradGradGradGradGradGradGradGradGradGradGradGradGradGradGradGradGrad
 Berny optimization.
 Using GEDIIS/GDIIS optimizer.
 FormGI is forming the generalized inverse of G from B-inverse, IUseBI=4.
 Internal  Forces:  Max     0.133961375 RMS     0.023801277
 Search for a local minimum.
 Step number   2 out of a maximum of  116
 All quantities printed in internal units (Hartrees-Bohrs-Radians)
 Mixed Optimization -- RFO/linear search
 Update second derivatives using D2CorX and points    1    2
 DE= -8.17D-02 DEPred=-7.74D-02 R= 1.06D+00
 TightC=F SS=  1.41D+00  RLast= 3.06D-01 DXNew= 5.0454D-01 9.1722D-01
 Trust test= 1.06D+00 RLast= 3.06D-01 DXMaxT set to 5.05D-01
 ITU=  1  0
 Use linear search instead of GDIIS.
 Linear search step of   0.600 exceeds DXMaxT=   0.505 but not scaled.
 Quartic linear search produced a step of  2.00000.
 Iteration  1 RMS(Cart)=  0.10777370 RMS(Int)=  0.01840653
 Iteration  2 RMS(Cart)=  0.02091111 RMS(Int)=  0.00037223
 Iteration  3 RMS(Cart)=  0.00018769 RMS(Int)=  0.00035480
 Iteration  4 RMS(Cart)=  0.00000009 RMS(Int)=  0.00035480
 Iteration  1 RMS(Cart)=  0.00000861 RMS(Int)=  0.00000439
 Iteration  2 RMS(Cart)=  0.00000469 RMS(Int)=  0.00000491
 Iteration  3 RMS(Cart)=  0.00000256 RMS(Int)=  0.00000554
 Iteration  4 RMS(Cart)=  0.00000139 RMS(Int)=  0.00000596
 Iteration  5 RMS(Cart)=  0.00000076 RMS(Int)=  0.00000621
 Variable       Old X    -DE/DX   Delta X   Delta X   Delta X     New X
                                 (Linear)    (Quad)   (Total)
    R1        2.70330  -0.00888  -0.03174   0.00000  -0.03123   2.67207
    R2        2.64652  -0.06146  -0.13479   0.00000  -0.13458   2.51193
    R3        3.04742  -0.11677  -0.29524   0.00000  -0.29524   2.75218
    R4        2.68635  -0.06361  -0.14542   0.00000  -0.14520   2.54116
    R5        2.26179  -0.06547  -0.17770   0.00000  -0.17770   2.08409
    R6        3.36939  -0.02054  -0.05278   0.00000  -0.05315   3.31624
    R7        2.74307  -0.00126  -0.01292   0.00000  -0.01292   2.73015
    R8        3.27022  -0.00905  -0.03298   0.00000  -0.03337   3.23685
    R9        2.03813  -0.00247  -0.00519   0.00000  -0.00519   2.03294
   R10        3.36272  -0.01481  -0.03953   0.00000  -0.03977   3.32295
   R11        2.69816  -0.06246  -0.13778   0.00000  -0.13779   2.56037
   R12        3.26637  -0.00063  -0.00672   0.00000  -0.00681   3.25956
   R13        2.68042  -0.03927  -0.08449   0.00000  -0.08403   2.59639
   R14        2.69545   0.00341   0.00043   0.00000   0.00075   2.69620
   R15        2.69944  -0.00351  -0.01728   0.00000  -0.01706   2.68239
   R16        3.27116   0.00034  -0.00358   0.00000  -0.00371   3.26745
   R17        2.03834  -0.00049  -0.00137   0.00000  -0.00137   2.03697
   R18        3.31929  -0.01223  -0.03305   0.00000  -0.03339   3.28590
   R19        2.66765  -0.05674  -0.12374   0.00000  -0.12376   2.54388
   R20        2.03966  -0.00206  -0.00504   0.00000  -0.00504   2.03461
   R21        2.04913  -0.00475  -0.01195   0.00000  -0.01195   2.03718
   R22        2.23976  -0.13396  -0.31934   0.00000  -0.31934   1.92042
    A1        1.99241   0.01348   0.04441   0.00000   0.04508   2.03749
    A2        2.13626   0.00450   0.00732   0.00000   0.00703   2.14328
    A3        2.13632  -0.01726  -0.04893   0.00000  -0.04943   2.08689
    A4        1.96677  -0.00183  -0.01020   0.00000  -0.00946   1.95732
    A5        1.99397   0.02002   0.06126   0.00000   0.06089   2.05486
    A6        2.31779  -0.01800  -0.05019   0.00000  -0.05059   2.26719
    A7        1.90532   0.00232   0.00185   0.00000   0.00181   1.90714
    A8        2.30465  -0.01197  -0.02852   0.00000  -0.02850   2.27615
    A9        2.07307   0.00967   0.02670   0.00000   0.02672   2.09979
   A10        1.93438  -0.01011  -0.03802   0.00000  -0.03814   1.89624
   A11        2.19120   0.00918   0.03080   0.00000   0.03084   2.22205
   A12        2.15751   0.00095   0.00733   0.00000   0.00737   2.16488
   A13        1.62589  -0.00385   0.00198   0.00000   0.00070   1.62659
   A14        2.12309  -0.00547  -0.01170   0.00000  -0.01177   2.11132
   A15        2.23771  -0.00161  -0.00528   0.00000  -0.00536   2.23236
   A16        1.92183   0.00717   0.01720   0.00000   0.01732   1.93914
   A17        1.61281  -0.00628  -0.01242   0.00000  -0.01251   1.60029
   A18        1.95147  -0.00785  -0.02113   0.00000  -0.02172   1.92975
   A19        2.25031   0.00693   0.02338   0.00000   0.02263   2.27294
   A20        1.97209   0.00481   0.01402   0.00000   0.01441   1.98650
   A21        1.97368   0.00546   0.01628   0.00000   0.01640   1.99008
   A22        1.95361  -0.00930  -0.02644   0.00000  -0.02687   1.92674
   A23        2.25087   0.00767   0.02586   0.00000   0.02522   2.27609
   A24        1.96433   0.00153   0.00013   0.00000   0.00057   1.96490
   A25        2.15805  -0.00249  -0.00631   0.00000  -0.00667   2.15138
   A26        2.15036   0.00162   0.00925   0.00000   0.00887   2.15923
   A27        1.59449  -0.00119   0.00284   0.00000   0.00260   1.59709
   A28        1.96038   0.00188   0.00062   0.00000   0.00050   1.96087
   A29        2.13100  -0.00422  -0.00795   0.00000  -0.00824   2.12276
   A30        2.17724   0.00349   0.01252   0.00000   0.01229   2.18953
   A31        1.94390   0.00381   0.00895   0.00000   0.00935   1.95326
   A32        2.16807  -0.00013   0.00495   0.00000   0.00433   2.17240
   A33        2.13876  -0.00173  -0.00496   0.00000  -0.00561   2.13315
   A34        2.25089  -0.06105  -0.17729   0.00000  -0.17729   2.07360
    D1        0.00431  -0.00077  -0.00505   0.00000  -0.00518  -0.00087
    D2        3.05584  -0.00014  -0.00011   0.00000   0.00041   3.05625
    D3       -2.93781  -0.00273  -0.01426   0.00000  -0.01512  -2.95293
    D4        0.11372  -0.00210  -0.00932   0.00000  -0.00953   0.10419
    D5       -0.00342   0.00132   0.00659   0.00000   0.00660   0.00318
    D6       -3.13096  -0.00059  -0.00153   0.00000  -0.00143  -3.13239
    D7        2.93869   0.00607   0.02343   0.00000   0.02298   2.96167
    D8       -0.18886   0.00417   0.01530   0.00000   0.01496  -0.17390
    D9       -0.13067   0.00168   0.00512   0.00000   0.00487  -0.12580
   D10       -3.05644  -0.00417  -0.01652   0.00000  -0.01627  -3.07271
   D11       -0.00311  -0.00005   0.00153   0.00000   0.00127  -0.00185
   D12        3.11965   0.00159   0.00407   0.00000   0.00381   3.12346
   D13       -3.03271  -0.00372  -0.01335   0.00000  -0.01324  -3.04594
   D14        0.09006  -0.00208  -0.01082   0.00000  -0.01070   0.07937
   D15        0.00104   0.00071   0.00196   0.00000   0.00206   0.00310
   D16       -3.12461  -0.00043   0.00049   0.00000   0.00048  -3.12413
   D17        0.34877  -0.00237  -0.00001   0.00000  -0.00000   0.34877
   D18       -2.83244   0.00050   0.00789   0.00000   0.00790  -2.82454
   D19       -2.81311  -0.00069   0.00243   0.00000   0.00248  -2.81063
   D20        0.28887   0.00218   0.01033   0.00000   0.01039   0.29925
   D21        0.00132  -0.00114  -0.00487   0.00000  -0.00483  -0.00351
   D22        3.12919   0.00080   0.00336   0.00000   0.00311   3.13231
   D23        3.13967   0.00137   0.00427   0.00000   0.00427  -3.13924
   D24        0.03123  -0.00090  -0.00196   0.00000  -0.00206   0.02917
   D25       -3.14139  -0.00180  -0.00620   0.00000  -0.00613   3.13567
   D26       -0.15048   0.00316   0.01601   0.00000   0.01602  -0.13446
   D27       -0.03571   0.00059   0.00043   0.00000   0.00064  -0.03507
   D28        2.95519   0.00555   0.02264   0.00000   0.02279   2.97798
   D29       -0.01899   0.00134   0.00388   0.00000   0.00381  -0.01518
   D30       -2.63328  -0.00800  -0.03358   0.00000  -0.03358  -2.66686
   D31        0.00173  -0.00089  -0.00359   0.00000  -0.00345  -0.00171
   D32       -2.70883  -0.01032  -0.04029   0.00000  -0.03923  -2.74807
   D33        2.70413   0.00831   0.03283   0.00000   0.03220   2.73633
   D34       -0.00643  -0.00112  -0.00387   0.00000  -0.00359  -0.01003
   D35        2.62968   0.00705   0.03181   0.00000   0.03247   2.66215
   D36       -0.24597  -0.00055  -0.00198   0.00000  -0.00166  -0.24763
   D37        0.02036   0.00066   0.00278   0.00000   0.00264   0.02301
   D38       -2.85529  -0.00694  -0.03101   0.00000  -0.03149  -2.88678
   D39        0.02253   0.00024   0.00205   0.00000   0.00192   0.02445
   D40       -2.96914  -0.00429  -0.01839   0.00000  -0.01879  -2.98793
   D41        2.64231   0.00630   0.02917   0.00000   0.02994   2.67225
   D42       -0.34936   0.00178   0.00873   0.00000   0.00923  -0.34013
   D43       -0.00681   0.00125   0.00353   0.00000   0.00338  -0.00344
   D44       -2.63135  -0.00821  -0.03373   0.00000  -0.03358  -2.66493
   D45        0.01859  -0.00078  -0.00178   0.00000  -0.00178   0.01681
   D46        2.98564   0.00649   0.02923   0.00000   0.02893   3.01457
   D47       -0.02533   0.00033   0.00005   0.00000   0.00020  -0.02512
   D48        2.85553   0.00805   0.03500   0.00000   0.03514   2.89068
   D49       -2.98691  -0.00625  -0.02926   0.00000  -0.02941  -3.01632
   D50       -0.10605   0.00147   0.00570   0.00000   0.00553  -0.10053
         Item               Value     Threshold  Converged?
 Maximum Force            0.133961     0.000450     NO 
 RMS     Force            0.023912     0.000300     NO 
 Maximum Displacement     0.735488     0.001800     NO 
 RMS     Displacement     0.118724     0.001200     NO 
 Predicted change in Energy=-1.207358D-01
 GradGradGradGradGradGradGradGradGradGradGradGradGradGradGradGradGradGrad

                          Input orientation:                          
 ---------------------------------------------------------------------
 Center     Atomic      Atomic             Coordinates (Angstroms)
 Number     Number       Type             X           Y           Z
 ---------------------------------------------------------------------
      1          6           0       -4.170598   -1.380598   -0.260453
      2          6           0       -2.857810   -1.011407   -0.634196
      3          6           0       -2.011379   -2.056053   -0.610837
      4          6           0       -4.367914   -2.658765    0.046604
      5         16           0       -2.882257   -3.496101   -0.113415
      6          1           0       -5.291878   -3.123026    0.343364
      7          6           0       -0.605477   -2.129840   -0.935262
      8         16           0        0.396387   -0.684825   -0.951873
      9          6           0        1.791706   -1.595456   -1.398034
     10          6           0        1.483945   -2.930477   -1.501679
     11          6           0        0.125861   -3.233861   -1.221640
     12          1           0       -0.254799   -4.237415   -1.122205
     13         16           0        2.908400   -3.893219   -1.318079
     14          6           0        3.894767   -2.476341   -1.110609
     15          6           0        3.174598   -1.339965   -1.157186
     16          1           0        4.933134   -2.546740   -0.834822
     17          1           0        3.571708   -0.393850   -0.826560
     18          1           0       -2.692630    0.025533   -0.971475
     19          8           0       -5.315667   -0.495523   -0.423339
     20          1           0       -5.155096    0.463929   -0.717305
 ---------------------------------------------------------------------
                    Distance matrix (angstroms):
                    1          2          3          4          5
     1  C    0.000000
     2  C    1.414001   0.000000
     3  C    2.289375   1.344722   0.000000
     4  C    1.329259   2.336170   2.519672   0.000000
     5  S    2.481289   2.538801   1.754878   1.712867   0.000000
     6  H    2.158222   3.367381   3.579191   1.075786   2.480747
     7  C    3.704972   2.532693   1.444733   3.924251   2.779537
     8  S    4.671136   3.285935   2.791757   5.252805   4.399522
     9  C    6.073658   4.747900   3.910918   6.415491   5.206595
    10  C    5.993048   4.825577   3.711537   6.059312   4.616377
    11  C    4.776821   3.766521   2.515572   4.704592   3.216474
    12  H    4.923159   4.173840   2.846999   4.558065   2.910453
    13  S    7.585779   6.482415   5.299018   7.505396   5.927953
    14  C    8.183735   6.926059   5.942135   8.345317   6.925487
    15  C    7.399843   6.063943   5.263614   7.750988   6.513361
    16  H    9.196070   7.943318   6.965429   9.343390   7.905824
    17  H    7.825435   6.461971   5.829263   8.302400   7.196263
    18  H    2.160357   1.102853   2.219721   3.323930   3.629618
    19  O    1.456390   2.520250   3.659062   2.408048   3.875693
    20  H    2.140148   2.731492   4.030460   3.309748   4.605683
                    6          7          8          9         10
     6  H    0.000000
     7  C    4.958191   0.000000
     8  S    6.322882   1.758431   0.000000
     9  C    7.452725   2.499243   1.724884   0.000000
    10  C    7.025173   2.308145   2.554999   1.373950   0.000000
    11  C    5.640339   1.354891   2.577508   2.343188   1.419457
    12  H    5.363014   2.144713   3.615792   3.353239   2.208013
    13  S    8.402271   3.950112   4.091224   2.555996   1.729061
    14  C    9.323449   4.516969   3.933623   2.298138   2.484197
    15  C    8.781354   3.868090   2.861785   1.426770   2.346637
    16  H   10.308788   5.555187   4.905354   3.330273   3.533957
    17  H    9.347742   4.524860   3.191086   2.222351   3.353954
    18  H    4.289326   3.000525   3.169703   4.787361   5.144209
    19  O    2.737183   5.011880   5.739577   7.257729   7.302503
    20  H    3.742991   5.241582   5.673943   7.277536   7.497607
                   11         12         13         14         15
    11  C    0.000000
    12  H    1.077919   0.000000
    13  S    2.861220   3.187894   0.000000
    14  C    3.845884   4.507817   1.738824   0.000000
    15  C    3.589679   4.489677   2.572130   1.346166   0.000000
    16  H    4.871513   5.464030   2.479131   1.076671   2.157006
    17  H    4.482813   5.431625   3.595435   2.126457   1.078028
    18  H    4.316262   4.913090   6.844581   7.047874   6.026892
    19  O    6.143778   6.332657   8.943163   9.446061   8.563656
    20  H    6.466569   6.802903   9.185077   9.523650   8.534127
                   16         17         18         19         20
    16  H    0.000000
    17  H    2.547250   0.000000
    18  H    8.049070   6.280033   0.000000
    19  O   10.460149   8.897098   2.729886   0.000000
    20  H   10.528548   8.769540   2.514067   1.016242   0.000000
 Stoichiometry    C10H6OS3
 Framework group  C1[X(C10H6OS3)]
 Deg. of freedom    54
 Full point group                 C1      NOp   1
 Largest Abelian subgroup         C1      NOp   1
 Largest concise Abelian subgroup C1      NOp   1
                         Standard orientation:                         
 ---------------------------------------------------------------------
 Center     Atomic      Atomic             Coordinates (Angstroms)
 Number     Number       Type             X           Y           Z
 ---------------------------------------------------------------------
      1          6           0       -3.776175    0.343265    0.055121
      2          6           0       -2.480811    0.890079   -0.094625
      3          6           0       -1.522016   -0.049764   -0.019241
      4          6           0       -3.852907   -0.970772    0.240448
      5         16           0       -2.266616   -1.616978    0.243449
[...]
 ---------------------------------------------------------------------
      1          6           0       -3.823095    0.406811   -0.150545
      2          6           0       -2.466536    0.874658   -0.213654
      3          6           0       -1.560453   -0.110037   -0.000339
      4          6           0       -3.921565   -0.911349    0.109231
      5         16           0       -2.352033   -1.627485    0.301749
      6          1           0       -4.817844   -1.497908    0.201402
      7          6           0       -0.100377   -0.000255    0.010725
      8         16           0        0.667431    1.564596    0.250796
      9          6           0        2.241602    0.844946    0.104888
     10          6           0        2.148821   -0.500306   -0.099524
     11          6           0        0.805876   -0.992572   -0.157778
     12          1           0        0.537558   -2.021570   -0.332681
     13         16           0        3.722550   -1.221410   -0.239645
     14          6           0        4.474932    0.335370   -0.013189
     15          6           0        3.587246    1.337855    0.156883
     16          1           0        5.548945    0.412212   -0.019950
     17          1           0        3.865115    2.367657    0.310893
     18          1           0       -2.200092    1.898415   -0.430699
     19          8           0       -4.902160    1.198718   -0.339110
     20          1           0       -4.642268    2.089510   -0.502673
 ---------------------------------------------------------------------
 Rotational constants (GHZ):           1.5203574           0.2399135           0.2091169

 **********************************************************************

            Population analysis using the SCF Density.

 **********************************************************************

 Orbital symmetries:
       Occupied  (A) (A) (A) (A) (A) (A) (A) (A) (A) (A) (A) (A)
                 (A) (A) (A) (A) (A) (A) (A) (A) (A) (A) (A) (A)
                 (A) (A) (A) (A) (A) (A) (A) (A) (A) (A) (A) (A)
                 (A) (A) (A) (A) (A) (A) (A) (A) (A) (A) (A) (A)
                 (A) (A) (A) (A) (A) (A) (A) (A) (A) (A) (A) (A)
                 (A)
       Virtual   (A) (A) (A) (A) (A) (A) (A) (A) (A) (A) (A) (A)
                 (A) (A) (A) (A) (A) (A) (A) (A) (A) (A) (A) (A)
                 (A) (A) (A) (A) (A) (A) (A) (A) (A) (A) (A) (A)
                 (A) (A) (A) (A) (A) (A) (A) (A) (A) (A) (A) (A)
                 (A) (A) (A) (A) (A) (A) (A) (A) (A) (A) (A) (A)
                 (A) (A) (A) (A) (A) (A) (A) (A) (A) (A) (A) (A)
                 (A) (A) (A) (A) (A) (A) (A) (A) (A) (A) (A) (A)
                 (A) (A) (A) (A) (A) (A) (A) (A) (A) (A) (A) (A)
                 (A) (A) (A) (A) (A) (A) (A) (A) (A) (A) (A) (A)
                 (A) (A) (A) (A) (A) (A) (A) (A) (A) (A) (A) (A)
                 (A) (A) (A) (A) (A) (A) (A) (A) (A) (A) (A) (A)
                 (A) (A) (A) (A) (A) (A) (A) (A) (A) (A) (A) (A)
                 (A) (A) (A) (A) (A) (A) (A) (A) (A) (A) (A) (A)
                 (A) (A) (A) (A) (A) (A) (A) (A) (A) (A) (A) (A)
                 (A) (A) (A) (A) (A) (A) (A) (A) (A) (A) (A) (A)
                 (A) (A) (A) (A) (A) (A) (A) (A) (A) (A) (A) (A)
                 (A) (A) (A) (A) (A) (A) (A) (A) (A) (A) (A) (A)
                 (A) (A) (A) (A) (A) (A) (A) (A) (A) (A) (A) (A)
                 (A) (A) (A) (A) (A) (A) (A) (A) (A) (A) (A) (A)
                 (A) (A) (A) (A) (A) (A) (A) (A) (A) (A) (A) (A)
                 (A) (A) (A) (A) (A) (A) (A) (A) (A) (A) (A) (A)
                 (A) (A) (A) (A) (A) (A) (A) (A) (A) (A) (A) (A)
                 (A) (A) (A) (A) (A) (A) (A) (A) (A) (A) (A) (A)
                 (A) (A) (A) (A) (A) (A) (A) (A) (A) (A) (A) (A)
                 (A) (A) (A) (A) (A) (A) (A) (A) (A) (A) (A) (A)
                 (A) (A) (A) (A) (A) (A) (A) (A) (A) (A) (A) (A)
                 (A) (A) (A) (A) (A) (A) (A) (A) (A) (A) (A) (A)
                 (A) (A) (A)
 The electronic state is 1-A.
 Alpha  occ. eigenvalues --  -91.99631 -91.99489 -91.98934 -20.60753 -11.31433
 Alpha  occ. eigenvalues --  -11.29693 -11.29612 -11.28229 -11.27890 -11.27729
 Alpha  occ. eigenvalues --  -11.26395 -11.26246 -11.25639 -11.25421  -8.99821
 Alpha  occ. eigenvalues --   -8.99671  -8.99147  -6.67990  -6.67911  -6.67837
 Alpha  occ. eigenvalues --   -6.67759  -6.67698  -6.67552  -6.67321  -6.67230
 Alpha  occ. eigenvalues --   -6.67026  -1.42645  -1.22393  -1.18731  -1.13332
 Alpha  occ. eigenvalues --   -1.03209  -1.02949  -0.99310  -0.95992  -0.95139
 Alpha  occ. eigenvalues --   -0.84434  -0.78727  -0.78078  -0.75237  -0.73016
 Alpha  occ. eigenvalues --   -0.71521  -0.67582  -0.66274  -0.61281  -0.60706
 Alpha  occ. eigenvalues --   -0.58608  -0.57547  -0.56808  -0.54766  -0.53557
 Alpha  occ. eigenvalues --   -0.53102  -0.51838  -0.50425  -0.48080  -0.47038
 Alpha  occ. eigenvalues --   -0.46628  -0.39669  -0.36236  -0.33523  -0.32798
 Alpha  occ. eigenvalues --   -0.28435
 Alpha virt. eigenvalues --    0.03125   0.03343   0.04323   0.04717   0.04979
 Alpha virt. eigenvalues --    0.05515   0.06697   0.08297   0.08752   0.09371
 Alpha virt. eigenvalues --    0.09937   0.10551   0.10633   0.11008   0.11685
 Alpha virt. eigenvalues --    0.12164   0.12651   0.12971   0.13243   0.13532
 Alpha virt. eigenvalues --    0.13765   0.14026   0.14468   0.14848   0.15146
 Alpha virt. eigenvalues --    0.15541   0.15838   0.15973   0.16705   0.16980
 Alpha virt. eigenvalues --    0.17587   0.17883   0.18517   0.19043   0.19209
 Alpha virt. eigenvalues --    0.19328   0.20101   0.20343   0.21082   0.21512
 Alpha virt. eigenvalues --    0.22129   0.22290   0.22768   0.22984   0.23022
 Alpha virt. eigenvalues --    0.24253   0.24527   0.25348   0.25484   0.25733
 Alpha virt. eigenvalues --    0.26586   0.26807   0.27250   0.27574   0.27915
 Alpha virt. eigenvalues --    0.28556   0.29124   0.29768   0.30600   0.31166
 Alpha virt. eigenvalues --    0.31477   0.31710   0.32147   0.32802   0.33398
 Alpha virt. eigenvalues --    0.33797   0.34386   0.34948   0.35194   0.35938
 Alpha virt. eigenvalues --    0.36579   0.37733   0.38001   0.38645   0.39070
 Alpha virt. eigenvalues --    0.39930   0.40371   0.41024   0.41501   0.41698
 Alpha virt. eigenvalues --    0.42454   0.43323   0.43738   0.44105   0.44762
 Alpha virt. eigenvalues --    0.44968   0.45887   0.46110   0.47002   0.47683
 Alpha virt. eigenvalues --    0.48385   0.48648   0.49072   0.49724   0.51672
 Alpha virt. eigenvalues --    0.52730   0.53485   0.54484   0.54758   0.55143
 Alpha virt. eigenvalues --    0.55660   0.57282   0.57963   0.59301   0.60065
 Alpha virt. eigenvalues --    0.60335   0.60824   0.62088   0.62437   0.62748
 Alpha virt. eigenvalues --    0.64182   0.64336   0.64608   0.65090   0.65373
 Alpha virt. eigenvalues --    0.66054   0.66340   0.67608   0.67792   0.67865
 Alpha virt. eigenvalues --    0.68727   0.68978   0.69298   0.70244   0.70950
 Alpha virt. eigenvalues --    0.71482   0.71672   0.72418   0.73343   0.73915
 Alpha virt. eigenvalues --    0.74029   0.74363   0.74706   0.75439   0.76916
 Alpha virt. eigenvalues --    0.77630   0.78276   0.78578   0.79048   0.80283
 Alpha virt. eigenvalues --    0.81813   0.82599   0.82858   0.83714   0.84803
 Alpha virt. eigenvalues --    0.85274   0.86400   0.86782   0.87248   0.88096
 Alpha virt. eigenvalues --    0.88992   0.89665   0.90228   0.91347   0.91972
 Alpha virt. eigenvalues --    0.92271   0.92866   0.93398   0.94455   0.95116
 Alpha virt. eigenvalues --    0.96195   0.96710   0.97203   0.97771   0.98575
 Alpha virt. eigenvalues --    0.99370   0.99877   1.00409   1.02253   1.03413
 Alpha virt. eigenvalues --    1.04233   1.04667   1.05769   1.07304   1.08033
 Alpha virt. eigenvalues --    1.08580   1.09546   1.10846   1.11865   1.12406
 Alpha virt. eigenvalues --    1.13663   1.15558   1.16486   1.17253   1.19707
 Alpha virt. eigenvalues --    1.20136   1.21057   1.21695   1.22236   1.23353
 Alpha virt. eigenvalues --    1.24407   1.24622   1.25794   1.26706   1.27840
 Alpha virt. eigenvalues --    1.28400   1.29287   1.30331   1.30622   1.31766
 Alpha virt. eigenvalues --    1.32738   1.34712   1.35601   1.36263   1.37471
 Alpha virt. eigenvalues --    1.38616   1.39591   1.40624   1.41579   1.42415
 Alpha virt. eigenvalues --    1.43859   1.44378   1.46842   1.49383   1.50539
 Alpha virt. eigenvalues --    1.53532   1.53883   1.55250   1.56044   1.56629
 Alpha virt. eigenvalues --    1.57048   1.57881   1.59781   1.61270   1.61713
 Alpha virt. eigenvalues --    1.63922   1.64522   1.65238   1.66451   1.66618
 Alpha virt. eigenvalues --    1.68804   1.70161   1.70403   1.71567   1.72542
 Alpha virt. eigenvalues --    1.74014   1.74532   1.76000   1.77147   1.78860
 Alpha virt. eigenvalues --    1.80091   1.80914   1.81651   1.82573   1.83016
 Alpha virt. eigenvalues --    1.84054   1.85734   1.86342   1.87972   1.88505
 Alpha virt. eigenvalues --    1.89838   1.92805   1.94326   1.95408   1.97622
 Alpha virt. eigenvalues --    1.98945   1.99068   2.01504   2.01822   2.02770
 Alpha virt. eigenvalues --    2.04290   2.06137   2.08626   2.09540   2.11122
 Alpha virt. eigenvalues --    2.11532   2.12962   2.14046   2.14935   2.17309
 Alpha virt. eigenvalues --    2.18351   2.20406   2.20999   2.21871   2.23338
 Alpha virt. eigenvalues --    2.25809   2.26968   2.27915   2.30400   2.31701
 Alpha virt. eigenvalues --    2.31745   2.33362   2.34468   2.36814   2.37396
 Alpha virt. eigenvalues --    2.37745   2.39882   2.40652   2.43438   2.45690
 Alpha virt. eigenvalues --    2.48034   2.48240   2.51392   2.51838   2.56102
 Alpha virt. eigenvalues --    2.56294   2.57886   2.60125   2.61114   2.64886
 Alpha virt. eigenvalues --    2.76107   2.76203   2.82753   2.87041   2.89499
 Alpha virt. eigenvalues --    2.91524   2.92765   3.00053   3.04256   3.07701
 Alpha virt. eigenvalues --    3.14964   3.16724   3.25939   3.29899   3.35450
 Alpha virt. eigenvalues --    3.39863   3.49243   3.53710   3.67535   3.74849
 Alpha virt. eigenvalues --    3.76458   3.80212   3.85538   3.86620   4.16060
 Alpha virt. eigenvalues --    4.26299   4.44424
          Condensed to atoms (all electrons):
               1          2          3          4          5          6
     1  C    6.886484  -0.661957  -0.765482   0.187057  -0.157920   0.266598
     2  C   -0.661957  12.319278  -2.743213   0.090350  -0.781411   0.096015
     3  C   -0.765482  -2.743213  12.768539  -1.518049   0.102468   0.028476
     4  C    0.187057   0.090350  -1.518049   7.233599   0.231547  -0.178622
     5  S   -0.157920  -0.781411   0.102468   0.231547  16.296669  -0.111183
     6  H    0.266598   0.096015   0.028476  -0.178622  -0.111183   1.305176
     7  C    0.296474  -0.935655  -2.311208   0.271603  -0.185983  -0.013846
     8  S   -0.052357   0.239907  -0.562649   0.057436  -0.015109  -0.001116
     9  C    0.023503  -0.092395   0.081543   0.010894   0.032226  -0.001353
    10  C   -0.053800   0.119900  -0.049953  -0.013142  -0.088288   0.002838
    11  C   -0.049178  -1.023867   0.186128  -0.324585   0.152745   0.007011
    12  H   -0.011768   0.055791   0.009266   0.007453  -0.028447   0.003070
    13  S    0.000117  -0.008721  -0.067566   0.000299   0.014769  -0.000094
    14  C   -0.000759  -0.008983   0.031412   0.000281   0.001326   0.000008
    15  C   -0.001736   0.011987  -0.396762  -0.003066   0.017668  -0.000263
    16  H    0.000012  -0.000030  -0.000341  -0.000035   0.000080  -0.000001
    17  H    0.000005   0.002009  -0.007634   0.000040   0.000355  -0.000004
    18  H   -0.067657  -0.783627   0.609239  -0.065014   0.043061   0.000158
    19  O   -0.195366  -0.091158   0.069802  -0.084389  -0.012354  -0.008040
    20  H   -0.049503  -0.035240  -0.054928   0.018136   0.004680  -0.007230
               7          8          9         10         11         12
     1  C    0.296474  -0.052357   0.023503  -0.053800  -0.049178  -0.011768
     2  C   -0.935655   0.239907  -0.092395   0.119900  -1.023867   0.055791
     3  C   -2.311208  -0.562649   0.081543  -0.049953   0.186128   0.009266
     4  C    0.271603   0.057436   0.010894  -0.013142  -0.324585   0.007453
     5  S   -0.185983  -0.015109   0.032226  -0.088288   0.152745  -0.028447
     6  H   -0.013846  -0.001116  -0.001353   0.002838   0.007011   0.003070
     7  C   13.527344   0.217126  -0.800792   0.080239  -4.990433   0.809936
     8  S    0.217126  16.750129   0.166062  -0.396497  -0.927047   0.053953
     9  C   -0.800792   0.166062  11.434539  -1.448060  -0.216359  -0.149470
    10  C    0.080239  -0.396497  -1.448060  13.571256  -3.947294   0.557148
    11  C   -4.990433  -0.927047  -0.216359  -3.947294  18.818994  -1.533885
    12  H    0.809936   0.053953  -0.149470   0.557148  -1.533885   1.800190
    13  S   -0.396371   0.159185   0.167239  -0.580353   0.121376  -0.061180
    14  C    0.059182  -0.128758  -0.048981  -1.149319   0.050577   0.012367
    15  C   -0.028164  -0.120012  -3.184921  -0.437398  -0.633938  -0.033680
    16  H    0.000244   0.015934   0.123874  -0.111751   0.032659   0.002140
    17  H    0.072051   0.054238   0.571514   0.065272  -0.055404   0.000384
    18  H    0.053404   0.000341   0.010630   0.008175   0.000590   0.007283
    19  O    0.009203  -0.000812   0.000185   0.001483   0.000448   0.000058
    20  H    0.002240   0.003207   0.002105  -0.001450  -0.001834  -0.000054
              13         14         15         16         17         18
     1  C    0.000117  -0.000759  -0.001736   0.000012   0.000005  -0.067657
     2  C   -0.008721  -0.008983   0.011987  -0.000030   0.002009  -0.783627
     3  C   -0.067566   0.031412  -0.396762  -0.000341  -0.007634   0.609239
     4  C    0.000299   0.000281  -0.003066  -0.000035   0.000040  -0.065014
     5  S    0.014769   0.001326   0.017668   0.000080   0.000355   0.043061
     6  H   -0.000094   0.000008  -0.000263  -0.000001  -0.000004   0.000158
     7  C   -0.396371   0.059182  -0.028164   0.000244   0.072051   0.053404
     8  S    0.159185  -0.128758  -0.120012   0.015934   0.054238   0.000341
     9  C    0.167239  -0.048981  -3.184921   0.123874   0.571514   0.010630
    10  C   -0.580353  -1.149319  -0.437398  -0.111751   0.065272   0.008175
    11  C    0.121376   0.050577  -0.633938   0.032659  -0.055404   0.000590
    12  H   -0.061180   0.012367  -0.033680   0.002140   0.000384   0.007283
    13  S   16.116387   0.209784  -0.083012  -0.141358  -0.003028   0.000018
    14  C    0.209784   6.982346   0.052628   0.217722  -0.125721   0.000611
    15  C   -0.083012   0.052628  10.994217   0.005099  -0.595570  -0.002670
    16  H   -0.141358   0.217722   0.005099   1.305582  -0.070842   0.000082
    17  H   -0.003028  -0.125721  -0.595570  -0.070842   1.417565   0.001454
    18  H    0.000018   0.000611  -0.002670   0.000082   0.001454   1.854394
    19  O    0.000034  -0.000022   0.000100  -0.000001   0.000040  -0.067265
    20  H    0.000003  -0.000026   0.000302  -0.000001  -0.000009  -0.013004
              19         20
     1  C   -0.195366  -0.049503
     2  C   -0.091158  -0.035240
     3  C    0.069802  -0.054928
     4  C   -0.084389   0.018136
     5  S   -0.012354   0.004680
     6  H   -0.008040  -0.007230
     7  C    0.009203   0.002240
     8  S   -0.000812   0.003207
     9  C    0.000185   0.002105
    10  C    0.001483  -0.001450
    11  C    0.000448  -0.001834
    12  H    0.000058  -0.000054
    13  S    0.000034   0.000003
    14  C   -0.000022  -0.000026
    15  C    0.000100   0.000302
    16  H   -0.000001  -0.000001
    17  H    0.000040  -0.000009
    18  H   -0.067265  -0.013004
    19  O    8.883981   0.343213
    20  H    0.343213   0.655123
 Mulliken charges:
               1
     1  C    0.407234
     2  C    0.231017
     3  C    0.590912
     4  C    0.078206
     5  S    0.483102
     6  H   -0.387601
     7  C    0.263405
     8  S    0.486840
     9  C   -0.681985
    10  C   -0.129008
    11  C    0.333298
    12  H   -0.500553
    13  S    0.552472
    14  C   -0.155674
    15  C    0.439192
    16  H   -0.379069
    17  H   -0.326719
    18  H   -0.590204
    19  O   -0.849140
    20  H    0.134272
 Sum of Mulliken charges =  -0.00000
 Mulliken charges with hydrogens summed into heavy atoms:
               1
     1  C    0.407234
     2  C   -0.359187
     3  C    0.590912
     4  C   -0.309395
     5  S    0.483102
     7  C    0.263405
     8  S    0.486840
     9  C   -0.681985
    10  C   -0.129008
    11  C   -0.167255
    13  S    0.552472
    14  C   -0.534742
    15  C    0.112474
    19  O   -0.714868
 Electronic spatial extent (au):  <R**2>=           4765.4765
 Charge=              0.0000 electrons
 Dipole moment (field-independent basis, Debye):
    X=              1.1808    Y=              1.7956    Z=             -0.3839  Tot=              2.1831
 Quadrupole moment (field-independent basis, Debye-Ang):
   XX=            -96.2630   YY=            -93.2297   ZZ=           -110.0179
   XY=              0.2230   XZ=              1.2862   YZ=             -0.7965
 Traceless Quadrupole moment (field-independent basis, Debye-Ang):
   XX=              3.5739   YY=              6.6071   ZZ=            -10.1810
   XY=              0.2230   XZ=              1.2862   YZ=             -0.7965
 Octapole moment (field-independent basis, Debye-Ang**2):
  XXX=             73.8510  YYY=             22.9302  ZZZ=             -1.9666  XYY=            -28.4781
  XXY=             27.1065  XXZ=              1.3829  XZZ=            -10.4081  YZZ=              2.6942
  YYZ=             -3.4757  XYZ=             10.6894
 Hexadecapole moment (field-independent basis, Debye-Ang**3):
 XXXX=          -5247.0727 YYYY=           -869.7650 ZZZZ=           -167.5812 XXXY=             90.9242
 XXXZ=             -1.9690 YYYX=            -61.7563 YYYZ=             -7.3246 ZZZX=              9.1114
 ZZZY=             -3.3432 XXYY=           -909.5992 XXZZ=          -1012.1767 YYZZ=           -193.8441
 XXYZ=            -23.3598 YYXZ=             20.3311 ZZXY=            -18.3543
 N-N= 1.109253347786D+03 E-N=-6.125309954395D+03  KE= 1.649588669175D+03
 Unable to Open any file for archive entry.
 1\1\GINC-CX3-12-29\FOpt\RHF\Aug-CC-pVDZ\C10H6O1S3\NS5018\27-Oct-2021\0
 \\# opt=modredundant hf/aug-cc-pvdz\\pg2T_TT_20.pdb\\0,1\C,-4.26509829
 27,-1.3378657158,-0.427521066\C,-2.8829392717,-1.0381083478,-0.6783124
 592\C,-2.0779103612,-2.1199202149,-0.5451759773\C,-4.4821023823,-2.628
 7740666,-0.1094142665\S,-2.9951648997,-3.5243184218,-0.0904039197\H,-5
 .421107219,-3.1011236976,0.1164575601\C,-0.6259597556,-2.1864238515,-0
 .7224141994\S,0.3436803285,-0.7205890098,-0.6384570561\C,1.7909141813,
 -1.6273757874,-0.9553978855\C,1.5161921255,-2.9557280007,-1.0971863747
 \C,0.1288614607,-3.2839407713,-0.9675316858\H,-0.2780070775,-4.2766579
 314,-1.0694763448\S,2.9635710353,-3.863782067,-1.4082813788\C,3.915315
 4985,-2.4043910757,-1.3355794472\C,3.1801670643,-1.2989836603,-1.09162
 00824\H,4.9809642248,-2.4575097229,-1.480581305\H,3.5938258202,-0.3070
 613831,-1.0116229707\H,-2.529325535,-0.0587014918,-0.9644927193\O,-5.2
 59732786,-0.4260541573,-0.5072553356\H,-4.9211441583,0.4233093748,-0.7
 347330863\\Version=ES64L-G16RevC.01\State=1-A\HF=-1649.6440148\RMSD=8.
 884e-09\RMSF=2.190e-04\Dipole=0.5202624,0.6420507,-0.2341296\Quadrupol
 e=2.7802338,4.804449,-7.5846828,0.3199931,-0.4797674,-1.0161884\PG=C01
  [X(C10H6O1S3)]\\@
 The archive entry for this job was punched.


    THE DOUGHNUT CREED
 AS YOU RAMBLE ON THROUGH LIFE, BROTHER
 WHATEVER BE YOUR GOAL
 KEEP YOUR EYE UPON THE DOUGHNUT
 AND NOT UPON THE HOLE.
 Job cpu time:       0 days  4 hours 46 minutes 44.5 seconds.
 Elapsed time:       0 days  0 hours 36 minutes  5.4 seconds.
 File lengths (MBytes):  RWF=     95 Int=      0 D2E=      0 Chk=     12 Scr=      1
 Normal termination of Gaussian 16 at Wed Oct 27 03:16:06 2021.
