 Entering Gaussian System, Link 0=g16
 Input=pg2T_TT_-90.gjf
 Output=pg2T_TT_-90.log
 Initial command:
 /apps/gaussian/g16-c01-avx/g16/l1.exe "/tmp/pbs.4766241[85].pbs/Gau-1087665.inp" -scrdir="/tmp/pbs.4766241[85].pbs/"
 Entering Link 1 = /apps/gaussian/g16-c01-avx/g16/l1.exe PID=   1087666.
  
 Copyright (c) 1988-2019, Gaussian, Inc.  All Rights Reserved.
  
 This is part of the Gaussian(R) 16 program.  It is based on
 the Gaussian(R) 09 system (copyright 2009, Gaussian, Inc.),
 the Gaussian(R) 03 system (copyright 2003, Gaussian, Inc.),
 the Gaussian(R) 98 system (copyright 1998, Gaussian, Inc.),
 the Gaussian(R) 94 system (copyright 1995, Gaussian, Inc.),
 the Gaussian 92(TM) system (copyright 1992, Gaussian, Inc.),
 the Gaussian 90(TM) system (copyright 1990, Gaussian, Inc.),
 the Gaussian 88(TM) system (copyright 1988, Gaussian, Inc.),
 the Gaussian 86(TM) system (copyright 1986, Carnegie Mellon
 University), and the Gaussian 82(TM) system (copyright 1983,
 Carnegie Mellon University). Gaussian is a federally registered
 trademark of Gaussian, Inc.
  
 This software contains proprietary and confidential information,
 including trade secrets, belonging to Gaussian, Inc.
  
 This software is provided under written license and may be
 used, copied, transmitted, or stored only in accord with that
 written license.
  
 The following legend is applicable only to US Government
 contracts under FAR:
  
                    RESTRICTED RIGHTS LEGEND
  
 Use, reproduction and disclosure by the US Government is
 subject to restrictions as set forth in subparagraphs (a)
 and (c) of the Commercial Computer Software - Restricted
 Rights clause in FAR 52.227-19.
  
 Gaussian, Inc.
 340 Quinnipiac St., Bldg. 40, Wallingford CT 06492
  
  
 ---------------------------------------------------------------
 Warning -- This program may not be used in any manner that
 competes with the business of Gaussian, Inc. or will provide
 assistance to any competitor of Gaussian, Inc.  The licensee
 of this program is prohibited from giving any competitor of
 Gaussian, Inc. access to this program.  By using this program,
 the user acknowledges that Gaussian, Inc. is engaged in the
 business of creating and licensing software in the field of
 computational chemistry and represents and warrants to the
 licensee that it is not a competitor of Gaussian, Inc. and that
 it will not use this program in any manner prohibited above.
 ---------------------------------------------------------------
  

 Cite this work as:
 Gaussian 16, Revision C.01,
 M. J. Frisch, G. W. Trucks, H. B. Schlegel, G. E. Scuseria, 
 M. A. Robb, J. R. Cheeseman, G. Scalmani, V. Barone, 
 G. A. Petersson, H. Nakatsuji, X. Li, M. Caricato, A. V. Marenich, 
 J. Bloino, B. G. Janesko, R. Gomperts, B. Mennucci, H. P. Hratchian, 
 J. V. Ortiz, A. F. Izmaylov, J. L. Sonnenberg, D. Williams-Young, 
 F. Ding, F. Lipparini, F. Egidi, J. Goings, B. Peng, A. Petrone, 
 T. Henderson, D. Ranasinghe, V. G. Zakrzewski, J. Gao, N. Rega, 
 G. Zheng, W. Liang, M. Hada, M. Ehara, K. Toyota, R. Fukuda, 
 J. Hasegawa, M. Ishida, T. Nakajima, Y. Honda, O. Kitao, H. Nakai, 
 T. Vreven, K. Throssell, J. A. Montgomery, Jr., J. E. Peralta, 
 F. Ogliaro, M. J. Bearpark, J. J. Heyd, E. N. Brothers, K. N. Kudin, 
 V. N. Staroverov, T. A. Keith, R. Kobayashi, J. Normand, 
 K. Raghavachari, A. P. Rendell, J. C. Burant, S. S. Iyengar, 
 J. Tomasi, M. Cossi, J. M. Millam, M. Klene, C. Adamo, R. Cammi, 
 J. W. Ochterski, R. L. Martin, K. Morokuma, O. Farkas, 
 J. B. Foresman, and D. J. Fox, Gaussian, Inc., Wallingford CT, 2019.
 
 ******************************************
 Gaussian 16:  ES64L-G16RevC.01  3-Jul-2019
                27-Oct-2021 
 ******************************************
 %mem=100GB
 %nprocshared=8
 Will use up to    8 processors via shared memory.
 ---------------------------------
 # opt=modredundant hf/aug-cc-pvdz
 ---------------------------------
 1/18=120,19=15,38=1/1,3;
 2/9=110,12=2,17=6,18=5,40=1/2;
 3/5=16,7=10,11=9,25=1,30=1,71=1/1,2,3;
 4//1;
 5/5=2,38=5/2;
 6/7=2,8=2,9=2,10=2,28=1/1;
 7//1,2,3,16;
 1/18=20,19=15/3(2);
 2/9=110/2;
 99//99;
 2/9=110/2;
 3/5=16,7=10,11=9,25=1,30=1,71=1/1,2,3;
 4/5=5,16=3,69=1/1;
 5/5=2,38=5/2;
 7//1,2,3,16;
 1/18=20,19=15/3(-5);
 2/9=110/2;
 6/7=2,8=2,9=2,10=2,19=2,28=1/1;
 99/9=1/99;
 ---------------
 pg2T_TT_-90.pdb
 ---------------
 Symbolic Z-matrix:
 Charge =  0 Multiplicity = 1
 C                    -4.25     -1.36     -0.21 
 C                    -2.93     -0.95     -0.61 
 C                    -1.97     -2.05     -0.62 
 C                    -4.33     -2.76      0.1 
 S                    -2.8      -3.56     -0.11 
 H                    -5.23     -3.27      0.41 
 C                    -0.56     -2.13     -0.97 
 S                    -0.016    -2.496    -2.636 
 C                     1.656    -2.398    -2.201 
 C                     1.843    -2.063    -0.812 
 C                     0.604    -1.893    -0.113 
 H                     0.543    -1.485     0.883 
 S                     3.358    -1.277    -0.513 
 C                     3.795    -1.383    -2.22 
 C                     2.758    -2.       -3.014 
 H                     4.653    -0.87     -2.63 
 H                     2.715    -1.91     -4.096 
 H                    -2.89      0.24     -0.97 
 O                    -5.6      -0.36     -0.4 
 H                    -5.76      0.85     -0.75 
 
 Add virtual bond connecting atoms H20        and O19        Dist= 2.40D+00.
 Add virtual bond connecting atoms O19        and C1         Dist= 3.20D+00.
 The following ModRedundant input section has been read:
 D       2       3       7       8 F                                           
 

 GradGradGradGradGradGradGradGradGradGradGradGradGradGradGradGradGradGrad
 Berny optimization.
 Initialization pass.
                           ----------------------------
                           !    Initial Parameters    !
                           ! (Angstroms and Degrees)  !
 --------------------------                            --------------------------
 ! Name  Definition              Value          Derivative Info.                !
 --------------------------------------------------------------------------------
 ! R1    R(1,2)                  1.4389         estimate D2E/DX2                !
 ! R2    R(1,4)                  1.4361         estimate D2E/DX2                !
 ! R3    R(1,19)                 1.6907         estimate D2E/DX2                !
 ! R4    R(2,3)                  1.46           estimate D2E/DX2                !
 ! R5    R(2,18)                 1.2439         estimate D2E/DX2                !
 ! R6    R(3,5)                  1.797          estimate D2E/DX2                !
 ! R7    R(3,7)                  1.455          estimate D2E/DX2                !
 ! R8    R(4,5)                  1.7393         estimate D2E/DX2                !
 ! R9    R(4,6)                  1.0799         estimate D2E/DX2                !
 ! R10   R(7,8)                  1.7904         estimate D2E/DX2                !
 ! R11   R(7,11)                 1.4648         estimate D2E/DX2                !
 ! R12   R(8,9)                  1.7304         estimate D2E/DX2                !
 ! R13   R(9,10)                 1.441          estimate D2E/DX2                !
 ! R14   R(9,15)                 1.4261         estimate D2E/DX2                !
 ! R15   R(10,11)                1.4327         estimate D2E/DX2                !
 ! R16   R(10,13)                1.7327         estimate D2E/DX2                !
 ! R17   R(11,12)                1.0781         estimate D2E/DX2                !
 ! R18   R(13,14)                1.7652         estimate D2E/DX2                !
 ! R19   R(14,15)                1.4445         estimate D2E/DX2                !
 ! R20   R(14,16)                1.0805         estimate D2E/DX2                !
 ! R21   R(15,17)                1.0866         estimate D2E/DX2                !
 ! R22   R(19,20)                1.2697         estimate D2E/DX2                !
 ! A1    A(2,1,4)              112.8843         estimate D2E/DX2                !
 ! A2    A(2,1,19)             122.1887         estimate D2E/DX2                !
 ! A3    A(4,1,19)             123.8039         estimate D2E/DX2                !
 ! A4    A(1,2,3)              112.9799         estimate D2E/DX2                !
 ! A5    A(1,2,18)             112.491          estimate D2E/DX2                !
 ! A6    A(3,2,18)             134.2373         estimate D2E/DX2                !
 ! A7    A(2,3,5)              109.1138         estimate D2E/DX2                !
 ! A8    A(2,3,7)              132.8639         estimate D2E/DX2                !
 ! A9    A(5,3,7)              118.0132         estimate D2E/DX2                !
 ! A10   A(1,4,5)              111.9209         estimate D2E/DX2                !
 ! A11   A(1,4,6)              124.6643         estimate D2E/DX2                !
 ! A12   A(5,4,6)              123.4062         estimate D2E/DX2                !
 ! A13   A(3,5,4)               93.0997         estimate D2E/DX2                !
 ! A14   A(3,7,8)              121.9738         estimate D2E/DX2                !
 ! A15   A(3,7,11)             128.3497         estimate D2E/DX2                !
 ! A16   A(8,7,11)             109.6366         estimate D2E/DX2                !
 ! A17   A(7,8,9)               92.7564         estimate D2E/DX2                !
 ! A18   A(8,9,10)             112.3871         estimate D2E/DX2                !
 ! A19   A(8,9,15)             128.253          estimate D2E/DX2                !
 ! A20   A(10,9,15)            112.6034         estimate D2E/DX2                !
 ! A21   A(9,10,11)            112.6835         estimate D2E/DX2                !
 ! A22   A(9,10,13)            112.659          estimate D2E/DX2                !
 ! A23   A(11,10,13)           128.1783         estimate D2E/DX2                !
 ! A24   A(7,11,10)            112.4935         estimate D2E/DX2                !
 ! A25   A(7,11,12)            123.836          estimate D2E/DX2                !
 ! A26   A(10,11,12)           122.9971         estimate D2E/DX2                !
 ! A27   A(10,13,14)            91.2804         estimate D2E/DX2                !
 ! A28   A(13,14,15)           112.301          estimate D2E/DX2                !
 ! A29   A(13,14,16)           122.3451         estimate D2E/DX2                !
 ! A30   A(15,14,16)           124.3543         estimate D2E/DX2                !
 ! A31   A(9,15,14)            111.1369         estimate D2E/DX2                !
 ! A32   A(9,15,17)            124.0705         estimate D2E/DX2                !
 ! A33   A(14,15,17)           122.7103         estimate D2E/DX2                !
 ! A34   A(1,19,20)            134.0455         estimate D2E/DX2                !
 ! D1    D(4,1,2,3)              0.3915         estimate D2E/DX2                !
 ! D2    D(4,1,2,18)           175.0898         estimate D2E/DX2                !
 ! D3    D(19,1,2,3)          -167.9154         estimate D2E/DX2                !
 ! D4    D(19,1,2,18)            6.7829         estimate D2E/DX2                !
 ! D5    D(2,1,4,5)             -0.3845         estimate D2E/DX2                !
 ! D6    D(2,1,4,6)           -179.3471         estimate D2E/DX2                !
 ! D7    D(19,1,4,5)           167.7032         estimate D2E/DX2                !
 ! D8    D(19,1,4,6)           -11.2593         estimate D2E/DX2                !
 ! D9    D(2,1,19,20)           -7.6334         estimate D2E/DX2                !
 ! D10   D(4,1,19,20)         -174.6479         estimate D2E/DX2                !
 ! D11   D(1,2,3,5)             -0.2224         estimate D2E/DX2                !
 ! D12   D(1,2,3,7)            178.6265         estimate D2E/DX2                !
 ! D13   D(18,2,3,5)          -173.3787         estimate D2E/DX2                !
 ! D14   D(18,2,3,7)             5.4701         estimate D2E/DX2                !
 ! D15   D(2,3,5,4)              0.0033         estimate D2E/DX2                !
 ! D16   D(7,3,5,4)           -179.041          estimate D2E/DX2                !
 ! D17   D(2,3,7,8)            -89.9959         Frozen                          !
 ! D18   D(2,3,7,11)            87.4602         estimate D2E/DX2                !
 ! D19   D(5,3,7,8)             88.772          estimate D2E/DX2                !
 ! D20   D(5,3,7,11)           -93.7718         estimate D2E/DX2                !
 ! D21   D(1,4,5,3)              0.2153         estimate D2E/DX2                !
 ! D22   D(6,4,5,3)            179.1932         estimate D2E/DX2                !
 ! D23   D(3,7,8,9)            179.7802         estimate D2E/DX2                !
 ! D24   D(11,7,8,9)             1.8981         estimate D2E/DX2                !
 ! D25   D(3,7,11,10)         -179.8403         estimate D2E/DX2                !
 ! D26   D(3,7,11,12)           -9.0155         estimate D2E/DX2                !
 ! D27   D(8,7,11,10)           -2.1314         estimate D2E/DX2                !
 ! D28   D(8,7,11,12)          168.6934         estimate D2E/DX2                !
 ! D29   D(7,8,9,10)            -1.2177         estimate D2E/DX2                !
 ! D30   D(7,8,9,15)          -149.8772         estimate D2E/DX2                !
 ! D31   D(8,9,10,11)            0.1811         estimate D2E/DX2                !
 ! D32   D(8,9,10,13)         -154.0369         estimate D2E/DX2                !
 ! D33   D(15,9,10,11)         153.9221         estimate D2E/DX2                !
 ! D34   D(15,9,10,13)          -0.2958         estimate D2E/DX2                !
 ! D35   D(8,9,15,14)          149.7594         estimate D2E/DX2                !
 ! D36   D(8,9,15,17)          -14.164          estimate D2E/DX2                !
 ! D37   D(10,9,15,14)           1.1546         estimate D2E/DX2                !
 ! D38   D(10,9,15,17)        -162.7688         estimate D2E/DX2                !
 ! D39   D(9,10,11,7)            1.2933         estimate D2E/DX2                !
 ! D40   D(9,10,11,12)        -169.6205         estimate D2E/DX2                !
 ! D41   D(13,10,11,7)         150.5895         estimate D2E/DX2                !
 ! D42   D(13,10,11,12)        -20.3242         estimate D2E/DX2                !
 ! D43   D(9,10,13,14)          -0.4933         estimate D2E/DX2                !
 ! D44   D(11,10,13,14)       -149.7956         estimate D2E/DX2                !
 ! D45   D(10,13,14,15)          1.1562         estimate D2E/DX2                !
 ! D46   D(10,13,14,16)        170.1737         estimate D2E/DX2                !
 ! D47   D(13,14,15,9)          -1.5211         estimate D2E/DX2                !
 ! D48   D(13,14,15,17)        162.6586         estimate D2E/DX2                !
 ! D49   D(16,14,15,9)        -170.2788         estimate D2E/DX2                !
 ! D50   D(16,14,15,17)         -6.0991         estimate D2E/DX2                !
 --------------------------------------------------------------------------------
 Trust Radius=3.00D-01 FncErr=1.00D-07 GrdErr=1.00D-07 EigMax=2.50D+02 EigMin=1.00D-04
 Number of steps in this run=    116 maximum allowed number of steps=    120.
 GradGradGradGradGradGradGradGradGradGradGradGradGradGradGradGradGradGrad

                          Input orientation:                          
 ---------------------------------------------------------------------
 Center     Atomic      Atomic             Coordinates (Angstroms)
 Number     Number       Type             X           Y           Z
 ---------------------------------------------------------------------
      1          6           0       -4.250000   -1.360000   -0.210000
      2          6           0       -2.930000   -0.950000   -0.610000
      3          6           0       -1.970000   -2.050000   -0.620000
      4          6           0       -4.330000   -2.760000    0.100000
      5         16           0       -2.800000   -3.560000   -0.110000
      6          1           0       -5.230000   -3.270000    0.410000
      7          6           0       -0.560000   -2.130000   -0.970000
      8         16           0       -0.016000   -2.496000   -2.636000
      9          6           0        1.656000   -2.398000   -2.201000
     10          6           0        1.843000   -2.063000   -0.812000
     11          6           0        0.604000   -1.893000   -0.113000
     12          1           0        0.543000   -1.485000    0.883000
     13         16           0        3.358000   -1.277000   -0.513000
     14          6           0        3.795000   -1.383000   -2.220000
     15          6           0        2.758000   -2.000000   -3.014000
     16          1           0        4.653000   -0.870000   -2.630000
     17          1           0        2.715000   -1.910000   -4.096000
     18          1           0       -2.890000    0.240000   -0.970000
     19          8           0       -5.600000   -0.360000   -0.400000
     20          1           0       -5.760000    0.850000   -0.750000
 ---------------------------------------------------------------------
                    Distance matrix (angstroms):
                    1          2          3          4          5
     1  C    0.000000
     2  C    1.438923   0.000000
     3  C    2.417147   1.460034   0.000000
     4  C    1.436141   2.395871   2.567509   0.000000
     5  S    2.636759   2.660639   1.796970   1.739253   0.000000
     6  H    2.234480   3.422397   3.630000   1.079907   2.501879
     7  C    3.845335   2.671872   1.454991   3.969219   2.793224
     8  S    5.010262   3.871200   2.842761   5.115270   3.906844
     9  C    6.318414   5.065509   3.970962   6.423227   5.057515
    10  C    6.162894   4.905212   3.817853   6.278812   4.928617
    11  C    4.884139   3.691262   2.628150   5.014121   3.790266
    12  H    4.917634   3.817984   2.982181   5.097533   4.057995
    13  S    7.614484   6.297244   5.384846   7.853687   6.579929
    14  C    8.292325   6.928580   6.019976   8.561200   7.258475
    15  C    7.575228   6.263790   5.299785   7.779096   6.462057
    16  H    9.239043   7.847846   7.021156   9.577019   8.314668
    17  H    7.994668   6.703717   5.835358   8.243843   7.001851
    18  H    2.233204   1.243905   2.492589   3.495497   3.897140
    19  O    1.690739   2.742462   4.010162   2.760960   4.261936
    20  H    2.730531   3.356859   4.773992   3.974858   5.349701
                    6          7          8          9         10
     6  H    0.000000
     7  C    5.001290   0.000000
     8  S    6.087938   1.790376   0.000000
     9  C    7.415841   2.549086   1.730437   0.000000
    10  C    7.278562   2.409121   2.640141   1.441012   0.000000
    11  C    6.017077   1.464757   2.667122   2.391960   1.432697
    12  H    6.061145   2.250832   3.703777   3.403439   2.212941
    13  S    8.864408   4.035738   4.168569   2.646278   1.732750
    14  C    9.587924   4.592008   3.991935   2.367680   2.501033
    15  C    8.783212   3.899226   2.843233   1.426106   2.385372
    16  H   10.614862   5.614140   4.944034   3.391288   3.553093
    17  H    9.234536   4.532759   3.151723   2.225006   3.401242
    18  H    4.438479   3.323522   4.303618   5.398196   5.265934
    19  O    3.043206   5.372095   6.383044   7.748973   7.646450
    20  H    4.312876   5.997399   6.909866   8.225081   8.142176
                   11         12         13         14         15
    11  C    0.000000
    12  H    1.078054   0.000000
    13  S    2.850258   3.149017   0.000000
    14  C    3.857723   4.496056   1.765235   0.000000
    15  C    3.614826   4.511991   2.671653   1.444470   0.000000
    16  H    4.876086   5.441644   2.514829   1.080478   2.239505
    17  H    4.507871   5.448729   3.694865   2.227893   1.086588
    18  H    4.182365   4.265527   6.445746   6.991842   6.410573
    19  O    6.397036   6.375591   9.005522   9.624186   8.909476
    20  H    6.959189   6.917133   9.365801   9.921956   9.263073
                   16         17         18         19         20
    16  H    0.000000
    17  H    2.643218   0.000000
    18  H    7.802855   6.768338   0.000000
    19  O   10.505094   9.230501   2.833549   0.000000
    20  H   10.720232   9.520449   2.942346   1.269724   0.000000
 Stoichiometry    C10H6OS3
 Framework group  C1[X(C10H6OS3)]
 Deg. of freedom    54
 Full point group                 C1      NOp   1
 Largest Abelian subgroup         C1      NOp   1
 Largest concise Abelian subgroup C1      NOp   1
                         Standard orientation:                         
 ---------------------------------------------------------------------
 Center     Atomic      Atomic             Coordinates (Angstroms)
 Number     Number       Type             X           Y           Z
 ---------------------------------------------------------------------
      1          6           0        3.813941    0.606531    0.347715
      2          6           0        2.433253    0.824790    0.689132
      3          6           0        1.512817    0.041627   -0.130106
      4          6           0        3.981762   -0.327400   -0.730297
      5         16           0        2.457265   -0.935026   -1.306230
      6          1           0        4.935199   -0.636872   -1.132025
      7          6           0        0.063845   -0.090216   -0.140065
      8         16           0       -0.782554   -1.324953    0.842015
      9          6           0       -2.341359   -0.818585    0.286916
     10          6           0       -2.264763    0.298842   -0.619729
     11          6           0       -0.918341    0.728522   -0.854553
     12          1           0       -0.675574    1.643446   -1.370479
     13         16           0       -3.710293    1.254266   -0.625277
     14          6           0       -4.465118    0.190679    0.564293
     15          6           0       -3.587351   -0.879305    0.977998
     16          1           0       -5.396647    0.438375    1.052487
     17          1           0       -3.755192   -1.460759    1.880446
     18          1           0        2.299515    1.557974    1.685052
     19          8           0        5.080658    1.151258    1.326132
     20          1           0        5.144638    1.886248    2.359522
 ---------------------------------------------------------------------
 Rotational constants (GHZ):           1.3164633           0.2161455           0.2134851
 Standard basis: Aug-CC-pVDZ (5D, 7F)
 There are   416 symmetry adapted cartesian basis functions of A   symmetry.
 There are   388 symmetry adapted basis functions of A   symmetry.
   388 basis functions,   782 primitive gaussians,   416 cartesian basis functions
    61 alpha electrons       61 beta electrons
       nuclear repulsion energy      1075.3328183839 Hartrees.
 NAtoms=   20 NActive=   20 NUniq=   20 SFac= 1.00D+00 NAtFMM=   60 NAOKFM=F Big=F
 Integral buffers will be    131072 words long.
 Raffenetti 1 integral format.
 Two-electron integral symmetry is turned on.
 One-electron integrals computed using PRISM.
 NBasis=   388 RedAO= T EigKep=  6.95D-06  NBF=   388
 NBsUse=   388 1.00D-06 EigRej= -1.00D+00 NBFU=   388
 ExpMin= 2.97D-02 ExpMax= 1.11D+05 ExpMxC= 1.07D+03 IAcc=3 IRadAn=         5 AccDes= 0.00D+00
 Harris functional with IExCor=  205 and IRadAn=       5 diagonalized for initial guess.
 HarFok:  IExCor=  205 AccDes= 0.00D+00 IRadAn=         5 IDoV= 1 UseB2=F ITyADJ=14
 ICtDFT=  3500011 ScaDFX=  1.000000  1.000000  1.000000  1.000000
 FoFCou: FMM=F IPFlag=           0 FMFlag=      100000 FMFlg1=           0
         NFxFlg=           0 DoJE=T BraDBF=F KetDBF=T FulRan=T
         wScrn=  0.000000 ICntrl=       500 IOpCl=  0 I1Cent=   200000004 NGrid=           0
         NMat0=    1 NMatS0=      1 NMatT0=    0 NMatD0=    1 NMtDS0=    0 NMtDT0=    0
 Petite list used in FoFCou.
 Requested convergence on RMS density matrix=1.00D-08 within 128 cycles.
 Requested convergence on MAX density matrix=1.00D-06.
 Requested convergence on             energy=1.00D-06.
 No special actions if energy rises.
 SCF Done:  E(RHF) =  -1649.41898621     A.U. after   18 cycles
            NFock= 18  Conv=0.48D-08     -V/T= 2.0016

 **********************************************************************

            Population analysis using the SCF Density.

 **********************************************************************

 Orbital symmetries:
       Occupied  (A) (A) (A) (A) (A) (A) (A) (A) (A) (A) (A) (A)
                 (A) (A) (A) (A) (A) (A) (A) (A) (A) (A) (A) (A)
                 (A) (A) (A) (A) (A) (A) (A) (A) (A) (A) (A) (A)
                 (A) (A) (A) (A) (A) (A) (A) (A) (A) (A) (A) (A)
                 (A) (A) (A) (A) (A) (A) (A) (A) (A) (A) (A) (A)
                 (A)
       Virtual   (A) (A) (A) (A) (A) (A) (A) (A) (A) (A) (A) (A)
                 (A) (A) (A) (A) (A) (A) (A) (A) (A) (A) (A) (A)
                 (A) (A) (A) (A) (A) (A) (A) (A) (A) (A) (A) (A)
                 (A) (A) (A) (A) (A) (A) (A) (A) (A) (A) (A) (A)
                 (A) (A) (A) (A) (A) (A) (A) (A) (A) (A) (A) (A)
                 (A) (A) (A) (A) (A) (A) (A) (A) (A) (A) (A) (A)
                 (A) (A) (A) (A) (A) (A) (A) (A) (A) (A) (A) (A)
                 (A) (A) (A) (A) (A) (A) (A) (A) (A) (A) (A) (A)
                 (A) (A) (A) (A) (A) (A) (A) (A) (A) (A) (A) (A)
                 (A) (A) (A) (A) (A) (A) (A) (A) (A) (A) (A) (A)
                 (A) (A) (A) (A) (A) (A) (A) (A) (A) (A) (A) (A)
                 (A) (A) (A) (A) (A) (A) (A) (A) (A) (A) (A) (A)
                 (A) (A) (A) (A) (A) (A) (A) (A) (A) (A) (A) (A)
                 (A) (A) (A) (A) (A) (A) (A) (A) (A) (A) (A) (A)
                 (A) (A) (A) (A) (A) (A) (A) (A) (A) (A) (A) (A)
                 (A) (A) (A) (A) (A) (A) (A) (A) (A) (A) (A) (A)
                 (A) (A) (A) (A) (A) (A) (A) (A) (A) (A) (A) (A)
                 (A) (A) (A) (A) (A) (A) (A) (A) (A) (A) (A) (A)
                 (A) (A) (A) (A) (A) (A) (A) (A) (A) (A) (A) (A)
                 (A) (A) (A) (A) (A) (A) (A) (A) (A) (A) (A) (A)
                 (A) (A) (A) (A) (A) (A) (A) (A) (A) (A) (A) (A)
                 (A) (A) (A) (A) (A) (A) (A) (A) (A) (A) (A) (A)
                 (A) (A) (A) (A) (A) (A) (A) (A) (A) (A) (A) (A)
                 (A) (A) (A) (A) (A) (A) (A) (A) (A) (A) (A) (A)
                 (A) (A) (A) (A) (A) (A) (A) (A) (A) (A) (A) (A)
                 (A) (A) (A) (A) (A) (A) (A) (A) (A) (A) (A) (A)
                 (A) (A) (A) (A) (A) (A) (A) (A) (A) (A) (A) (A)
                 (A) (A) (A)
 The electronic state is 1-A.
 Alpha  occ. eigenvalues --  -92.01351 -92.00592 -92.00357 -20.59905 -11.34866
 Alpha  occ. eigenvalues --  -11.31746 -11.31082 -11.30092 -11.30045 -11.30029
 Alpha  occ. eigenvalues --  -11.29314 -11.29009 -11.28474 -11.27741  -9.01264
 Alpha  occ. eigenvalues --   -9.00648  -9.00383  -6.69416  -6.69310  -6.69141
 Alpha  occ. eigenvalues --   -6.68812  -6.68724  -6.68543  -6.68534  -6.68447
 Alpha  occ. eigenvalues --   -6.68261  -1.25149  -1.20352  -1.16441  -1.10885
 Alpha  occ. eigenvalues --   -1.03771  -1.01119  -0.99009  -0.94907  -0.93010
 Alpha  occ. eigenvalues --   -0.83419  -0.77974  -0.74512  -0.72451  -0.71624
 Alpha  occ. eigenvalues --   -0.66652  -0.66004  -0.60238  -0.57924  -0.57279
 Alpha  occ. eigenvalues --   -0.55651  -0.55147  -0.54536  -0.53476  -0.52812
 Alpha  occ. eigenvalues --   -0.50825  -0.49420  -0.48051  -0.47863  -0.46980
 Alpha  occ. eigenvalues --   -0.45432  -0.39307  -0.35738  -0.32590  -0.32334
 Alpha  occ. eigenvalues --   -0.29063
 Alpha virt. eigenvalues --    0.02495   0.03369   0.04311   0.04567   0.04623
 Alpha virt. eigenvalues --    0.05441   0.05837   0.06876   0.07831   0.08141
 Alpha virt. eigenvalues --    0.08739   0.09576   0.09800   0.10265   0.10687
 Alpha virt. eigenvalues --    0.11059   0.11559   0.11724   0.12460   0.13247
 Alpha virt. eigenvalues --    0.13411   0.13733   0.13907   0.14363   0.14744
 Alpha virt. eigenvalues --    0.15155   0.15483   0.15714   0.16063   0.16320
 Alpha virt. eigenvalues --    0.16789   0.17052   0.17329   0.17783   0.18331
 Alpha virt. eigenvalues --    0.18803   0.18892   0.19121   0.19683   0.19818
 Alpha virt. eigenvalues --    0.20663   0.20925   0.21568   0.22043   0.22450
 Alpha virt. eigenvalues --    0.22767   0.23636   0.24095   0.24573   0.25077
 Alpha virt. eigenvalues --    0.25744   0.25907   0.26183   0.26566   0.27308
 Alpha virt. eigenvalues --    0.27812   0.28393   0.28723   0.29932   0.30442
 Alpha virt. eigenvalues --    0.30717   0.31268   0.31668   0.32095   0.32228
 Alpha virt. eigenvalues --    0.32412   0.33192   0.33558   0.34821   0.34954
 Alpha virt. eigenvalues --    0.35346   0.35914   0.36251   0.36599   0.37559
 Alpha virt. eigenvalues --    0.38669   0.39033   0.39866   0.40139   0.40780
 Alpha virt. eigenvalues --    0.41090   0.41669   0.42809   0.43142   0.43686
 Alpha virt. eigenvalues --    0.44355   0.44469   0.45156   0.45716   0.45900
 Alpha virt. eigenvalues --    0.47030   0.47155   0.48081   0.48945   0.49737
 Alpha virt. eigenvalues --    0.50142   0.51350   0.51657   0.52588   0.52994
 Alpha virt. eigenvalues --    0.53379   0.54216   0.54888   0.56361   0.56739
 Alpha virt. eigenvalues --    0.57677   0.57945   0.58475   0.59334   0.59508
 Alpha virt. eigenvalues --    0.60152   0.60926   0.62007   0.62130   0.63633
 Alpha virt. eigenvalues --    0.64155   0.64885   0.65461   0.65869   0.66187
 Alpha virt. eigenvalues --    0.66605   0.67134   0.67902   0.68226   0.69168
 Alpha virt. eigenvalues --    0.69830   0.70339   0.70901   0.71037   0.71440
 Alpha virt. eigenvalues --    0.72280   0.72588   0.73635   0.73688   0.74296
 Alpha virt. eigenvalues --    0.75576   0.75958   0.76277   0.76680   0.77131
 Alpha virt. eigenvalues --    0.77435   0.78829   0.79548   0.80760   0.81757
 Alpha virt. eigenvalues --    0.82307   0.83070   0.83709   0.84613   0.84918
 Alpha virt. eigenvalues --    0.86434   0.87937   0.88414   0.88500   0.89737
 Alpha virt. eigenvalues --    0.90106   0.91173   0.91963   0.92357   0.93434
 Alpha virt. eigenvalues --    0.93671   0.94215   0.95333   0.96038   0.96554
 Alpha virt. eigenvalues --    0.96946   0.97427   0.98918   0.99335   1.00235
 Alpha virt. eigenvalues --    1.00495   1.01587   1.02786   1.02945   1.05173
 Alpha virt. eigenvalues --    1.05535   1.07639   1.08733   1.09723   1.10742
 Alpha virt. eigenvalues --    1.11861   1.12829   1.14396   1.16055   1.16638
 Alpha virt. eigenvalues --    1.17351   1.18069   1.19712   1.20153   1.20424
 Alpha virt. eigenvalues --    1.21464   1.22426   1.23416   1.23931   1.24230
 Alpha virt. eigenvalues --    1.25461   1.26167   1.26590   1.28002   1.28400
 Alpha virt. eigenvalues --    1.28967   1.29058   1.29812   1.31376   1.32411
 Alpha virt. eigenvalues --    1.34206   1.35361   1.36888   1.37883   1.38316
 Alpha virt. eigenvalues --    1.39934   1.41067   1.41447   1.43650   1.45504
 Alpha virt. eigenvalues --    1.46989   1.48058   1.49481   1.52118   1.53607
 Alpha virt. eigenvalues --    1.54108   1.54990   1.56342   1.57115   1.57679
 Alpha virt. eigenvalues --    1.59073   1.59575   1.60473   1.61464   1.62075
 Alpha virt. eigenvalues --    1.63774   1.65236   1.65701   1.67381   1.69207
 Alpha virt. eigenvalues --    1.69643   1.71111   1.71491   1.73398   1.74860
 Alpha virt. eigenvalues --    1.75644   1.77006   1.77567   1.78417   1.79947
 Alpha virt. eigenvalues --    1.80633   1.81636   1.82162   1.83747   1.84810
 Alpha virt. eigenvalues --    1.87814   1.89449   1.90159   1.90285   1.91639
 Alpha virt. eigenvalues --    1.93240   1.93547   1.95926   1.96935   1.97548
 Alpha virt. eigenvalues --    1.99007   2.00437   2.01685   2.02989   2.03742
 Alpha virt. eigenvalues --    2.04146   2.05530   2.06373   2.08414   2.08805
 Alpha virt. eigenvalues --    2.09470   2.10924   2.12822   2.13153   2.14969
 Alpha virt. eigenvalues --    2.16478   2.17803   2.19128   2.20403   2.22111
 Alpha virt. eigenvalues --    2.22897   2.24918   2.25271   2.27188   2.28622
 Alpha virt. eigenvalues --    2.29163   2.31603   2.33659   2.35033   2.35781
 Alpha virt. eigenvalues --    2.37980   2.38729   2.40204   2.43367   2.43665
 Alpha virt. eigenvalues --    2.47469   2.49272   2.50943   2.52013   2.57335
 Alpha virt. eigenvalues --    2.58372   2.66318   2.68002   2.74271   2.78401
 Alpha virt. eigenvalues --    2.80054   2.81487   2.82960   2.83972   2.86363
 Alpha virt. eigenvalues --    2.94147   3.00718   3.03889   3.09608   3.12551
 Alpha virt. eigenvalues --    3.19891   3.25744   3.35733   3.44344   3.74049
 Alpha virt. eigenvalues --    3.76204   3.78059   3.81423   3.83577   4.00083
 Alpha virt. eigenvalues --    4.09827   4.13093
          Condensed to atoms (all electrons):
               1          2          3          4          5          6
     1  C    5.705037  -0.043923  -0.178752   0.515757  -0.314751   0.075038
     2  C   -0.043923   7.517304  -1.052228   0.175725  -0.324633   0.037732
     3  C   -0.178752  -1.052228   9.302033  -1.004464   0.345455   0.079709
     4  C    0.515757   0.175725  -1.004464   5.779802   0.191848   0.088603
     5  S   -0.314751  -0.324633   0.345455   0.191848  15.867587  -0.174885
     6  H    0.075038   0.037732   0.079709   0.088603  -0.174885   1.186530
     7  C    0.112324  -0.303282  -1.774648   0.266196  -0.338582   0.001470
     8  S    0.018579  -0.001013  -0.271818  -0.014257   0.140268  -0.000669
     9  C    0.025644   0.041640  -0.032656   0.020800  -0.066106   0.000467
    10  C   -0.000274   0.130900   0.146660   0.006650  -0.031597   0.000755
    11  C   -0.062087  -0.003631  -0.182277  -0.074051   0.127784   0.002307
    12  H    0.006098   0.041768  -0.041055   0.003085   0.006169   0.000303
    13  S   -0.002558  -0.005950   0.032750  -0.000222   0.001967  -0.000024
    14  C    0.001208   0.005020   0.044932   0.000140  -0.005752   0.000044
    15  C   -0.003101  -0.014131  -0.160283  -0.001373   0.012114  -0.000183
    16  H    0.000065   0.000432   0.002133   0.000030  -0.000376   0.000004
    17  H   -0.000289  -0.001739  -0.008342   0.000033   0.001379  -0.000011
    18  H   -0.068455   0.309235   0.027636  -0.027090   0.025388  -0.001969
    19  O   -0.059807  -0.081392   0.014376  -0.031165   0.003411  -0.013787
    20  H    0.014435   0.000890   0.005337  -0.020588   0.000651  -0.002726
               7          8          9         10         11         12
     1  C    0.112324   0.018579   0.025644  -0.000274  -0.062087   0.006098
     2  C   -0.303282  -0.001013   0.041640   0.130900  -0.003631   0.041768
     3  C   -1.774648  -0.271818  -0.032656   0.146660  -0.182277  -0.041055
     4  C    0.266196  -0.014257   0.020800   0.006650  -0.074051   0.003085
     5  S   -0.338582   0.140268  -0.066106  -0.031597   0.127784   0.006169
     6  H    0.001470  -0.000669   0.000467   0.000755   0.002307   0.000303
     7  C    9.435937   0.220274  -0.060277  -0.291678  -1.185325   0.122922
     8  S    0.220274  15.919504   0.110368  -0.222562  -0.285961   0.046869
     9  C   -0.060277   0.110368   7.116623   0.311079  -0.319681  -0.041418
    10  C   -0.291678  -0.222562   0.311079   7.937783  -1.556854   0.252385
    11  C   -1.185325  -0.285961  -0.319681  -1.556854   9.606122  -0.489202
    12  H    0.122922   0.046869  -0.041418   0.252385  -0.489202   1.564005
    13  S   -0.146966  -0.000370  -0.019678   0.129071  -0.074673  -0.049644
    14  C    0.074084  -0.049854   0.045414  -0.229522  -0.277903   0.004094
    15  C   -0.242043  -0.057383  -0.858485  -0.014917   0.492757  -0.008768
    16  H   -0.003037  -0.004732  -0.014358   0.009289   0.027198   0.001771
    17  H    0.053087  -0.038594   0.198019  -0.013993  -0.016659  -0.000591
    18  H   -0.094148   0.006483  -0.002207  -0.001068   0.026280   0.001196
    19  O   -0.002222  -0.000511  -0.000392  -0.000456   0.004495   0.000120
    20  H   -0.001026   0.000089  -0.000055   0.000013   0.000190   0.000010
              13         14         15         16         17         18
     1  C   -0.002558   0.001208  -0.003101   0.000065  -0.000289  -0.068455
     2  C   -0.005950   0.005020  -0.014131   0.000432  -0.001739   0.309235
     3  C    0.032750   0.044932  -0.160283   0.002133  -0.008342   0.027636
     4  C   -0.000222   0.000140  -0.001373   0.000030   0.000033  -0.027090
     5  S    0.001967  -0.005752   0.012114  -0.000376   0.001379   0.025388
     6  H   -0.000024   0.000044  -0.000183   0.000004  -0.000011  -0.001969
     7  C   -0.146966   0.074084  -0.242043  -0.003037   0.053087  -0.094148
     8  S   -0.000370  -0.049854  -0.057383  -0.004732  -0.038594   0.006483
     9  C   -0.019678   0.045414  -0.858485  -0.014358   0.198019  -0.002207
    10  C    0.129071  -0.229522  -0.014917   0.009289  -0.013993  -0.001068
    11  C   -0.074673  -0.277903   0.492757   0.027198  -0.016659   0.026280
    12  H   -0.049644   0.004094  -0.008768   0.001771  -0.000591   0.001196
    13  S   15.623068   0.206719  -0.255033  -0.131532   0.006052   0.000732
    14  C    0.206719   5.804974   0.238644   0.243527  -0.053909   0.000232
    15  C   -0.255033   0.238644   6.505028   0.028036  -0.130788   0.001196
    16  H   -0.131532   0.243527   0.028036   1.233780  -0.057810   0.000024
    17  H    0.006052  -0.053909  -0.130788  -0.057810   1.378117  -0.000052
    18  H    0.000732   0.000232   0.001196   0.000024  -0.000052   0.908390
    19  O    0.000018  -0.000013   0.000046  -0.000001   0.000005  -0.016980
    20  H   -0.000001  -0.000001   0.000002  -0.000000   0.000002   0.006781
              19         20
     1  C   -0.059807   0.014435
     2  C   -0.081392   0.000890
     3  C    0.014376   0.005337
     4  C   -0.031165  -0.020588
     5  S    0.003411   0.000651
     6  H   -0.013787  -0.002726
     7  C   -0.002222  -0.001026
     8  S   -0.000511   0.000089
     9  C   -0.000392  -0.000055
    10  C   -0.000456   0.000013
    11  C    0.004495   0.000190
    12  H    0.000120   0.000010
    13  S    0.000018  -0.000001
    14  C   -0.000013  -0.000001
    15  C    0.000046   0.000002
    16  H   -0.000001  -0.000000
    17  H    0.000005   0.000002
    18  H   -0.016980   0.006781
    19  O    9.097355   0.221150
    20  H    0.221150   0.355453
 Mulliken charges:
               1
     1  C    0.259811
     2  C   -0.428725
     3  C    0.705502
     4  C    0.124542
     5  S    0.532660
     6  H   -0.278707
     7  C    0.156940
     8  S    0.485289
     9  C   -0.454741
    10  C   -0.561666
    11  C    0.241172
    12  H   -0.420117
    13  S    0.686274
    14  C   -0.052078
    15  C    0.468663
    16  H   -0.334442
    17  H   -0.313917
    18  H   -0.101605
    19  O   -1.134249
    20  H    0.419395
 Sum of Mulliken charges =  -0.00000
 Mulliken charges with hydrogens summed into heavy atoms:
               1
     1  C    0.259811
     2  C   -0.530330
     3  C    0.705502
     4  C   -0.154164
     5  S    0.532660
     7  C    0.156940
     8  S    0.485289
     9  C   -0.454741
    10  C   -0.561666
    11  C   -0.178945
    13  S    0.686274
    14  C   -0.386521
    15  C    0.154745
    19  O   -0.714854
 Electronic spatial extent (au):  <R**2>=           4995.8933
 Charge=             -0.0000 electrons
 Dipole moment (field-independent basis, Debye):
    X=             -1.4853    Y=              1.3101    Z=              1.7417  Tot=              2.6374
 Quadrupole moment (field-independent basis, Debye-Ang):
   XX=           -101.9896   YY=           -102.1479   ZZ=            -98.0693
   XY=              0.5898   XZ=             -3.9396   YZ=              3.4553
 Traceless Quadrupole moment (field-independent basis, Debye-Ang):
   XX=             -1.2540   YY=             -1.4123   ZZ=              2.6663
   XY=              0.5898   XZ=             -3.9396   YZ=              3.4553
 Octapole moment (field-independent basis, Debye-Ang**2):
  XXX=            -64.7114  YYY=             14.0739  ZZZ=             27.9660  XYY=             16.9344
  XXY=              9.2067  XXZ=             40.6634  XZZ=             31.8123  YZZ=             14.8319
  YYZ=             13.8750  XYZ=             39.3814
 Hexadecapole moment (field-independent basis, Debye-Ang**3):
 XXXX=          -5677.1948 YYYY=           -654.9876 ZZZZ=           -547.8650 XXXY=            -71.9985
 XXXZ=           -141.4649 YYYX=             40.3658 YYYZ=             21.1504 ZZZX=             95.4158
 ZZZY=             45.7192 XXYY=          -1011.0424 XXZZ=           -880.6468 YYZZ=           -158.2517
 XXYZ=            138.0696 YYXZ=             58.1303 ZZXY=             89.0766
 N-N= 1.075332818384D+03 E-N=-6.054968580460D+03  KE= 1.646825541047D+03
 Calling FoFJK, ICntrl=      2127 FMM=F ISym2X=0 I1Cent= 0 IOpClX= 0 NMat=1 NMatS=1 NMatT=0.
 ***** Axes restored to original set *****
 -------------------------------------------------------------------
 Center     Atomic                   Forces (Hartrees/Bohr)
 Number     Number              X              Y              Z
 -------------------------------------------------------------------
      1        6          -0.033307977   -0.004436030   -0.017908698
      2        6           0.018952943    0.016725023   -0.021612714
      3        6          -0.073667572    0.037295643    0.012096774
      4        6          -0.011329761    0.074224371   -0.013491970
      5       16          -0.005870329    0.041997793   -0.002503283
      6        1           0.004059390   -0.002337051   -0.001903249
      7        6           0.088200978    0.019772479    0.031772447
      8       16          -0.006176661   -0.006199175    0.022450481
      9        6           0.010806811    0.030052301    0.045234826
     10        6          -0.031420921   -0.000134366   -0.046340691
     11        6          -0.058489946   -0.014621248   -0.054689100
     12        1          -0.005182884   -0.006065049    0.002202201
     13       16           0.008761104   -0.010626844   -0.020943604
     14        6          -0.063241273   -0.028161980   -0.035903599
     15        6           0.051843380    0.040641127    0.041594628
     16        1           0.002641586   -0.006121902    0.005471912
     17        1           0.006281499   -0.008628921    0.005677926
     18        1           0.016673776   -0.078905301    0.021684264
     19        8           0.033974722    0.036382062   -0.009861659
     20        1           0.046491136   -0.130852932    0.036973108
 -------------------------------------------------------------------
 Cartesian Forces:  Max     0.130852932 RMS     0.037198979

 GradGradGradGradGradGradGradGradGradGradGradGradGradGradGradGradGradGrad
 Berny optimization.
 FormGI is forming the generalized inverse of G from B-inverse, IUseBI=4.
 Internal  Forces:  Max     0.140748039 RMS     0.028781740
 Search for a local minimum.
 Step number   1 out of a maximum of  116
 All quantities printed in internal units (Hartrees-Bohrs-Radians)
 Mixed Optimization -- RFO/linear search
 Second derivative matrix not updated -- first step.
 ITU=  0
     Eigenvalues ---    0.00230   0.00983   0.01053   0.01221   0.01274
     Eigenvalues ---    0.01299   0.01386   0.01417   0.01425   0.01464
     Eigenvalues ---    0.01490   0.01554   0.01595   0.01771   0.02198
     Eigenvalues ---    0.02652   0.15085   0.15686   0.15734   0.15872
     Eigenvalues ---    0.15997   0.16000   0.17989   0.18458   0.20203
     Eigenvalues ---    0.21719   0.22442   0.23319   0.23380   0.23776
     Eigenvalues ---    0.23977   0.24292   0.24978   0.24995   0.26219
     Eigenvalues ---    0.26545   0.28381   0.30834   0.31282   0.31537
     Eigenvalues ---    0.34798   0.35210   0.35849   0.35937   0.36006
     Eigenvalues ---    0.36230   0.36313   0.37598   0.38323   0.38494
     Eigenvalues ---    0.39449   0.39686   0.406221000.000001000.00000
     Eigenvalues --- 1000.000001000.000001000.000001000.000001000.00000
     Eigenvalues --- 1000.000001000.000001000.000001000.000001000.00000
     Eigenvalues --- 1000.000001000.000001000.000001000.000001000.00000
     Eigenvalues --- 1000.000001000.000001000.000001000.000001000.00000
     Eigenvalues --- 1000.000001000.000001000.000001000.000001000.00000
     Eigenvalues --- 1000.000001000.000001000.000001000.000001000.00000
     Eigenvalues --- 1000.000001000.000001000.000001000.000001000.00000
     Eigenvalues --- 1000.000001000.000001000.000001000.000001000.00000
     Eigenvalues --- 1000.000001000.000001000.000001000.000001000.00000
     Eigenvalues --- 1000.000001000.000001000.000001000.000001000.00000
     Eigenvalues --- 1000.00000
 RFO step:  Lambda=-1.96471233D-01 EMin= 2.30000000D-03
 Linear search not attempted -- first point.
 Maximum step size (   0.300) exceeded in Quadratic search.
    -- Step size scaled by   0.451
 Iteration  1 RMS(Cart)=  0.05740669 RMS(Int)=  0.00111963
 Iteration  2 RMS(Cart)=  0.00140420 RMS(Int)=  0.00005803
 Iteration  3 RMS(Cart)=  0.00000583 RMS(Int)=  0.00005789
 Iteration  4 RMS(Cart)=  0.00000000 RMS(Int)=  0.00005789
 Iteration  1 RMS(Cart)=  0.00000093 RMS(Int)=  0.00000039
 Variable       Old X    -DE/DX   Delta X   Delta X   Delta X     New X
                                 (Linear)    (Quad)   (Total)
    R1        2.71917  -0.01927   0.00000  -0.01559  -0.01551   2.70366
    R2        2.71391  -0.08740   0.00000  -0.06644  -0.06641   2.64750
    R3        3.19503  -0.12317   0.00000  -0.14586  -0.14586   3.04917
    R4        2.75906  -0.09365   0.00000  -0.07495  -0.07492   2.68415
    R5        2.35064  -0.08123   0.00000  -0.08861  -0.08861   2.26203
    R6        3.39578  -0.02801   0.00000  -0.02649  -0.02655   3.36923
    R7        2.74954   0.00419   0.00000   0.00330   0.00330   2.75284
    R8        3.28671  -0.02246   0.00000  -0.01909  -0.01915   3.26756
    R9        2.04073  -0.00283   0.00000  -0.00229  -0.00229   2.03844
   R10        3.38332  -0.02022   0.00000  -0.01875  -0.01879   3.36453
   R11        2.76799  -0.09049   0.00000  -0.07311  -0.07312   2.69487
   R12        3.27005  -0.00601   0.00000  -0.00463  -0.00464   3.26541
   R13        2.72312  -0.05470   0.00000  -0.04236  -0.04228   2.68083
   R14        2.69495   0.00250   0.00000   0.00113   0.00118   2.69613
   R15        2.70741  -0.00862   0.00000  -0.00726  -0.00722   2.70018
   R16        3.27442  -0.00294   0.00000  -0.00188  -0.00189   3.27253
   R17        2.03723   0.00003   0.00000   0.00003   0.00003   2.03725
   R18        3.33581  -0.01854   0.00000  -0.01663  -0.01668   3.31913
   R19        2.72965  -0.08026   0.00000  -0.06215  -0.06216   2.66750
   R20        2.04181  -0.00289   0.00000  -0.00234  -0.00234   2.03947
   R21        2.05335  -0.00662   0.00000  -0.00544  -0.00544   2.04791
   R22        2.39943  -0.14075   0.00000  -0.15938  -0.15938   2.24005
    A1        1.97020   0.02245   0.00000   0.02129   0.02139   1.99160
    A2        2.13260   0.00298   0.00000   0.00429   0.00424   2.13684
    A3        2.16079  -0.02475   0.00000  -0.02418  -0.02426   2.13653
    A4        1.97187  -0.00266   0.00000  -0.00445  -0.00433   1.96754
    A5        1.96334   0.02370   0.00000   0.03068   0.03063   1.99396
    A6        2.34288  -0.02082   0.00000  -0.02571  -0.02577   2.31711
    A7        1.90440  -0.00028   0.00000   0.00038   0.00037   1.90476
    A8        2.31891  -0.01202   0.00000  -0.01249  -0.01248   2.30643
    A9        2.05972   0.01232   0.00000   0.01212   0.01212   2.07184
   A10        1.95339  -0.01794   0.00000  -0.01918  -0.01920   1.93419
   A11        2.17580   0.01300   0.00000   0.01471   0.01471   2.19052
   A12        2.15384   0.00497   0.00000   0.00453   0.00454   2.15838
   A13        1.62490  -0.00156   0.00000   0.00198   0.00178   1.62668
   A14        2.12884  -0.00348   0.00000  -0.00338  -0.00339   2.12545
   A15        2.24013  -0.00481   0.00000  -0.00473  -0.00474   2.23538
   A16        1.91352   0.00838   0.00000   0.00826   0.00827   1.92179
   A17        1.61891  -0.00769   0.00000  -0.00598  -0.00599   1.61291
   A18        1.96152  -0.01167   0.00000  -0.01054  -0.01064   1.95088
   A19        2.23844   0.00930   0.00000   0.01257   0.01245   2.25089
   A20        1.96530   0.00688   0.00000   0.00662   0.00667   1.97197
   A21        1.96670   0.00793   0.00000   0.00713   0.00716   1.97386
   A22        1.96627  -0.01396   0.00000  -0.01278  -0.01285   1.95342
   A23        2.23713   0.01006   0.00000   0.01328   0.01317   2.25031
   A24        1.96338   0.00308   0.00000   0.00118   0.00125   1.96463
   A25        2.16135  -0.00613   0.00000  -0.00607  -0.00613   2.15522
   A26        2.14670   0.00379   0.00000   0.00645   0.00639   2.15309
   A27        1.59314  -0.00003   0.00000   0.00125   0.00122   1.59436
   A28        1.96002   0.00131   0.00000   0.00077   0.00075   1.96077
   A29        2.13533  -0.00399   0.00000  -0.00413  -0.00418   2.13114
   A30        2.17039   0.00401   0.00000   0.00610   0.00606   2.17645
   A31        1.93970   0.00581   0.00000   0.00416   0.00422   1.94393
   A32        2.16544   0.00006   0.00000   0.00258   0.00248   2.16792
   A33        2.14170  -0.00370   0.00000  -0.00230  -0.00240   2.13930
   A34        2.33954  -0.06949   0.00000  -0.08797  -0.08797   2.25156
    D1        0.00683  -0.00135   0.00000  -0.00293  -0.00296   0.00388
    D2        3.05589  -0.00070   0.00000   0.00020   0.00031   3.05620
    D3       -2.93068  -0.00200   0.00000  -0.00729  -0.00744  -2.93812
    D4        0.11838  -0.00135   0.00000  -0.00416  -0.00418   0.11421
    D5       -0.00671   0.00160   0.00000   0.00320   0.00321  -0.00350
    D6       -3.13020  -0.00050   0.00000  -0.00069  -0.00068  -3.13087
    D7        2.92697   0.00615   0.00000   0.01163   0.01156   2.93853
    D8       -0.19651   0.00405   0.00000   0.00773   0.00767  -0.18884
    D9       -0.13323   0.00213   0.00000   0.00252   0.00248  -0.13074
   D10       -3.04818  -0.00460   0.00000  -0.00814  -0.00810  -3.05628
   D11       -0.00388   0.00072   0.00000   0.00154   0.00149  -0.00239
   D12        3.11762   0.00178   0.00000   0.00223   0.00219   3.11981
   D13       -3.02603  -0.00374   0.00000  -0.00704  -0.00701  -3.03304
   D14        0.09547  -0.00267   0.00000  -0.00635  -0.00632   0.08915
   D15        0.00006   0.00023   0.00000   0.00030   0.00031   0.00037
   D16       -3.12486  -0.00036   0.00000   0.00002   0.00003  -3.12483
   D17       -1.57073  -0.00176   0.00000   0.00000  -0.00000  -1.57073
   D18        1.52647   0.00125   0.00000   0.00464   0.00464   1.53111
   D19        1.54936  -0.00076   0.00000   0.00060   0.00061   1.54997
   D20       -1.63663   0.00224   0.00000   0.00524   0.00525  -1.63138
   D21        0.00376  -0.00104   0.00000  -0.00200  -0.00200   0.00176
   D22        3.12751   0.00113   0.00000   0.00197   0.00193   3.12944
   D23        3.13776   0.00128   0.00000   0.00208   0.00208   3.13984
   D24        0.03313  -0.00097   0.00000  -0.00154  -0.00156   0.03157
   D25       -3.13881  -0.00222   0.00000  -0.00357  -0.00355   3.14083
   D26       -0.15735   0.00321   0.00000   0.00769   0.00768  -0.14968
   D27       -0.03720   0.00028   0.00000   0.00041   0.00045  -0.03675
   D28        2.94426   0.00571   0.00000   0.01166   0.01167   2.95593
   D29       -0.02125   0.00194   0.00000   0.00277   0.00275  -0.01850
   D30       -2.61585  -0.00869   0.00000  -0.01654  -0.01655  -2.63240
   D31        0.00316  -0.00162   0.00000  -0.00262  -0.00259   0.00057
   D32       -2.68845  -0.01197   0.00000  -0.02048  -0.02031  -2.70876
   D33        2.68645   0.00920   0.00000   0.01655   0.01645   2.70289
   D34       -0.00516  -0.00115   0.00000  -0.00131  -0.00127  -0.00644
   D35        2.61380   0.00681   0.00000   0.01571   0.01583   2.62962
   D36       -0.24721  -0.00087   0.00000  -0.00062  -0.00056  -0.24777
   D37        0.02015   0.00084   0.00000   0.00069   0.00066   0.02081
   D38       -2.84085  -0.00684   0.00000  -0.01564  -0.01573  -2.85658
   D39        0.02257   0.00094   0.00000   0.00143   0.00141   0.02398
   D40       -2.96044  -0.00339   0.00000  -0.00840  -0.00848  -2.96891
   D41        2.62828   0.00551   0.00000   0.01402   0.01415   2.64243
   D42       -0.35472   0.00118   0.00000   0.00419   0.00426  -0.35046
   D43       -0.00861   0.00125   0.00000   0.00148   0.00146  -0.00715
   D44       -2.61443  -0.00874   0.00000  -0.01605  -0.01603  -2.63046
   D45        0.02018  -0.00063   0.00000  -0.00098  -0.00098   0.01920
   D46        2.97009   0.00706   0.00000   0.01467   0.01461   2.98471
   D47       -0.02655   0.00017   0.00000   0.00049   0.00051  -0.02603
   D48        2.83893   0.00841   0.00000   0.01746   0.01748   2.85641
   D49       -2.97193  -0.00666   0.00000  -0.01419  -0.01422  -2.98614
   D50       -0.10645   0.00158   0.00000   0.00278   0.00275  -0.10370
         Item               Value     Threshold  Converged?
 Maximum Force            0.140748     0.000450     NO 
 RMS     Force            0.028917     0.000300     NO 
 Maximum Displacement     0.368651     0.001800     NO 
 RMS     Displacement     0.056997     0.001200     NO 
 Predicted change in Energy=-7.783409D-02
 GradGradGradGradGradGradGradGradGradGradGradGradGradGradGradGradGradGrad

                          Input orientation:                          
 ---------------------------------------------------------------------
 Center     Atomic      Atomic             Coordinates (Angstroms)
 Number     Number       Type             X           Y           Z
 ---------------------------------------------------------------------
      1          6           0       -4.226810   -1.365339   -0.217835
      2          6           0       -2.914228   -0.961408   -0.618975
      3          6           0       -1.985920   -2.036465   -0.621552
      4          6           0       -4.336088   -2.726572    0.095043
      5         16           0       -2.817290   -3.527742   -0.108011
      6          1           0       -5.239007   -3.226980    0.407952
      7          6           0       -0.574067   -2.108059   -0.973168
      8         16           0       -0.038052   -2.472486   -2.631426
      9          6           0        1.630172   -2.365303   -2.193862
     10          6           0        1.794831   -2.035581   -0.823934
     11          6           0        0.554397   -1.871793   -0.133876
     12          1           0        0.479720   -1.472644    0.864790
     13         16           0        3.317631   -1.268156   -0.522129
     14          6           0        3.760976   -1.387788   -2.217444
     15          6           0        2.745600   -1.982684   -2.996973
     16          1           0        4.635206   -0.897594   -2.617678
     17          1           0        2.721650   -1.909709   -4.077955
     18          1           0       -2.838169    0.178881   -0.975074
     19          8           0       -5.516631   -0.411532   -0.391510
     20          1           0       -5.564919    0.723952   -0.728384
 ---------------------------------------------------------------------
                    Distance matrix (angstroms):
                    1          2          3          4          5
     1  C    0.000000
     2  C    1.430715   0.000000
     3  C    2.373812   1.420390   0.000000
     4  C    1.400996   2.376408   2.552067   0.000000
     5  S    2.583563   2.618502   1.782922   1.729119   0.000000
     6  H    2.209493   3.404702   3.613832   1.078695   2.494272
     7  C    3.803247   2.629946   1.456739   3.959348   2.792140
     8  S    4.959524   3.821740   2.832648   5.096205   3.899404
     9  C    6.261696   5.010265   3.956819   6.400458   5.047965
    10  C    6.089067   4.834365   3.786164   6.237801   4.900077
    11  C    4.808689   3.618768   2.591941   4.969900   3.756477
    12  H    4.830633   3.739225   2.933682   5.035559   4.005003
    13  S    7.551200   6.240155   5.359836   7.815836   6.550915
    14  C    8.234298   6.877154   5.999539   8.526569   7.232060
    15  C    7.531216   6.223466   5.294601   7.763005   6.455931
    16  H    9.193115   7.809791   7.008628   9.549248   8.291912
    17  H    7.967305   6.680339   5.841575   8.239712   7.004166
    18  H    2.210509   1.197017   2.399804   3.439560   3.806743
    19  O    1.613552   2.669571   3.893488   2.643828   4.132503
    20  H    2.533048   3.143019   4.521122   3.754221   5.100120
                    6          7          8          9         10
     6  H    0.000000
     7  C    4.992108   0.000000
     8  S    6.070998   1.780432   0.000000
     9  C    7.395779   2.532772   1.727982   0.000000
    10  C    7.239603   2.374700   2.611010   1.418637   0.000000
    11  C    5.974416   1.426066   2.636206   2.375791   1.428875
    12  H    5.999186   2.211857   3.673050   3.387585   2.213189
    13  S    8.827123   4.006768   4.142482   2.616475   1.731747
    14  C    9.553797   4.567232   3.972476   2.344444   2.495442
    15  C    8.769022   3.889948   2.849956   1.426732   2.372521
    16  H   10.586811   5.595191   4.931513   3.371056   3.546866
    17  H    9.232044   4.532195   3.166247   2.224567   3.385777
    18  H    4.390521   3.218114   4.196892   5.284352   5.137253
    19  O    2.939892   5.257896   6.267342   7.625122   7.502133
    20  H    4.123996   5.743588   6.662209   7.966206   7.860665
                   11         12         13         14         15
    11  C    0.000000
    12  H    1.078068   0.000000
    13  S    2.854922   3.165296   0.000000
    14  C    3.854564   4.502667   1.756406   0.000000
    15  C    3.607075   4.506392   2.638678   1.411578   0.000000
    16  H    4.875586   5.452186   2.502927   1.079239   2.211763
    17  H    4.500464   5.444998   3.662060   2.194106   1.083707
    18  H    4.052454   4.137756   6.339791   6.895407   6.319724
    19  O    6.249490   6.217755   8.876658   9.505846   8.804625
    20  H    6.673631   6.625775   9.105532   9.677244   9.029789
                   16         17         18         19         20
    16  H    0.000000
    17  H    2.611223   0.000000
    18  H    7.727113   6.700871   0.000000
    19  O   10.404417   9.148972   2.804157   0.000000
    20  H   10.499590   9.317887   2.791616   1.185385   0.000000
 Stoichiometry    C10H6OS3
 Framework group  C1[X(C10H6OS3)]
 Deg. of freedom    54
 Full point group                 C1      NOp   1
 Largest Abelian subgroup         C1      NOp   1
 Largest concise Abelian subgroup C1      NOp   1
                         Standard orientation:                         
 ---------------------------------------------------------------------
 Center     Atomic      Atomic             Coordinates (Angstroms)
 Number     Number       Type             X           Y           Z
 ---------------------------------------------------------------------
      1          6           0        3.775550    0.546285    0.436055
      2          6           0        2.399843    0.707948    0.794161
      3          6           0        1.517225    0.062083   -0.112124
      4          6           0        3.979234   -0.205223   -0.728650
      5         16           0        2.471419   -0.727552   -1.394622
      6          1           0        4.938592   -0.447072   -1.158447
      7          6           0        0.066249   -0.064052   -0.141237
      8         16           0       -0.773484   -1.417209    0.654850
      9          6           0       -2.326411   -0.833831    0.171103
     10          6           0       -2.229010    0.377573   -0.560705
     11          6           0       -0.882431    0.826329   -0.725098
     12          1           0       -0.624665    1.797602   -1.115502
     13         16           0       -3.683067    1.312696   -0.459646
     14          6           0       -4.445557    0.094574    0.550180
     15          6           0       -3.586740   -0.992540    0.820678
     16          1           0       -5.393568    0.264606    1.037129
     17          1           0       -3.776180   -1.701301    1.618294
     18          1           0        2.226047    1.269761    1.836759
     19          8           0        4.981354    0.939744    1.433440
     20          1           0        4.933347    1.496624    2.478772
 ---------------------------------------------------------------------
 Rotational constants (GHZ):           1.3619657           0.2200642           0.2171204
 Standard basis: Aug-CC-pVDZ (5D, 7F)
 There are   416 symmetry adapted cartesian basis functions of A   symmetry.
 There are   388 symmetry adapted basis functions of A   symmetry.
   388 basis functions,   782 primitive gaussians,   416 cartesian basis functions
    61 alpha electrons       61 beta electrons
       nuclear repulsion energy      1086.3592831022 Hartrees.
 NAtoms=   20 NActive=   20 NUniq=   20 SFac= 1.00D+00 NAtFMM=   60 NAOKFM=F Big=F
 Integral buffers will be    131072 words long.
 Raffenetti 1 integral format.
 Two-electron integral symmetry is turned on.
 One-electron integrals computed using PRISM.
 NBasis=   388 RedAO= T EigKep=  6.18D-06  NBF=   388
 NBsUse=   388 1.00D-06 EigRej= -1.00D+00 NBFU=   388
 Initial guess from the checkpoint file:  "/tmp/pbs.4766241[85].pbs/Gau-1087666.chk"
 B after Tr=    -0.000000   -0.000000   -0.000000
         Rot=    0.997648   -0.068507    0.002236   -0.000898 Ang=  -7.86 deg.
 ExpMin= 2.97D-02 ExpMax= 1.11D+05 ExpMxC= 1.07D+03 IAcc=3 IRadAn=         5 AccDes= 0.00D+00
 Harris functional with IExCor=  205 and IRadAn=       5 diagonalized for initial guess.
 HarFok:  IExCor=  205 AccDes= 0.00D+00 IRadAn=         5 IDoV= 1 UseB2=F ITyADJ=14
 ICtDFT=  3500011 ScaDFX=  1.000000  1.000000  1.000000  1.000000
 FoFCou: FMM=F IPFlag=           0 FMFlag=      100000 FMFlg1=           0
         NFxFlg=           0 DoJE=T BraDBF=F KetDBF=T FulRan=T
         wScrn=  0.000000 ICntrl=       500 IOpCl=  0 I1Cent=   200000004 NGrid=           0
         NMat0=    1 NMatS0=      1 NMatT0=    0 NMatD0=    1 NMtDS0=    0 NMtDT0=    0
 Petite list used in FoFCou.
 Requested convergence on RMS density matrix=1.00D-08 within 128 cycles.
 Requested convergence on MAX density matrix=1.00D-06.
 Requested convergence on             energy=1.00D-06.
 No special actions if energy rises.
 SCF Done:  E(RHF) =  -1649.50107825     A.U. after   15 cycles
            NFock= 15  Conv=0.72D-08     -V/T= 2.0012
 Calling FoFJK, ICntrl=      2127 FMM=F ISym2X=0 I1Cent= 0 IOpClX= 0 NMat=1 NMatS=1 NMatT=0.
 ***** Axes restored to original set *****
 -------------------------------------------------------------------
 Center     Atomic                   Forces (Hartrees/Bohr)
 Number     Number              X              Y              Z
 -------------------------------------------------------------------
      1        6          -0.051696222    0.017168779   -0.019237308
      2        6           0.016373768    0.020902112   -0.019683074
      3        6          -0.056782248    0.025216867    0.010036039
      4        6          -0.008802549    0.056388722   -0.008851264
      5       16           0.001573719    0.025906033   -0.001257576
      6        1           0.003332265   -0.002363518   -0.001970214
      7        6           0.068352235    0.015438821    0.022782161
      8       16          -0.007903033   -0.007575481    0.014724942
      9        6           0.006087974    0.024733033    0.035385432
     10        6          -0.019941839    0.002213032   -0.038505489
     11        6          -0.046456290   -0.010324956   -0.037554952
     12        1          -0.003703437   -0.006022289    0.002238070
     13       16           0.009847971   -0.008250752   -0.011666194
     14        6          -0.047200707   -0.019548025   -0.027496485
     15        6           0.038875657    0.031241512    0.028248688
     16        1           0.002885882   -0.005288261    0.005009066
     17        1           0.004937271   -0.008695470    0.003639484
     18        1           0.013383785   -0.063887015    0.018291887
     19        8           0.044208653    0.040329511   -0.011079958
     20        1           0.032627144   -0.127582656    0.036946744
 -------------------------------------------------------------------
 Cartesian Forces:  Max     0.127582656 RMS     0.031579875

 GradGradGradGradGradGradGradGradGradGradGradGradGradGradGradGradGradGrad
 Berny optimization.
 Using GEDIIS/GDIIS optimizer.
 FormGI is forming the generalized inverse of G from B-inverse, IUseBI=4.
 Internal  Forces:  Max     0.134040689 RMS     0.023907547
 Search for a local minimum.
 Step number   2 out of a maximum of  116
 All quantities printed in internal units (Hartrees-Bohrs-Radians)
 Mixed Optimization -- RFO/linear search
 Update second derivatives using D2CorX and points    1    2
 DE= -8.21D-02 DEPred=-7.78D-02 R= 1.05D+00
 TightC=F SS=  1.41D+00  RLast= 3.06D-01 DXNew= 5.0454D-01 9.1705D-01
 Trust test= 1.05D+00 RLast= 3.06D-01 DXMaxT set to 5.05D-01
 ITU=  1  0
 Use linear search instead of GDIIS.
 Linear search step of   0.600 exceeds DXMaxT=   0.505 but not scaled.
 Quartic linear search produced a step of  2.00000.
 Iteration  1 RMS(Cart)=  0.09921334 RMS(Int)=  0.01754347
 Iteration  2 RMS(Cart)=  0.01959819 RMS(Int)=  0.00036626
 Iteration  3 RMS(Cart)=  0.00016298 RMS(Int)=  0.00035094
 Iteration  4 RMS(Cart)=  0.00000007 RMS(Int)=  0.00035094
 Iteration  1 RMS(Cart)=  0.00000595 RMS(Int)=  0.00000263
 Iteration  2 RMS(Cart)=  0.00000324 RMS(Int)=  0.00000294
 Iteration  3 RMS(Cart)=  0.00000177 RMS(Int)=  0.00000332
 Iteration  4 RMS(Cart)=  0.00000096 RMS(Int)=  0.00000357
 Variable       Old X    -DE/DX   Delta X   Delta X   Delta X     New X
                                 (Linear)    (Quad)   (Total)
    R1        2.70366  -0.00865  -0.03102   0.00000  -0.03052   2.67314
    R2        2.64750  -0.06066  -0.13283   0.00000  -0.13263   2.51487
    R3        3.04917  -0.11578  -0.29173   0.00000  -0.29173   2.75744
    R4        2.68415  -0.06593  -0.14983   0.00000  -0.14961   2.53454
    R5        2.26203  -0.06545  -0.17721   0.00000  -0.17721   2.08482
    R6        3.36923  -0.02094  -0.05309   0.00000  -0.05345   3.31579
    R7        2.75284   0.00599   0.00661   0.00000   0.00661   2.75944
    R8        3.26756  -0.01097  -0.03830   0.00000  -0.03868   3.22889
    R9        2.03844  -0.00226  -0.00458   0.00000  -0.00458   2.03386
   R10        3.36453  -0.01439  -0.03758   0.00000  -0.03783   3.32670
   R11        2.69487  -0.06609  -0.14623   0.00000  -0.14625   2.54863
   R12        3.26541  -0.00140  -0.00928   0.00000  -0.00936   3.25605
   R13        2.68083  -0.03938  -0.08457   0.00000  -0.08411   2.59672
   R14        2.69613   0.00426   0.00237   0.00000   0.00268   2.69881
   R15        2.70018  -0.00223  -0.01445   0.00000  -0.01422   2.68596
   R16        3.27253   0.00022  -0.00379   0.00000  -0.00391   3.26861
   R17        2.03725   0.00010   0.00005   0.00000   0.00005   2.03731
   R18        3.31913  -0.01228  -0.03337   0.00000  -0.03369   3.28543
   R19        2.66750  -0.05712  -0.12431   0.00000  -0.12433   2.54317
   R20        2.03947  -0.00192  -0.00468   0.00000  -0.00468   2.03478
   R21        2.04791  -0.00432  -0.01089   0.00000  -0.01089   2.03702
   R22        2.24005  -0.13404  -0.31875   0.00000  -0.31875   1.92130
    A1        1.99160   0.01291   0.04279   0.00000   0.04344   2.03503
    A2        2.13684   0.00492   0.00849   0.00000   0.00820   2.14504
    A3        2.13653  -0.01711  -0.04852   0.00000  -0.04900   2.08752
    A4        1.96754  -0.00164  -0.00866   0.00000  -0.00795   1.95959
    A5        1.99396   0.02033   0.06125   0.00000   0.06090   2.05486
    A6        2.31711  -0.01847  -0.05154   0.00000  -0.05195   2.26516
    A7        1.90476   0.00257   0.00073   0.00000   0.00070   1.90546
    A8        2.30643  -0.01112  -0.02497   0.00000  -0.02495   2.28148
    A9        2.07184   0.00856   0.02425   0.00000   0.02427   2.09611
   A10        1.93419  -0.01018  -0.03839   0.00000  -0.03851   1.89568
   A11        2.19052   0.00874   0.02943   0.00000   0.02947   2.21999
   A12        2.15838   0.00146   0.00908   0.00000   0.00912   2.16750
   A13        1.62668  -0.00367   0.00357   0.00000   0.00234   1.62902
   A14        2.12545  -0.00357  -0.00678   0.00000  -0.00685   2.11860
   A15        2.23538  -0.00391  -0.00949   0.00000  -0.00956   2.22582
   A16        1.92179   0.00756   0.01654   0.00000   0.01664   1.93843
   A17        1.61291  -0.00650  -0.01198   0.00000  -0.01207   1.60084
   A18        1.95088  -0.00778  -0.02129   0.00000  -0.02191   1.92897
   A19        2.25089   0.00738   0.02490   0.00000   0.02418   2.27507
   A20        1.97197   0.00445   0.01334   0.00000   0.01366   1.98563
   A21        1.97386   0.00475   0.01432   0.00000   0.01448   1.98834
   A22        1.95342  -0.00899  -0.02570   0.00000  -0.02608   1.92734
   A23        2.25031   0.00794   0.02635   0.00000   0.02571   2.27602
   A24        1.96463   0.00201   0.00250   0.00000   0.00294   1.96757
   A25        2.15522  -0.00416  -0.01226   0.00000  -0.01263   2.14259
   A26        2.15309   0.00280   0.01278   0.00000   0.01241   2.16551
   A27        1.59436  -0.00131   0.00243   0.00000   0.00220   1.59656
   A28        1.96077   0.00211   0.00150   0.00000   0.00139   1.96216
   A29        2.13114  -0.00435  -0.00836   0.00000  -0.00866   2.12248
   A30        2.17645   0.00341   0.01213   0.00000   0.01189   2.18835
   A31        1.94393   0.00375   0.00845   0.00000   0.00886   1.95279
   A32        2.16792  -0.00015   0.00496   0.00000   0.00437   2.17229
   A33        2.13930  -0.00170  -0.00481   0.00000  -0.00543   2.13387
   A34        2.25156  -0.06086  -0.17594   0.00000  -0.17594   2.07562
    D1        0.00388  -0.00102  -0.00591   0.00000  -0.00606  -0.00219
    D2        3.05620  -0.00002   0.00062   0.00000   0.00126   3.05746
    D3       -2.93812  -0.00293  -0.01488   0.00000  -0.01578  -2.95390
    D4        0.11421  -0.00194  -0.00835   0.00000  -0.00846   0.10574
    D5       -0.00350   0.00125   0.00641   0.00000   0.00643   0.00293
    D6       -3.13087  -0.00054  -0.00135   0.00000  -0.00126  -3.13213
    D7        2.93853   0.00599   0.02311   0.00000   0.02270   2.96123
    D8       -0.18884   0.00420   0.01535   0.00000   0.01501  -0.17382
    D9       -0.13074   0.00164   0.00497   0.00000   0.00474  -0.12601
   D10       -3.05628  -0.00409  -0.01620   0.00000  -0.01597  -3.07225
   D11       -0.00239   0.00039   0.00298   0.00000   0.00270   0.00031
   D12        3.11981   0.00150   0.00437   0.00000   0.00411   3.12391
   D13       -3.03304  -0.00377  -0.01403   0.00000  -0.01382  -3.04686
   D14        0.08915  -0.00266  -0.01263   0.00000  -0.01241   0.07674
   D15        0.00037   0.00029   0.00063   0.00000   0.00073   0.00110
   D16       -3.12483  -0.00041   0.00006   0.00000   0.00010  -3.12473
   D17       -1.57073  -0.00182  -0.00001   0.00000  -0.00000  -1.57073
   D18        1.53111   0.00113   0.00928   0.00000   0.00928   1.54038
   D19        1.54997  -0.00071   0.00122   0.00000   0.00125   1.55122
   D20       -1.63138   0.00224   0.01050   0.00000   0.01053  -1.62085
   D21        0.00176  -0.00086  -0.00400   0.00000  -0.00401  -0.00225
   D22        3.12944   0.00096   0.00385   0.00000   0.00361   3.13305
   D23        3.13984   0.00110   0.00416   0.00000   0.00418  -3.13917
   D24        0.03157  -0.00118  -0.00312   0.00000  -0.00324   0.02833
   D25        3.14083  -0.00174  -0.00710   0.00000  -0.00698   3.13385
   D26       -0.14968   0.00322   0.01535   0.00000   0.01528  -0.13439
   D27       -0.03675   0.00075   0.00089   0.00000   0.00113  -0.03563
   D28        2.95593   0.00571   0.02334   0.00000   0.02339   2.97932
   D29       -0.01850   0.00169   0.00551   0.00000   0.00542  -0.01308
   D30       -2.63240  -0.00783  -0.03310   0.00000  -0.03313  -2.66553
   D31        0.00057  -0.00119  -0.00518   0.00000  -0.00503  -0.00447
   D32       -2.70876  -0.01044  -0.04062   0.00000  -0.03959  -2.74835
   D33        2.70289   0.00841   0.03289   0.00000   0.03223   2.73512
   D34       -0.00644  -0.00084  -0.00255   0.00000  -0.00233  -0.00877
   D35        2.62962   0.00707   0.03165   0.00000   0.03236   2.66198
   D36       -0.24777  -0.00039  -0.00112   0.00000  -0.00077  -0.24854
   D37        0.02081   0.00038   0.00133   0.00000   0.00117   0.02199
   D38       -2.85658  -0.00708  -0.03145   0.00000  -0.03195  -2.88853
   D39        0.02398   0.00034   0.00282   0.00000   0.00271   0.02669
   D40       -2.96891  -0.00393  -0.01695   0.00000  -0.01740  -2.98631
   D41        2.64243   0.00611   0.02829   0.00000   0.02903   2.67145
   D42       -0.35046   0.00184   0.00853   0.00000   0.00891  -0.34155
   D43       -0.00715   0.00110   0.00292   0.00000   0.00280  -0.00435
   D44       -2.63046  -0.00783  -0.03206   0.00000  -0.03193  -2.66239
   D45        0.01920  -0.00078  -0.00197   0.00000  -0.00200   0.01720
   D46        2.98471   0.00656   0.02923   0.00000   0.02890   3.01361
   D47       -0.02603   0.00050   0.00103   0.00000   0.00117  -0.02486
   D48        2.85641   0.00807   0.03497   0.00000   0.03512   2.89153
   D49       -2.98614  -0.00614  -0.02844   0.00000  -0.02861  -3.01476
   D50       -0.10370   0.00143   0.00551   0.00000   0.00534  -0.09836
         Item               Value     Threshold  Converged?
 Maximum Force            0.134041     0.000450     NO 
 RMS     Force            0.024020     0.000300     NO 
 Maximum Displacement     0.667913     0.001800     NO 
 RMS     Displacement     0.111162     0.001200     NO 
 Predicted change in Energy=-1.210856D-01
 GradGradGradGradGradGradGradGradGradGradGradGradGradGradGradGradGradGrad

                          Input orientation:                          
 ---------------------------------------------------------------------
 Center     Atomic      Atomic             Coordinates (Angstroms)
 Number     Number       Type             X           Y           Z
 ---------------------------------------------------------------------
      1          6           0       -4.178703   -1.371868   -0.233761
      2          6           0       -2.879938   -0.982058   -0.636556
      3          6           0       -2.015055   -2.007103   -0.625324
      4          6           0       -4.344710   -2.653726    0.083005
      5         16           0       -2.850100   -3.460054   -0.105331
      6          1           0       -5.254495   -3.132822    0.400991
      7          6           0       -0.599721   -2.063213   -0.980240
      8         16           0       -0.080031   -2.425213   -2.622781
      9          6           0        1.580560   -2.301392   -2.180143
     10          6           0        1.701812   -1.982847   -0.848960
     11          6           0        0.458529   -1.830540   -0.177185
     12          1           0        0.356837   -1.449681    0.826257
     13         16           0        3.239660   -1.253785   -0.540302
     14          6           0        3.694325   -1.398816   -2.212095
     15          6           0        2.722334   -1.949477   -2.962525
     16          1           0        4.598987   -0.954889   -2.591472
     17          1           0        2.735171   -1.910435   -4.039688
     18          1           0       -2.739296    0.056542   -0.981042
     19          8           0       -5.345692   -0.507614   -0.376593
     20          1           0       -5.211474    0.453989   -0.678253
 ---------------------------------------------------------------------
                    Distance matrix (angstroms):
                    1          2          3          4          5
     1  C    0.000000
     2  C    1.414562   0.000000
     3  C    2.288715   1.341218   0.000000
     4  C    1.330811   2.336193   2.519354   0.000000
     5  S    2.478346   2.534473   1.754639   1.708653   0.000000
     6  H    2.158981   3.367612   3.579740   1.076270   2.478822
     7  C    3.720794   2.546843   1.460235   3.937530   2.789415
     8  S    4.859636   3.723878   2.812289   5.055787   3.883520
     9  C    6.149921   4.900954   3.928424   6.352543   5.027732
    10  C    5.944091   4.694584   3.723667   6.154597   4.843038
    11  C    4.660204   3.475098   2.520044   4.880209   3.688835
    12  H    4.658414   3.582625   2.836138   4.909857   3.897935
    13  S    7.425633   6.126384   5.309119   7.737636   6.491687
    14  C    8.117826   6.773252   5.956918   8.453896   7.177510
    15  C    7.443393   6.142596   5.282867   7.727505   6.441849
    16  H    9.098379   7.730249   6.979859   9.488339   8.242914
    17  H    7.910549   6.631187   5.850801   8.226408   7.005408
    18  H    2.161175   1.103241   2.215783   3.324921   3.625685
    19  O    1.459177   2.524405   3.661076   2.412258   3.875366
    20  H    2.144282   2.738618   4.034461   3.314918   4.606958
                    6          7          8          9         10
     6  H    0.000000
     7  C    4.971799   0.000000
     8  S    6.034814   1.760415   0.000000
     9  C    7.353333   2.500024   1.723028   0.000000
    10  C    7.160658   2.306674   2.552860   1.374126   0.000000
    11  C    5.888028   1.348676   2.573834   2.343607   1.421348
    12  H    5.873744   2.134211   3.610870   3.355793   2.213498
    13  S    8.750285   3.948362   4.090148   2.557180   1.729676
    14  C    9.482424   4.516383   3.932928   2.298623   2.483815
    15  C    8.737468   3.870199   2.862692   1.428151   2.347283
    16  H   10.525651   5.554368   4.904696   3.330640   3.533648
    17  H    9.222181   4.528252   3.193429   2.223484   3.354672
    18  H    4.290488   3.011835   3.990753   5.065457   4.888761
    19  O    2.739465   5.030757   6.037361   7.378577   7.215729
    20  H    3.745909   5.262678   6.196991   7.481947   7.332178
                   11         12         13         14         15
    11  C    0.000000
    12  H    1.078096   0.000000
    13  S    2.863423   3.196330   0.000000
    14  C    3.846767   4.513645   1.738576   0.000000
    15  C    3.591250   4.494468   2.572698   1.345786   0.000000
    16  H    4.872261   5.470057   2.478791   1.076759   2.156087
    17  H    4.484240   5.435640   3.596025   2.126458   1.077946
    18  H    3.799125   3.888583   6.136703   6.710070   6.146527
    19  O    5.956415   5.903657   8.619271   9.267427   8.594129
    20  H    6.133440   6.074010   8.623062   9.224902   8.598829
                   16         17         18         19         20
    16  H    0.000000
    17  H    2.546411   0.000000
    18  H    7.580691   6.572222   0.000000
    19  O   10.198155   8.982567   2.734398   0.000000
    20  H   10.094082   8.946447   2.522164   1.016708   0.000000
 Stoichiometry    C10H6OS3
 Framework group  C1[X(C10H6OS3)]
 Deg. of freedom    54
 Full point group                 C1      NOp   1
 Largest Abelian subgroup         C1      NOp   1
 Largest concise Abelian subgroup C1      NOp   1
                         Standard orientation:                         
 ---------------------------------------------------------------------
 Center     Atomic      Atomic             Coordinates (Angstroms)
 Number     Number       Type             X           Y           Z
 ---------------------------------------------------------------------
      1          6           0        3.700077    0.434787    0.544743
      2          6           0        2.334256    0.512866    0.904499
      3          6           0        1.525061    0.084412   -0.075550
      4          6           0        3.970338   -0.038218   -0.669458
      5         16           0        2.497023   -0.415900   -1.448043
      6          1           0        4.941384   -0.177345   -1.112257
      7          6           0        0.070085   -0.027245   -0.129045
[...]
 Number     Number       Type             X           Y           Z
 ---------------------------------------------------------------------
      1          6           0        3.796605    0.200022    0.595469
      2          6           0        2.417973    0.159026    1.000377
      3          6           0        1.569142    0.058607   -0.046771
      4          6           0        3.959309    0.125874   -0.740619
      5         16           0        2.431799    0.006259   -1.551358
      6          1           0        4.885304    0.138153   -1.287457
      7          6           0        0.095030   -0.007032    0.001475
      8         16           0       -0.724014   -1.557549    0.118706
      9          6           0       -2.270232   -0.767757    0.115252
     10          6           0       -2.130953    0.586478    0.026550
     11          6           0       -0.769349    1.029963   -0.042007
     12          1           0       -0.453615    2.057415   -0.120818
     13         16           0       -3.677786    1.377417    0.025219
     14          6           0       -4.484308   -0.163984    0.147677
     15          6           0       -3.633856   -1.210636    0.186087
     16          1           0       -5.559997   -0.199048    0.182669
     17          1           0       -3.948291   -2.238827    0.259367
     18          1           0        2.087538    0.203203    2.027803
     19          8           0        4.834924    0.306224    1.455969
     20          1           0        4.533528    0.307925    2.348666
 ---------------------------------------------------------------------
 Rotational constants (GHZ):           1.4929420           0.2257066           0.2212073

 **********************************************************************

            Population analysis using the SCF Density.

 **********************************************************************

 Orbital symmetries:
       Occupied  (A) (A) (A) (A) (A) (A) (A) (A) (A) (A) (A) (A)
                 (A) (A) (A) (A) (A) (A) (A) (A) (A) (A) (A) (A)
                 (A) (A) (A) (A) (A) (A) (A) (A) (A) (A) (A) (A)
                 (A) (A) (A) (A) (A) (A) (A) (A) (A) (A) (A) (A)
                 (A) (A) (A) (A) (A) (A) (A) (A) (A) (A) (A) (A)
                 (A)
       Virtual   (A) (A) (A) (A) (A) (A) (A) (A) (A) (A) (A) (A)
                 (A) (A) (A) (A) (A) (A) (A) (A) (A) (A) (A) (A)
                 (A) (A) (A) (A) (A) (A) (A) (A) (A) (A) (A) (A)
                 (A) (A) (A) (A) (A) (A) (A) (A) (A) (A) (A) (A)
                 (A) (A) (A) (A) (A) (A) (A) (A) (A) (A) (A) (A)
                 (A) (A) (A) (A) (A) (A) (A) (A) (A) (A) (A) (A)
                 (A) (A) (A) (A) (A) (A) (A) (A) (A) (A) (A) (A)
                 (A) (A) (A) (A) (A) (A) (A) (A) (A) (A) (A) (A)
                 (A) (A) (A) (A) (A) (A) (A) (A) (A) (A) (A) (A)
                 (A) (A) (A) (A) (A) (A) (A) (A) (A) (A) (A) (A)
                 (A) (A) (A) (A) (A) (A) (A) (A) (A) (A) (A) (A)
                 (A) (A) (A) (A) (A) (A) (A) (A) (A) (A) (A) (A)
                 (A) (A) (A) (A) (A) (A) (A) (A) (A) (A) (A) (A)
                 (A) (A) (A) (A) (A) (A) (A) (A) (A) (A) (A) (A)
                 (A) (A) (A) (A) (A) (A) (A) (A) (A) (A) (A) (A)
                 (A) (A) (A) (A) (A) (A) (A) (A) (A) (A) (A) (A)
                 (A) (A) (A) (A) (A) (A) (A) (A) (A) (A) (A) (A)
                 (A) (A) (A) (A) (A) (A) (A) (A) (A) (A) (A) (A)
                 (A) (A) (A) (A) (A) (A) (A) (A) (A) (A) (A) (A)
                 (A) (A) (A) (A) (A) (A) (A) (A) (A) (A) (A) (A)
                 (A) (A) (A) (A) (A) (A) (A) (A) (A) (A) (A) (A)
                 (A) (A) (A) (A) (A) (A) (A) (A) (A) (A) (A) (A)
                 (A) (A) (A) (A) (A) (A) (A) (A) (A) (A) (A) (A)
                 (A) (A) (A) (A) (A) (A) (A) (A) (A) (A) (A) (A)
                 (A) (A) (A) (A) (A) (A) (A) (A) (A) (A) (A) (A)
                 (A) (A) (A) (A) (A) (A) (A) (A) (A) (A) (A) (A)
                 (A) (A) (A) (A) (A) (A) (A) (A) (A) (A) (A) (A)
                 (A) (A) (A)
 The electronic state is 1-A.
 Alpha  occ. eigenvalues --  -91.99438 -91.99371 -91.98880 -20.60694 -11.31287
 Alpha  occ. eigenvalues --  -11.29314 -11.29235 -11.28133 -11.27699 -11.27519
 Alpha  occ. eigenvalues --  -11.26351 -11.26108 -11.25631 -11.25523  -8.99593
 Alpha  occ. eigenvalues --   -8.99554  -8.99063  -6.67755  -6.67720  -6.67675
 Alpha  occ. eigenvalues --   -6.67642  -6.67465  -6.67435  -6.67230  -6.67140
 Alpha  occ. eigenvalues --   -6.66941  -1.42546  -1.22160  -1.18585  -1.13184
 Alpha  occ. eigenvalues --   -1.03018  -1.02569  -0.98995  -0.96102  -0.94985
 Alpha  occ. eigenvalues --   -0.84041  -0.78498  -0.77825  -0.74791  -0.72534
 Alpha  occ. eigenvalues --   -0.72331  -0.67508  -0.66127  -0.61078  -0.60596
 Alpha  occ. eigenvalues --   -0.58295  -0.57477  -0.56675  -0.54874  -0.54223
 Alpha  occ. eigenvalues --   -0.52466  -0.50934  -0.49352  -0.48713  -0.46651
 Alpha  occ. eigenvalues --   -0.46588  -0.39196  -0.35001  -0.32632  -0.31945
 Alpha  occ. eigenvalues --   -0.31078
 Alpha virt. eigenvalues --    0.03054   0.03380   0.04508   0.04694   0.04768
 Alpha virt. eigenvalues --    0.06210   0.07788   0.08220   0.08444   0.08659
 Alpha virt. eigenvalues --    0.09370   0.09900   0.10356   0.10795   0.11444
 Alpha virt. eigenvalues --    0.11999   0.12456   0.12647   0.13117   0.13418
 Alpha virt. eigenvalues --    0.13688   0.13830   0.14222   0.14515   0.14919
 Alpha virt. eigenvalues --    0.15567   0.15677   0.15834   0.16053   0.16749
 Alpha virt. eigenvalues --    0.17156   0.18064   0.18177   0.18406   0.18685
 Alpha virt. eigenvalues --    0.19599   0.19691   0.20082   0.20661   0.20773
 Alpha virt. eigenvalues --    0.21682   0.22238   0.22556   0.22648   0.23253
 Alpha virt. eigenvalues --    0.23732   0.24162   0.24774   0.25035   0.25483
 Alpha virt. eigenvalues --    0.26368   0.26608   0.27101   0.27579   0.28092
 Alpha virt. eigenvalues --    0.28555   0.28766   0.30093   0.30856   0.31163
 Alpha virt. eigenvalues --    0.31408   0.32160   0.32567   0.32714   0.32932
 Alpha virt. eigenvalues --    0.33188   0.34348   0.35168   0.35347   0.36022
 Alpha virt. eigenvalues --    0.36330   0.36787   0.37352   0.38334   0.38968
 Alpha virt. eigenvalues --    0.40063   0.40448   0.41228   0.41706   0.42491
 Alpha virt. eigenvalues --    0.42906   0.43576   0.43667   0.44349   0.44966
 Alpha virt. eigenvalues --    0.45137   0.45352   0.46828   0.47357   0.48016
 Alpha virt. eigenvalues --    0.48330   0.48578   0.49096   0.50156   0.51680
 Alpha virt. eigenvalues --    0.52473   0.53496   0.54025   0.54459   0.54968
 Alpha virt. eigenvalues --    0.56874   0.57126   0.57276   0.58051   0.58849
 Alpha virt. eigenvalues --    0.59199   0.60188   0.60844   0.61661   0.62851
 Alpha virt. eigenvalues --    0.63358   0.64074   0.64711   0.64936   0.65322
 Alpha virt. eigenvalues --    0.65690   0.66714   0.67075   0.67597   0.68580
 Alpha virt. eigenvalues --    0.69096   0.69400   0.69924   0.70581   0.71202
 Alpha virt. eigenvalues --    0.71983   0.72275   0.72851   0.73598   0.74127
 Alpha virt. eigenvalues --    0.74322   0.74555   0.75053   0.75856   0.76383
 Alpha virt. eigenvalues --    0.76801   0.77270   0.78396   0.78835   0.79472
 Alpha virt. eigenvalues --    0.80644   0.81617   0.82171   0.83093   0.83765
 Alpha virt. eigenvalues --    0.84112   0.84672   0.85348   0.85721   0.86552
 Alpha virt. eigenvalues --    0.87994   0.89130   0.90672   0.91077   0.91267
 Alpha virt. eigenvalues --    0.92767   0.93091   0.93416   0.94142   0.94699
 Alpha virt. eigenvalues --    0.95034   0.95405   0.96417   0.97409   0.98029
 Alpha virt. eigenvalues --    0.98647   0.99683   1.00163   1.00920   1.01587
 Alpha virt. eigenvalues --    1.02223   1.03639   1.06091   1.06355   1.06566
 Alpha virt. eigenvalues --    1.07658   1.08899   1.09703   1.10839   1.11095
 Alpha virt. eigenvalues --    1.12296   1.14375   1.16775   1.17350   1.18831
 Alpha virt. eigenvalues --    1.19654   1.21688   1.21787   1.22341   1.23394
 Alpha virt. eigenvalues --    1.23866   1.24520   1.24935   1.26104   1.26461
 Alpha virt. eigenvalues --    1.26859   1.27498   1.30442   1.30854   1.30980
 Alpha virt. eigenvalues --    1.32010   1.33506   1.34623   1.35232   1.35799
 Alpha virt. eigenvalues --    1.37330   1.38316   1.39337   1.40467   1.42981
 Alpha virt. eigenvalues --    1.43146   1.44364   1.45703   1.46995   1.48223
 Alpha virt. eigenvalues --    1.49379   1.53493   1.55211   1.55602   1.57202
 Alpha virt. eigenvalues --    1.57316   1.58376   1.59047   1.59402   1.60107
 Alpha virt. eigenvalues --    1.62138   1.63397   1.64882   1.65259   1.65919
 Alpha virt. eigenvalues --    1.67118   1.67354   1.69368   1.70678   1.71959
 Alpha virt. eigenvalues --    1.73109   1.73904   1.74767   1.75430   1.77758
 Alpha virt. eigenvalues --    1.79314   1.79865   1.80921   1.82494   1.83178
 Alpha virt. eigenvalues --    1.83584   1.85026   1.87405   1.88413   1.89401
 Alpha virt. eigenvalues --    1.91561   1.93759   1.95094   1.95954   1.96573
 Alpha virt. eigenvalues --    1.99331   2.00990   2.01397   2.02115   2.03472
 Alpha virt. eigenvalues --    2.04019   2.05764   2.06562   2.08379   2.10070
 Alpha virt. eigenvalues --    2.10407   2.12664   2.14154   2.14598   2.16305
 Alpha virt. eigenvalues --    2.18505   2.20239   2.20827   2.21570   2.22928
 Alpha virt. eigenvalues --    2.22979   2.25201   2.27273   2.28406   2.28786
 Alpha virt. eigenvalues --    2.30631   2.30818   2.33230   2.33708   2.36349
 Alpha virt. eigenvalues --    2.37127   2.39426   2.41510   2.43605   2.46593
 Alpha virt. eigenvalues --    2.47355   2.47900   2.49360   2.50816   2.54098
 Alpha virt. eigenvalues --    2.55627   2.57653   2.58983   2.62469   2.65942
 Alpha virt. eigenvalues --    2.73686   2.81444   2.84206   2.87297   2.88942
 Alpha virt. eigenvalues --    2.90415   2.95147   2.97674   2.99313   3.02110
 Alpha virt. eigenvalues --    3.10677   3.13445   3.23594   3.29350   3.33102
 Alpha virt. eigenvalues --    3.40517   3.52106   3.55798   3.60971   3.75161
 Alpha virt. eigenvalues --    3.76374   3.79668   3.85665   3.89773   4.21518
 Alpha virt. eigenvalues --    4.28974   4.44273
          Condensed to atoms (all electrons):
               1          2          3          4          5          6
     1  C    6.208235  -0.714587  -0.383356   0.216005  -0.313817   0.264387
     2  C   -0.714587  10.184741  -2.347283   0.195812  -0.729536   0.062314
     3  C   -0.383356  -2.347283  11.569684  -1.512244   0.544259   0.112254
     4  C    0.216005   0.195812  -1.512244   7.039348   0.302366  -0.165226
     5  S   -0.313817  -0.729536   0.544259   0.302366  16.229779  -0.174886
     6  H    0.264387   0.062314   0.112254  -0.165226  -0.174886   1.272055
     7  C    0.207657  -0.334844  -1.573280   0.235293  -0.646181  -0.009739
     8  S    0.049035   0.085925  -0.517393  -0.013565   0.074765  -0.000170
     9  C    0.037160  -0.038584  -0.391172   0.009316  -0.034438  -0.000384
    10  C   -0.010828   0.051327   0.482977   0.006489   0.075508   0.000989
    11  C   -0.044754  -0.050009  -0.315443  -0.192415   0.213391   0.000246
    12  H    0.015707   0.049187   0.030663   0.000543   0.013702   0.000265
    13  S   -0.001604   0.003575  -0.067340  -0.001254   0.000490  -0.000109
    14  C    0.000658  -0.006819   0.029631   0.000019   0.002760   0.000031
    15  C    0.002379  -0.001384  -0.359243  -0.004986  -0.010556  -0.000316
    16  H    0.000023   0.000103  -0.001006  -0.000009   0.000061   0.000001
    17  H    0.000162  -0.000048  -0.010034  -0.000242   0.000229  -0.000015
    18  H    0.132257  -0.460809   0.273480  -0.077166   0.043979  -0.003073
    19  O   -0.234811  -0.071497   0.077561  -0.079983  -0.005506  -0.007730
    20  H   -0.029092  -0.069761  -0.008214  -0.007127   0.003388  -0.006655
               7          8          9         10         11         12
     1  C    0.207657   0.049035   0.037160  -0.010828  -0.044754   0.015707
     2  C   -0.334844   0.085925  -0.038584   0.051327  -0.050009   0.049187
     3  C   -1.573280  -0.517393  -0.391172   0.482977  -0.315443   0.030663
     4  C    0.235293  -0.013565   0.009316   0.006489  -0.192415   0.000543
     5  S   -0.646181   0.074765  -0.034438   0.075508   0.213391   0.013702
     6  H   -0.009739  -0.000170  -0.000384   0.000989   0.000246   0.000265
     7  C   12.766310   0.127743   0.286861  -0.921348  -3.571664  -0.004281
     8  S    0.127743  16.389741   0.242717  -0.464710  -0.235256   0.036001
     9  C    0.286861   0.242717  10.901668  -0.632236  -1.787643  -0.042552
    10  C   -0.921348  -0.464710  -0.632236  11.902792  -2.628669   0.706605
    11  C   -3.571664  -0.235256  -1.787643  -2.628669  15.017859  -0.994073
    12  H   -0.004281   0.036001  -0.042552   0.706605  -0.994073   1.679370
    13  S   -0.252796   0.091958  -0.077436  -0.221467   0.007509  -0.039724
    14  C    0.058662  -0.093069  -0.056695  -0.993016  -0.167638   0.022017
    15  C   -0.666521  -0.205169  -2.294796  -1.122542   0.571693  -0.050585
    16  H    0.007536   0.007113   0.069904  -0.036513   0.028328   0.001557
    17  H    0.118245   0.009147   0.584396   0.052694  -0.066775  -0.001986
    18  H   -0.224729   0.009723  -0.010037   0.019444   0.107809   0.002300
    19  O    0.005704  -0.000202  -0.000024  -0.001777   0.009570   0.000112
    20  H   -0.009571   0.001227   0.000243  -0.000176   0.000975   0.000055
              13         14         15         16         17         18
     1  C   -0.001604   0.000658   0.002379   0.000023   0.000162   0.132257
     2  C    0.003575  -0.006819  -0.001384   0.000103  -0.000048  -0.460809
     3  C   -0.067340   0.029631  -0.359243  -0.001006  -0.010034   0.273480
     4  C   -0.001254   0.000019  -0.004986  -0.000009  -0.000242  -0.077166
     5  S    0.000490   0.002760  -0.010556   0.000061   0.000229   0.043979
     6  H   -0.000109   0.000031  -0.000316   0.000001  -0.000015  -0.003073
     7  C   -0.252796   0.058662  -0.666521   0.007536   0.118245  -0.224729
     8  S    0.091958  -0.093069  -0.205169   0.007113   0.009147   0.009723
     9  C   -0.077436  -0.056695  -2.294796   0.069904   0.584396  -0.010037
    10  C   -0.221467  -0.993016  -1.122542  -0.036513   0.052694   0.019444
    11  C    0.007509  -0.167638   0.571693   0.028328  -0.066775   0.107809
    12  H   -0.039724   0.022017  -0.050585   0.001557  -0.001986   0.002300
    13  S   15.920438   0.176541  -0.026205  -0.161403  -0.005309   0.000420
    14  C    0.176541   6.930762   0.097523   0.191684  -0.121245   0.000052
    15  C   -0.026205   0.097523   9.986052   0.046887  -0.603791  -0.002699
    16  H   -0.161403   0.191684   0.046887   1.291165  -0.068782   0.000058
    17  H   -0.005309  -0.121245  -0.603791  -0.068782   1.437871  -0.000082
    18  H    0.000420   0.000052  -0.002699   0.000058  -0.000082   1.789212
    19  O    0.000044  -0.000023   0.000132  -0.000001   0.000012  -0.064077
    20  H   -0.000034   0.000001   0.000167  -0.000000   0.000009  -0.011563
              19         20
     1  C   -0.234811  -0.029092
     2  C   -0.071497  -0.069761
     3  C    0.077561  -0.008214
     4  C   -0.079983  -0.007127
     5  S   -0.005506   0.003388
     6  H   -0.007730  -0.006655
     7  C    0.005704  -0.009571
     8  S   -0.000202   0.001227
     9  C   -0.000024   0.000243
    10  C   -0.001777  -0.000176
    11  C    0.009570   0.000975
    12  H    0.000112   0.000055
    13  S    0.000044  -0.000034
    14  C   -0.000023   0.000001
    15  C    0.000132   0.000167
    16  H   -0.000001  -0.000000
    17  H    0.000012   0.000009
    18  H   -0.064077  -0.011563
    19  O    8.872207   0.347961
    20  H    0.347961   0.658211
 Mulliken charges:
               1
     1  C    0.599184
     2  C    0.192176
     3  C    0.365499
     4  C    0.049028
     5  S    0.410244
     6  H   -0.344237
     7  C    0.400943
     8  S    0.404438
     9  C   -0.766267
    10  C   -0.265542
    11  C    0.096960
    12  H   -0.424884
    13  S    0.653708
    14  C   -0.071835
    15  C    0.643961
    16  H   -0.376706
    17  H   -0.324457
    18  H   -0.524497
    19  O   -0.847672
    20  H    0.129957
 Sum of Mulliken charges =  -0.00000
 Mulliken charges with hydrogens summed into heavy atoms:
               1
     1  C    0.599184
     2  C   -0.332321
     3  C    0.365499
     4  C   -0.295210
     5  S    0.410244
     7  C    0.400943
     8  S    0.404438
     9  C   -0.766267
    10  C   -0.265542
    11  C   -0.327924
    13  S    0.653708
    14  C   -0.448540
    15  C    0.319504
    19  O   -0.717715
 Electronic spatial extent (au):  <R**2>=           4771.4409
 Charge=             -0.0000 electrons
 Dipole moment (field-independent basis, Debye):
    X=             -1.1452    Y=              0.0105    Z=              1.8090  Tot=              2.1410
 Quadrupole moment (field-independent basis, Debye-Ang):
   XX=            -96.8701   YY=           -102.7936   ZZ=           -100.0684
   XY=              4.2588   XZ=              3.0918   YZ=             -0.0121
 Traceless Quadrupole moment (field-independent basis, Debye-Ang):
   XX=              3.0406   YY=             -2.8829   ZZ=             -0.1577
   XY=              4.2588   XZ=              3.0918   YZ=             -0.0121
 Octapole moment (field-independent basis, Debye-Ang**2):
  XXX=            -75.8244  YYY=             -0.6476  ZZZ=             26.7463  XYY=             -9.3242
  XXY=            -22.0450  XXZ=              4.6010  XZZ=             49.1563  YZZ=              2.9241
  YYZ=              3.1403  XYZ=              3.2145
 Hexadecapole moment (field-independent basis, Debye-Ang**3):
 XXXX=          -5235.3681 YYYY=           -595.3671 ZZZZ=           -432.2984 XXXY=             54.6215
 XXXZ=            -63.2700 YYYX=             29.4448 YYYZ=             -2.9356 ZZZX=            116.3025
 ZZZY=             10.8581 XXYY=          -1029.9029 XXZZ=           -911.3094 YYZZ=           -199.5937
 XXYZ=             -3.4374 YYXZ=             10.6125 ZZXY=              9.3735
 N-N= 1.107276405762D+03 E-N=-6.121519560544D+03  KE= 1.649563290176D+03
 Unable to Open any file for archive entry.
 1\1\GINC-CX3-11-5\FOpt\RHF\Aug-CC-pVDZ\C10H6O1S3\NS5018\27-Oct-2021\0\
 \# opt=modredundant hf/aug-cc-pvdz\\pg2T_TT_-90.pdb\\0,1\C,-4.29201363
 92,-1.4133997347,-0.2613903851\C,-2.9915333767,-0.9806064822,-0.694629
 6281\C,-2.075465842,-1.9742357698,-0.6693609508\C,-4.3316511337,-2.717
 9168105,0.075902655\S,-2.778889474,-3.4627910257,-0.1215494495\H,-5.18
 05714022,-3.2755775234,0.4294510256\C,-0.6505950041,-1.8852389911,-1.0
 454797811\S,-0.1453154762,-2.1943205303,-2.7001219766\C,1.5119537514,-
 1.9002951077,-2.2740014509\C,1.6326904491,-1.5929560151,-0.9503003521\
 C,0.3891045291,-1.5855757477,-0.2370086401\H,0.2764083331,-1.372258889
 7,0.8133969878\S,3.2905604847,-1.296539708,-0.5238226759\C,3.784743464
 7,-1.5984804603,-2.1688171848\C,2.7573998427,-1.9052360186,-2.98777379
 29\H,4.8268727867,-1.5299704956,-2.4311789361\H,2.8692411081,-2.124107
 0584,-4.0370610253\H,-2.7626016187,0.0274339776,-1.0079798498\O,-5.373
 752713,-0.6043029647,-0.1903411491\H,-5.1675850697,0.2613753561,-0.499
 9334403\\Version=ES64L-G16RevC.01\State=1-A\HF=-1649.6414357\RMSD=5.38
 7e-09\RMSF=4.845e-05\Dipole=0.3705021,0.6998465,-0.2871667\Quadrupole=
 1.4025693,-0.5567868,-0.8457825,-3.0837725,-3.0266301,-0.0462815\PG=C0
 1 [X(C10H6O1S3)]\\@
 The archive entry for this job was punched.


 AN AIRPLANE IS A COLLECTION OF SPARE PARTS
 FLYING IN CLOSE FORMATION.
 Job cpu time:       0 days  4 hours 40 minutes 40.6 seconds.
 Elapsed time:       0 days  0 hours 35 minutes 18.1 seconds.
 File lengths (MBytes):  RWF=     95 Int=      0 D2E=      0 Chk=     12 Scr=      1
 Normal termination of Gaussian 16 at Wed Oct 27 02:33:02 2021.
