 Entering Gaussian System, Link 0=g16
 Input=pg2T_TT_110.gjf
 Output=pg2T_TT_110.log
 Initial command:
 /apps/gaussian/g16-c01-avx/g16/l1.exe "/tmp/pbs.4766241[285].pbs/Gau-2521738.inp" -scrdir="/tmp/pbs.4766241[285].pbs/"
 Entering Link 1 = /apps/gaussian/g16-c01-avx/g16/l1.exe PID=   2521739.
  
 Copyright (c) 1988-2019, Gaussian, Inc.  All Rights Reserved.
  
 This is part of the Gaussian(R) 16 program.  It is based on
 the Gaussian(R) 09 system (copyright 2009, Gaussian, Inc.),
 the Gaussian(R) 03 system (copyright 2003, Gaussian, Inc.),
 the Gaussian(R) 98 system (copyright 1998, Gaussian, Inc.),
 the Gaussian(R) 94 system (copyright 1995, Gaussian, Inc.),
 the Gaussian 92(TM) system (copyright 1992, Gaussian, Inc.),
 the Gaussian 90(TM) system (copyright 1990, Gaussian, Inc.),
 the Gaussian 88(TM) system (copyright 1988, Gaussian, Inc.),
 the Gaussian 86(TM) system (copyright 1986, Carnegie Mellon
 University), and the Gaussian 82(TM) system (copyright 1983,
 Carnegie Mellon University). Gaussian is a federally registered
 trademark of Gaussian, Inc.
  
 This software contains proprietary and confidential information,
 including trade secrets, belonging to Gaussian, Inc.
  
 This software is provided under written license and may be
 used, copied, transmitted, or stored only in accord with that
 written license.
  
 The following legend is applicable only to US Government
 contracts under FAR:
  
                    RESTRICTED RIGHTS LEGEND
  
 Use, reproduction and disclosure by the US Government is
 subject to restrictions as set forth in subparagraphs (a)
 and (c) of the Commercial Computer Software - Restricted
 Rights clause in FAR 52.227-19.
  
 Gaussian, Inc.
 340 Quinnipiac St., Bldg. 40, Wallingford CT 06492
  
  
 ---------------------------------------------------------------
 Warning -- This program may not be used in any manner that
 competes with the business of Gaussian, Inc. or will provide
 assistance to any competitor of Gaussian, Inc.  The licensee
 of this program is prohibited from giving any competitor of
 Gaussian, Inc. access to this program.  By using this program,
 the user acknowledges that Gaussian, Inc. is engaged in the
 business of creating and licensing software in the field of
 computational chemistry and represents and warrants to the
 licensee that it is not a competitor of Gaussian, Inc. and that
 it will not use this program in any manner prohibited above.
 ---------------------------------------------------------------
  

 Cite this work as:
 Gaussian 16, Revision C.01,
 M. J. Frisch, G. W. Trucks, H. B. Schlegel, G. E. Scuseria, 
 M. A. Robb, J. R. Cheeseman, G. Scalmani, V. Barone, 
 G. A. Petersson, H. Nakatsuji, X. Li, M. Caricato, A. V. Marenich, 
 J. Bloino, B. G. Janesko, R. Gomperts, B. Mennucci, H. P. Hratchian, 
 J. V. Ortiz, A. F. Izmaylov, J. L. Sonnenberg, D. Williams-Young, 
 F. Ding, F. Lipparini, F. Egidi, J. Goings, B. Peng, A. Petrone, 
 T. Henderson, D. Ranasinghe, V. G. Zakrzewski, J. Gao, N. Rega, 
 G. Zheng, W. Liang, M. Hada, M. Ehara, K. Toyota, R. Fukuda, 
 J. Hasegawa, M. Ishida, T. Nakajima, Y. Honda, O. Kitao, H. Nakai, 
 T. Vreven, K. Throssell, J. A. Montgomery, Jr., J. E. Peralta, 
 F. Ogliaro, M. J. Bearpark, J. J. Heyd, E. N. Brothers, K. N. Kudin, 
 V. N. Staroverov, T. A. Keith, R. Kobayashi, J. Normand, 
 K. Raghavachari, A. P. Rendell, J. C. Burant, S. S. Iyengar, 
 J. Tomasi, M. Cossi, J. M. Millam, M. Klene, C. Adamo, R. Cammi, 
 J. W. Ochterski, R. L. Martin, K. Morokuma, O. Farkas, 
 J. B. Foresman, and D. J. Fox, Gaussian, Inc., Wallingford CT, 2019.
 
 ******************************************
 Gaussian 16:  ES64L-G16RevC.01  3-Jul-2019
                27-Oct-2021 
 ******************************************
 %mem=100GB
 %nprocshared=8
 Will use up to    8 processors via shared memory.
 ---------------------------------
 # opt=modredundant hf/aug-cc-pvdz
 ---------------------------------
 1/18=120,19=15,38=1/1,3;
 2/9=110,12=2,17=6,18=5,40=1/2;
 3/5=16,7=10,11=9,25=1,30=1,71=1/1,2,3;
 4//1;
 5/5=2,38=5/2;
 6/7=2,8=2,9=2,10=2,28=1/1;
 7//1,2,3,16;
 1/18=20,19=15/3(2);
 2/9=110/2;
 99//99;
 2/9=110/2;
 3/5=16,7=10,11=9,25=1,30=1,71=1/1,2,3;
 4/5=5,16=3,69=1/1;
 5/5=2,38=5/2;
 7//1,2,3,16;
 1/18=20,19=15/3(-5);
 2/9=110/2;
 6/7=2,8=2,9=2,10=2,19=2,28=1/1;
 99/9=1/99;
 ---------------
 pg2T_TT_110.pdb
 ---------------
 Symbolic Z-matrix:
 Charge =  0 Multiplicity = 1
 C                    -4.25     -1.36     -0.21 
 C                    -2.93     -0.95     -0.61 
 C                    -1.97     -2.05     -0.62 
 C                    -4.33     -2.76      0.1 
 S                    -2.8      -3.56     -0.11 
 H                    -5.23     -3.27      0.41 
 C                    -0.56     -2.13     -0.97 
 S                     0.71     -2.394     0.264 
 C                     1.977    -2.366    -0.913 
 C                     1.478    -2.187    -2.253 
 C                     0.051    -2.07     -2.299 
 H                    -0.51     -2.094    -3.22 
 S                     2.539    -2.846    -3.454 
 C                     3.683    -3.366    -2.215 
 C                     3.228    -3.051    -0.881 
 H                     4.523    -4.009    -2.437 
 H                     3.642    -3.521     0.007 
 H                    -2.89      0.24     -0.97 
 O                    -5.6      -0.36     -0.4 
 H                    -5.76      0.85     -0.75 
 
 Add virtual bond connecting atoms H20        and O19        Dist= 2.40D+00.
 Add virtual bond connecting atoms O19        and C1         Dist= 3.20D+00.
 The following ModRedundant input section has been read:
 D       2       3       7       8 F                                           
 

 GradGradGradGradGradGradGradGradGradGradGradGradGradGradGradGradGradGrad
 Berny optimization.
 Initialization pass.
                           ----------------------------
                           !    Initial Parameters    !
                           ! (Angstroms and Degrees)  !
 --------------------------                            --------------------------
 ! Name  Definition              Value          Derivative Info.                !
 --------------------------------------------------------------------------------
 ! R1    R(1,2)                  1.4389         estimate D2E/DX2                !
 ! R2    R(1,4)                  1.4361         estimate D2E/DX2                !
 ! R3    R(1,19)                 1.6907         estimate D2E/DX2                !
 ! R4    R(2,3)                  1.46           estimate D2E/DX2                !
 ! R5    R(2,18)                 1.2439         estimate D2E/DX2                !
 ! R6    R(3,5)                  1.797          estimate D2E/DX2                !
 ! R7    R(3,7)                  1.455          estimate D2E/DX2                !
 ! R8    R(4,5)                  1.7393         estimate D2E/DX2                !
 ! R9    R(4,6)                  1.0799         estimate D2E/DX2                !
 ! R10   R(7,8)                  1.7903         estimate D2E/DX2                !
 ! R11   R(7,11)                 1.464          estimate D2E/DX2                !
 ! R12   R(8,9)                  1.7296         estimate D2E/DX2                !
 ! R13   R(9,10)                 1.4411         estimate D2E/DX2                !
 ! R14   R(9,15)                 1.4266         estimate D2E/DX2                !
 ! R15   R(10,11)                1.4325         estimate D2E/DX2                !
 ! R16   R(10,13)                1.7327         estimate D2E/DX2                !
 ! R17   R(11,12)                1.0787         estimate D2E/DX2                !
 ! R18   R(13,14)                1.7647         estimate D2E/DX2                !
 ! R19   R(14,15)                1.4442         estimate D2E/DX2                !
 ! R20   R(14,16)                1.0809         estimate D2E/DX2                !
 ! R21   R(15,17)                1.0867         estimate D2E/DX2                !
 ! R22   R(19,20)                1.2697         estimate D2E/DX2                !
 ! A1    A(2,1,4)              112.8843         estimate D2E/DX2                !
 ! A2    A(2,1,19)             122.1887         estimate D2E/DX2                !
 ! A3    A(4,1,19)             123.8039         estimate D2E/DX2                !
 ! A4    A(1,2,3)              112.9799         estimate D2E/DX2                !
 ! A5    A(1,2,18)             112.491          estimate D2E/DX2                !
 ! A6    A(3,2,18)             134.2373         estimate D2E/DX2                !
 ! A7    A(2,3,5)              109.1138         estimate D2E/DX2                !
 ! A8    A(2,3,7)              132.8639         estimate D2E/DX2                !
 ! A9    A(5,3,7)              118.0132         estimate D2E/DX2                !
 ! A10   A(1,4,5)              111.9209         estimate D2E/DX2                !
 ! A11   A(1,4,6)              124.6643         estimate D2E/DX2                !
 ! A12   A(5,4,6)              123.4062         estimate D2E/DX2                !
 ! A13   A(3,5,4)               93.0997         estimate D2E/DX2                !
 ! A14   A(3,7,8)              121.9873         estimate D2E/DX2                !
 ! A15   A(3,7,11)             128.3585         estimate D2E/DX2                !
 ! A16   A(8,7,11)             109.6149         estimate D2E/DX2                !
 ! A17   A(7,8,9)               92.7632         estimate D2E/DX2                !
 ! A18   A(8,9,10)             112.4044         estimate D2E/DX2                !
 ! A19   A(8,9,15)             128.2677         estimate D2E/DX2                !
 ! A20   A(10,9,15)            112.5908         estimate D2E/DX2                !
 ! A21   A(9,10,11)            112.6402         estimate D2E/DX2                !
 ! A22   A(9,10,13)            112.6587         estimate D2E/DX2                !
 ! A23   A(11,10,13)           128.2261         estimate D2E/DX2                !
 ! A24   A(7,11,10)            112.5354         estimate D2E/DX2                !
 ! A25   A(7,11,12)            123.8583         estimate D2E/DX2                !
 ! A26   A(10,11,12)           122.9343         estimate D2E/DX2                !
 ! A27   A(10,13,14)            91.2822         estimate D2E/DX2                !
 ! A28   A(13,14,15)           112.3339         estimate D2E/DX2                !
 ! A29   A(13,14,16)           122.3353         estimate D2E/DX2                !
 ! A30   A(15,14,16)           124.353          estimate D2E/DX2                !
 ! A31   A(9,15,14)            111.1168         estimate D2E/DX2                !
 ! A32   A(9,15,17)            124.0618         estimate D2E/DX2                !
 ! A33   A(14,15,17)           122.7139         estimate D2E/DX2                !
 ! A34   A(1,19,20)            134.0455         estimate D2E/DX2                !
 ! D1    D(4,1,2,3)              0.3915         estimate D2E/DX2                !
 ! D2    D(4,1,2,18)           175.0898         estimate D2E/DX2                !
 ! D3    D(19,1,2,3)          -167.9154         estimate D2E/DX2                !
 ! D4    D(19,1,2,18)            6.7829         estimate D2E/DX2                !
 ! D5    D(2,1,4,5)             -0.3845         estimate D2E/DX2                !
 ! D6    D(2,1,4,6)           -179.3471         estimate D2E/DX2                !
 ! D7    D(19,1,4,5)           167.7032         estimate D2E/DX2                !
 ! D8    D(19,1,4,6)           -11.2593         estimate D2E/DX2                !
 ! D9    D(2,1,19,20)           -7.6334         estimate D2E/DX2                !
 ! D10   D(4,1,19,20)         -174.6479         estimate D2E/DX2                !
 ! D11   D(1,2,3,5)             -0.2224         estimate D2E/DX2                !
 ! D12   D(1,2,3,7)            178.6265         estimate D2E/DX2                !
 ! D13   D(18,2,3,5)          -173.3787         estimate D2E/DX2                !
 ! D14   D(18,2,3,7)             5.4701         estimate D2E/DX2                !
 ! D15   D(2,3,5,4)              0.0033         estimate D2E/DX2                !
 ! D16   D(7,3,5,4)           -179.041          estimate D2E/DX2                !
 ! D17   D(2,3,7,8)            109.9813         Frozen                          !
 ! D18   D(2,3,7,11)           -72.546          estimate D2E/DX2                !
 ! D19   D(5,3,7,8)            -71.2508         estimate D2E/DX2                !
 ! D20   D(5,3,7,11)           106.2219         estimate D2E/DX2                !
 ! D21   D(1,4,5,3)              0.2153         estimate D2E/DX2                !
 ! D22   D(6,4,5,3)            179.1932         estimate D2E/DX2                !
 ! D23   D(3,7,8,9)            179.7714         estimate D2E/DX2                !
 ! D24   D(11,7,8,9)             1.875          estimate D2E/DX2                !
 ! D25   D(3,7,11,10)         -179.8341         estimate D2E/DX2                !
 ! D26   D(3,7,11,12)           -9.006          estimate D2E/DX2                !
 ! D27   D(8,7,11,10)           -2.1096         estimate D2E/DX2                !
 ! D28   D(8,7,11,12)          168.7185         estimate D2E/DX2                !
 ! D29   D(7,8,9,10)            -1.1993         estimate D2E/DX2                !
 ! D30   D(7,8,9,15)          -149.8965         estimate D2E/DX2                !
 ! D31   D(8,9,10,11)            0.1726         estimate D2E/DX2                !
 ! D32   D(8,9,10,13)         -154.0671         estimate D2E/DX2                !
 ! D33   D(15,9,10,11)         153.9525         estimate D2E/DX2                !
 ! D34   D(15,9,10,13)          -0.2871         estimate D2E/DX2                !
 ! D35   D(8,9,15,14)          149.7545         estimate D2E/DX2                !
 ! D36   D(8,9,15,17)          -14.0748         estimate D2E/DX2                !
 ! D37   D(10,9,15,14)           1.1042         estimate D2E/DX2                !
 ! D38   D(10,9,15,17)        -162.7251         estimate D2E/DX2                !
 ! D39   D(9,10,11,7)            1.2848         estimate D2E/DX2                !
 ! D40   D(9,10,11,12)        -169.6411         estimate D2E/DX2                !
 ! D41   D(13,10,11,7)         150.5854         estimate D2E/DX2                !
 ! D42   D(13,10,11,12)        -20.3405         estimate D2E/DX2                !
 ! D43   D(9,10,13,14)          -0.4664         estimate D2E/DX2                !
 ! D44   D(11,10,13,14)       -149.7624         estimate D2E/DX2                !
 ! D45   D(10,13,14,15)          1.1012         estimate D2E/DX2                !
 ! D46   D(10,13,14,16)        170.2383         estimate D2E/DX2                !
 ! D47   D(13,14,15,9)          -1.4513         estimate D2E/DX2                !
 ! D48   D(13,14,15,17)        162.6335         estimate D2E/DX2                !
 ! D49   D(16,14,15,9)        -170.3305         estimate D2E/DX2                !
 ! D50   D(16,14,15,17)         -6.2457         estimate D2E/DX2                !
 --------------------------------------------------------------------------------
 Trust Radius=3.00D-01 FncErr=1.00D-07 GrdErr=1.00D-07 EigMax=2.50D+02 EigMin=1.00D-04
 Number of steps in this run=    116 maximum allowed number of steps=    120.
 GradGradGradGradGradGradGradGradGradGradGradGradGradGradGradGradGradGrad

                          Input orientation:                          
 ---------------------------------------------------------------------
 Center     Atomic      Atomic             Coordinates (Angstroms)
 Number     Number       Type             X           Y           Z
 ---------------------------------------------------------------------
      1          6           0       -4.250000   -1.360000   -0.210000
      2          6           0       -2.930000   -0.950000   -0.610000
      3          6           0       -1.970000   -2.050000   -0.620000
      4          6           0       -4.330000   -2.760000    0.100000
      5         16           0       -2.800000   -3.560000   -0.110000
      6          1           0       -5.230000   -3.270000    0.410000
      7          6           0       -0.560000   -2.130000   -0.970000
      8         16           0        0.710000   -2.394000    0.264000
      9          6           0        1.977000   -2.366000   -0.913000
     10          6           0        1.478000   -2.187000   -2.253000
     11          6           0        0.051000   -2.070000   -2.299000
     12          1           0       -0.510000   -2.094000   -3.220000
     13         16           0        2.539000   -2.846000   -3.454000
     14          6           0        3.683000   -3.366000   -2.215000
     15          6           0        3.228000   -3.051000   -0.881000
     16          1           0        4.523000   -4.009000   -2.437000
     17          1           0        3.642000   -3.521000    0.007000
     18          1           0       -2.890000    0.240000   -0.970000
     19          8           0       -5.600000   -0.360000   -0.400000
     20          1           0       -5.760000    0.850000   -0.750000
 ---------------------------------------------------------------------
                    Distance matrix (angstroms):
                    1          2          3          4          5
     1  C    0.000000
     2  C    1.438923   0.000000
     3  C    2.417147   1.460034   0.000000
     4  C    1.436141   2.395871   2.567509   0.000000
     5  S    2.636759   2.660639   1.796970   1.739253   0.000000
     6  H    2.234480   3.422397   3.630000   1.079907   2.501879
     7  C    3.845335   2.671872   1.454991   3.969219   2.793224
     8  S    5.088755   4.012308   2.842920   5.055932   3.717463
     9  C    6.346792   5.116201   3.970455   6.399973   4.989005
    10  C    6.137407   4.864163   3.817612   6.292678   4.977837
    11  C    4.833903   3.604647   2.627524   5.042268   3.891018
    12  H    4.856589   3.738614   2.982203   5.104739   4.131024
    13  S    7.669567   6.449272   5.384817   7.734434   6.340115
    14  C    8.424758   7.221139   6.019326   8.362693   6.818941
    15  C    7.696116   6.512189   5.299936   7.626953   6.098386
    16  H    9.430920   8.260909   7.021269   9.293653   7.696938
    17  H    8.185394   7.083919   5.835368   8.008780   6.443180
    18  H    2.233204   1.243905   2.492589   3.495497   3.897140
    19  O    1.690739   2.742462   4.010162   2.760960   4.261936
    20  H    2.730531   3.356859   4.773992   3.974858   5.349701
                    6          7          8          9         10
     6  H    0.000000
     7  C    5.001290   0.000000
     8  S    6.006021   1.790350   0.000000
     9  C    7.382980   2.548591   1.729567   0.000000
    10  C    7.298063   2.408896   2.639690   1.441056   0.000000
    11  C    6.055381   1.463954   2.666126   2.391252   1.432527
    12  H    6.069454   2.250843   3.703600   3.403146   2.212664
    13  S    8.687211   4.035680   4.168101   2.646304   1.732744
    14  C    9.292008   4.591380   3.991109   2.367623   2.500702
    15  C    8.558762   3.899373   2.843061   1.426622   2.385661
    16  H   10.186881   5.614234   4.943945   3.391775   3.553247
    17  H    8.884694   4.532793   3.151635   2.225455   3.401478
    18  H    4.438479   3.323522   4.628252   5.521066   5.159054
    19  O    3.043206   5.372095   6.662894   7.854816   7.541195
    20  H    4.312876   5.997399   7.308395   8.380358   7.991935
                   11         12         13         14         15
    11  C    0.000000
    12  H    1.078674   0.000000
    13  S    2.850674   3.149073   0.000000
    14  C    3.857214   4.495471   1.764726   0.000000
    15  C    3.614750   4.512141   2.671530   1.444232   0.000000
    16  H    4.876223   5.441636   2.514580   1.080895   2.239626
    17  H    4.507584   5.448758   3.694693   2.227777   1.086665
    18  H    3.968857   4.021748   6.720691   7.599841   6.947555
    19  O    6.201943   6.071841   9.041595   9.924936   9.241560
    20  H    6.685321   6.506192   9.478683  10.444670   9.798934
                   16         17         18         19         20
    16  H    0.000000
    17  H    2.643377   0.000000
    18  H    8.669409   7.600439   0.000000
    19  O   10.951698   9.776100   2.833549   0.000000
    20  H   11.497649  10.395975   2.942346   1.269724   0.000000
 Stoichiometry    C10H6OS3
 Framework group  C1[X(C10H6OS3)]
 Deg. of freedom    54
 Full point group                 C1      NOp   1
 Largest Abelian subgroup         C1      NOp   1
 Largest concise Abelian subgroup C1      NOp   1
                         Standard orientation:                         
 ---------------------------------------------------------------------
 Center     Atomic      Atomic             Coordinates (Angstroms)
 Number     Number       Type             X           Y           Z
 ---------------------------------------------------------------------
      1          6           0        3.914939    0.354523   -0.241365
      2          6           0        2.620164    0.688083   -0.773150
      3          6           0        1.527680    0.011759   -0.079777
      4          6           0        3.847585   -0.577623    0.849079
      5         16           0        2.208575   -1.026891    1.218950
      6          1           0        4.703126   -0.948742    1.393615
      7          6           0        0.081629    0.050702   -0.236040
      8         16           0       -0.839931   -1.340161   -0.885334
      9          6           0       -2.352512   -0.514698   -0.736638
     10          6           0       -2.205620    0.804013   -0.174440
     11          6           0       -0.842721    1.126404    0.126732
     12          1           0       -0.558253    1.996109    0.697896
     13         16           0       -3.639598    1.350018    0.630538
     14          6           0       -4.481364   -0.149174    0.232908
     15          6           0       -3.643469   -1.072266   -0.496227
     16          1           0       -5.442449   -0.402726    0.657598
     17          1           0       -3.876674   -2.129555   -0.588937
     18          1           0        2.678372    1.567873   -1.650579
     19          8           0        5.308789    1.216296   -0.657453
     20          1           0        5.562966    2.128864   -1.502920
 ---------------------------------------------------------------------
 Rotational constants (GHZ):           1.3683328           0.2204151           0.2100600
 Standard basis: Aug-CC-pVDZ (5D, 7F)
 There are   416 symmetry adapted cartesian basis functions of A   symmetry.
 There are   388 symmetry adapted basis functions of A   symmetry.
   388 basis functions,   782 primitive gaussians,   416 cartesian basis functions
    61 alpha electrons       61 beta electrons
       nuclear repulsion energy      1077.1624486742 Hartrees.
 NAtoms=   20 NActive=   20 NUniq=   20 SFac= 1.00D+00 NAtFMM=   60 NAOKFM=F Big=F
 Integral buffers will be    131072 words long.
 Raffenetti 1 integral format.
 Two-electron integral symmetry is turned on.
 One-electron integrals computed using PRISM.
 NBasis=   388 RedAO= T EigKep=  7.88D-06  NBF=   388
 NBsUse=   388 1.00D-06 EigRej= -1.00D+00 NBFU=   388
 ExpMin= 2.97D-02 ExpMax= 1.11D+05 ExpMxC= 1.07D+03 IAcc=3 IRadAn=         5 AccDes= 0.00D+00
 Harris functional with IExCor=  205 and IRadAn=       5 diagonalized for initial guess.
 HarFok:  IExCor=  205 AccDes= 0.00D+00 IRadAn=         5 IDoV= 1 UseB2=F ITyADJ=14
 ICtDFT=  3500011 ScaDFX=  1.000000  1.000000  1.000000  1.000000
 FoFCou: FMM=F IPFlag=           0 FMFlag=      100000 FMFlg1=           0
         NFxFlg=           0 DoJE=T BraDBF=F KetDBF=T FulRan=T
         wScrn=  0.000000 ICntrl=       500 IOpCl=  0 I1Cent=   200000004 NGrid=           0
         NMat0=    1 NMatS0=      1 NMatT0=    0 NMatD0=    1 NMtDS0=    0 NMtDT0=    0
 Petite list used in FoFCou.
 Requested convergence on RMS density matrix=1.00D-08 within 128 cycles.
 Requested convergence on MAX density matrix=1.00D-06.
 Requested convergence on             energy=1.00D-06.
 No special actions if energy rises.
 SCF Done:  E(RHF) =  -1649.42016637     A.U. after   18 cycles
            NFock= 18  Conv=0.51D-08     -V/T= 2.0016

 **********************************************************************

            Population analysis using the SCF Density.

 **********************************************************************

 Orbital symmetries:
       Occupied  (A) (A) (A) (A) (A) (A) (A) (A) (A) (A) (A) (A)
                 (A) (A) (A) (A) (A) (A) (A) (A) (A) (A) (A) (A)
                 (A) (A) (A) (A) (A) (A) (A) (A) (A) (A) (A) (A)
                 (A) (A) (A) (A) (A) (A) (A) (A) (A) (A) (A) (A)
                 (A) (A) (A) (A) (A) (A) (A) (A) (A) (A) (A) (A)
                 (A)
       Virtual   (A) (A) (A) (A) (A) (A) (A) (A) (A) (A) (A) (A)
                 (A) (A) (A) (A) (A) (A) (A) (A) (A) (A) (A) (A)
                 (A) (A) (A) (A) (A) (A) (A) (A) (A) (A) (A) (A)
                 (A) (A) (A) (A) (A) (A) (A) (A) (A) (A) (A) (A)
                 (A) (A) (A) (A) (A) (A) (A) (A) (A) (A) (A) (A)
                 (A) (A) (A) (A) (A) (A) (A) (A) (A) (A) (A) (A)
                 (A) (A) (A) (A) (A) (A) (A) (A) (A) (A) (A) (A)
                 (A) (A) (A) (A) (A) (A) (A) (A) (A) (A) (A) (A)
                 (A) (A) (A) (A) (A) (A) (A) (A) (A) (A) (A) (A)
                 (A) (A) (A) (A) (A) (A) (A) (A) (A) (A) (A) (A)
                 (A) (A) (A) (A) (A) (A) (A) (A) (A) (A) (A) (A)
                 (A) (A) (A) (A) (A) (A) (A) (A) (A) (A) (A) (A)
                 (A) (A) (A) (A) (A) (A) (A) (A) (A) (A) (A) (A)
                 (A) (A) (A) (A) (A) (A) (A) (A) (A) (A) (A) (A)
                 (A) (A) (A) (A) (A) (A) (A) (A) (A) (A) (A) (A)
                 (A) (A) (A) (A) (A) (A) (A) (A) (A) (A) (A) (A)
                 (A) (A) (A) (A) (A) (A) (A) (A) (A) (A) (A) (A)
                 (A) (A) (A) (A) (A) (A) (A) (A) (A) (A) (A) (A)
                 (A) (A) (A) (A) (A) (A) (A) (A) (A) (A) (A) (A)
                 (A) (A) (A) (A) (A) (A) (A) (A) (A) (A) (A) (A)
                 (A) (A) (A) (A) (A) (A) (A) (A) (A) (A) (A) (A)
                 (A) (A) (A) (A) (A) (A) (A) (A) (A) (A) (A) (A)
                 (A) (A) (A) (A) (A) (A) (A) (A) (A) (A) (A) (A)
                 (A) (A) (A) (A) (A) (A) (A) (A) (A) (A) (A) (A)
                 (A) (A) (A) (A) (A) (A) (A) (A) (A) (A) (A) (A)
                 (A) (A) (A) (A) (A) (A) (A) (A) (A) (A) (A) (A)
                 (A) (A) (A) (A) (A) (A) (A) (A) (A) (A) (A) (A)
                 (A) (A) (A)
 The electronic state is 1-A.
 Alpha  occ. eigenvalues --  -92.01477 -92.00565 -92.00322 -20.59925 -11.34927
 Alpha  occ. eigenvalues --  -11.31804 -11.31126 -11.30117 -11.30052 -11.29999
 Alpha  occ. eigenvalues --  -11.29267 -11.29008 -11.28426 -11.27703  -9.01392
 Alpha  occ. eigenvalues --   -9.00624  -9.00356  -6.69545  -6.69441  -6.69270
 Alpha  occ. eigenvalues --   -6.68788  -6.68699  -6.68517  -6.68510  -6.68421
 Alpha  occ. eigenvalues --   -6.68234  -1.25174  -1.20355  -1.16505  -1.10901
 Alpha  occ. eigenvalues --   -1.03756  -1.01146  -0.99084  -0.94884  -0.93023
 Alpha  occ. eigenvalues --   -0.83443  -0.77944  -0.74508  -0.72657  -0.71487
 Alpha  occ. eigenvalues --   -0.66742  -0.65880  -0.60277  -0.58041  -0.56974
 Alpha  occ. eigenvalues --   -0.55658  -0.55227  -0.54450  -0.53658  -0.52900
 Alpha  occ. eigenvalues --   -0.50854  -0.49478  -0.48055  -0.47818  -0.47038
 Alpha  occ. eigenvalues --   -0.45435  -0.39323  -0.35817  -0.33000  -0.32285
 Alpha  occ. eigenvalues --   -0.28743
 Alpha virt. eigenvalues --    0.02496   0.03424   0.04338   0.04462   0.04609
 Alpha virt. eigenvalues --    0.05027   0.05881   0.07399   0.07801   0.08223
 Alpha virt. eigenvalues --    0.08884   0.09316   0.09753   0.10570   0.10766
 Alpha virt. eigenvalues --    0.10972   0.11572   0.11935   0.12681   0.12971
 Alpha virt. eigenvalues --    0.13539   0.13569   0.13879   0.14252   0.14517
 Alpha virt. eigenvalues --    0.15317   0.15626   0.15736   0.15862   0.16357
 Alpha virt. eigenvalues --    0.16929   0.17117   0.17605   0.17804   0.18271
 Alpha virt. eigenvalues --    0.18618   0.19215   0.19434   0.19596   0.20141
 Alpha virt. eigenvalues --    0.20497   0.20754   0.21476   0.21983   0.22453
 Alpha virt. eigenvalues --    0.22988   0.23514   0.24167   0.24623   0.25193
 Alpha virt. eigenvalues --    0.25508   0.25987   0.26560   0.26749   0.27081
 Alpha virt. eigenvalues --    0.27836   0.28438   0.29002   0.29600   0.30352
 Alpha virt. eigenvalues --    0.30556   0.30973   0.31119   0.31867   0.32097
 Alpha virt. eigenvalues --    0.32685   0.33154   0.34173   0.34678   0.34944
 Alpha virt. eigenvalues --    0.35604   0.35955   0.36008   0.36502   0.37510
 Alpha virt. eigenvalues --    0.38415   0.38872   0.39324   0.39832   0.40576
 Alpha virt. eigenvalues --    0.41109   0.41819   0.42342   0.42600   0.43726
 Alpha virt. eigenvalues --    0.43963   0.44317   0.44726   0.45973   0.46643
 Alpha virt. eigenvalues --    0.47189   0.47912   0.48936   0.49319   0.49525
 Alpha virt. eigenvalues --    0.50698   0.50859   0.51810   0.52094   0.53461
 Alpha virt. eigenvalues --    0.54199   0.54757   0.54948   0.55901   0.56601
 Alpha virt. eigenvalues --    0.57309   0.58162   0.58744   0.59293   0.59891
 Alpha virt. eigenvalues --    0.60503   0.61068   0.61736   0.62329   0.62908
 Alpha virt. eigenvalues --    0.64016   0.64401   0.64752   0.65882   0.66233
 Alpha virt. eigenvalues --    0.66935   0.67705   0.67962   0.68575   0.68845
 Alpha virt. eigenvalues --    0.69045   0.69697   0.70330   0.71624   0.71719
 Alpha virt. eigenvalues --    0.72358   0.72539   0.72715   0.74048   0.74349
 Alpha virt. eigenvalues --    0.74965   0.76009   0.76052   0.76511   0.77056
 Alpha virt. eigenvalues --    0.77598   0.79429   0.79698   0.81407   0.81669
 Alpha virt. eigenvalues --    0.82255   0.83458   0.84338   0.84414   0.85085
 Alpha virt. eigenvalues --    0.85836   0.86500   0.87445   0.88002   0.88936
 Alpha virt. eigenvalues --    0.90069   0.90859   0.92222   0.92823   0.93110
 Alpha virt. eigenvalues --    0.93990   0.94786   0.95945   0.96345   0.97078
 Alpha virt. eigenvalues --    0.97768   0.98775   0.98934   0.99550   0.99936
 Alpha virt. eigenvalues --    1.01048   1.01321   1.02423   1.03245   1.04800
 Alpha virt. eigenvalues --    1.06162   1.07370   1.08095   1.10213   1.10442
 Alpha virt. eigenvalues --    1.11111   1.12900   1.14929   1.16168   1.16992
 Alpha virt. eigenvalues --    1.17386   1.17821   1.18331   1.20536   1.21108
 Alpha virt. eigenvalues --    1.21345   1.21879   1.23298   1.23993   1.24480
 Alpha virt. eigenvalues --    1.24996   1.26287   1.27298   1.27546   1.27985
 Alpha virt. eigenvalues --    1.29514   1.29747   1.30469   1.30820   1.31226
 Alpha virt. eigenvalues --    1.34549   1.36089   1.36824   1.37935   1.38708
 Alpha virt. eigenvalues --    1.39916   1.40530   1.42031   1.43903   1.45038
 Alpha virt. eigenvalues --    1.46573   1.47785   1.48904   1.51194   1.53378
 Alpha virt. eigenvalues --    1.54980   1.55948   1.56586   1.57052   1.57996
 Alpha virt. eigenvalues --    1.59567   1.59627   1.60424   1.60828   1.62842
 Alpha virt. eigenvalues --    1.63774   1.64509   1.64945   1.66956   1.68462
 Alpha virt. eigenvalues --    1.70288   1.70752   1.71505   1.73752   1.74697
 Alpha virt. eigenvalues --    1.75590   1.77094   1.78407   1.78860   1.79143
 Alpha virt. eigenvalues --    1.80516   1.81573   1.82770   1.84604   1.85286
 Alpha virt. eigenvalues --    1.88266   1.88709   1.89221   1.90110   1.92727
 Alpha virt. eigenvalues --    1.93124   1.94481   1.95545   1.95883   1.97285
 Alpha virt. eigenvalues --    1.98540   1.99555   2.01860   2.03825   2.05131
 Alpha virt. eigenvalues --    2.05768   2.06300   2.06655   2.07798   2.08396
 Alpha virt. eigenvalues --    2.09684   2.10698   2.11923   2.14522   2.15589
 Alpha virt. eigenvalues --    2.16072   2.17404   2.18954   2.20417   2.22561
 Alpha virt. eigenvalues --    2.23165   2.24022   2.24910   2.27345   2.29093
 Alpha virt. eigenvalues --    2.30742   2.31895   2.32816   2.33877   2.35344
 Alpha virt. eigenvalues --    2.37476   2.39437   2.40437   2.42935   2.44711
 Alpha virt. eigenvalues --    2.46070   2.48639   2.51965   2.52931   2.55902
 Alpha virt. eigenvalues --    2.59422   2.66977   2.68409   2.73715   2.78008
 Alpha virt. eigenvalues --    2.79560   2.81258   2.82939   2.83704   2.86910
 Alpha virt. eigenvalues --    2.94320   3.01045   3.03714   3.10119   3.13024
 Alpha virt. eigenvalues --    3.19467   3.26196   3.35591   3.44735   3.73787
 Alpha virt. eigenvalues --    3.76205   3.78067   3.81419   3.83492   4.00017
 Alpha virt. eigenvalues --    4.09990   4.14264
          Condensed to atoms (all electrons):
               1          2          3          4          5          6
     1  C    5.778232  -0.123402  -0.225745   0.556700  -0.306126   0.068926
     2  C   -0.123402   7.425556  -0.957303   0.030696  -0.311438   0.036442
     3  C   -0.225745  -0.957303   9.285912  -0.857491   0.497428   0.074333
     4  C    0.556700   0.030696  -0.857491   5.714490   0.227055   0.106733
     5  S   -0.306126  -0.311438   0.497428   0.227055  15.811816  -0.173159
     6  H    0.068926   0.036442   0.074333   0.106733  -0.173159   1.180392
     7  C    0.146954  -0.167641  -2.058222   0.242681  -0.444951  -0.002160
     8  S   -0.018514   0.034556  -0.292767  -0.018975   0.142580  -0.000652
     9  C    0.017377  -0.006593  -0.010113   0.022540  -0.016949   0.000363
    10  C   -0.027646  -0.032722   0.351193  -0.005313   0.062737   0.000189
    11  C    0.024469   0.108423  -0.269065  -0.037020  -0.032304   0.003578
    12  H    0.007083   0.018797  -0.010839   0.004961   0.008246   0.000406
    13  S    0.001164   0.009722   0.000988   0.000805  -0.006011   0.000080
    14  C   -0.000635  -0.012169   0.033710   0.000544   0.006312   0.000021
    15  C    0.004099   0.025777  -0.219745  -0.002908  -0.018474  -0.000134
    16  H    0.000013  -0.000238   0.002814   0.000064  -0.000123   0.000005
    17  H    0.000065   0.002742  -0.010817  -0.000199  -0.000918  -0.000010
    18  H   -0.067956   0.296897   0.033057  -0.026827   0.021338  -0.002038
    19  O   -0.062568  -0.088511   0.021544  -0.041649   0.005061  -0.014063
    20  H    0.011243   0.004781   0.004861  -0.020503   0.000648  -0.002817
               7          8          9         10         11         12
     1  C    0.146954  -0.018514   0.017377  -0.027646   0.024469   0.007083
     2  C   -0.167641   0.034556  -0.006593  -0.032722   0.108423   0.018797
     3  C   -2.058222  -0.292767  -0.010113   0.351193  -0.269065  -0.010839
     4  C    0.242681  -0.018975   0.022540  -0.005313  -0.037020   0.004961
     5  S   -0.444951   0.142580  -0.016949   0.062737  -0.032304   0.008246
     6  H   -0.002160  -0.000652   0.000363   0.000189   0.003578   0.000406
     7  C    9.509076   0.286705   0.063966  -0.393575  -1.234266   0.135251
     8  S    0.286705  15.919810   0.114529  -0.224228  -0.355329   0.041082
     9  C    0.063966   0.114529   7.206265   0.343171  -0.456905  -0.034327
    10  C   -0.393575  -0.224228   0.343171   8.027546  -1.563145   0.237873
    11  C   -1.234266  -0.355329  -0.456905  -1.563145   9.777496  -0.456869
    12  H    0.135251   0.041082  -0.034327   0.237873  -0.456869   1.520220
    13  S   -0.130728  -0.005228  -0.058300   0.072190   0.007932  -0.058439
    14  C    0.134320  -0.049469   0.071717  -0.259692  -0.281545   0.003988
    15  C   -0.296799  -0.049150  -0.984991  -0.068564   0.608688  -0.010992
    16  H   -0.005582  -0.002290  -0.004782  -0.001328   0.031350   0.001434
    17  H    0.054997  -0.039323   0.194440  -0.014215  -0.019027  -0.000469
    18  H   -0.083907  -0.000949  -0.005595   0.013279   0.033362  -0.000872
    19  O    0.010163   0.002442   0.000171  -0.000078  -0.002266   0.000124
    20  H   -0.001502   0.000103   0.000063  -0.000057   0.000454  -0.000035
              13         14         15         16         17         18
     1  C    0.001164  -0.000635   0.004099   0.000013   0.000065  -0.067956
     2  C    0.009722  -0.012169   0.025777  -0.000238   0.002742   0.296897
     3  C    0.000988   0.033710  -0.219745   0.002814  -0.010817   0.033057
     4  C    0.000805   0.000544  -0.002908   0.000064  -0.000199  -0.026827
     5  S   -0.006011   0.006312  -0.018474  -0.000123  -0.000918   0.021338
     6  H    0.000080   0.000021  -0.000134   0.000005  -0.000010  -0.002038
     7  C   -0.130728   0.134320  -0.296799  -0.005582   0.054997  -0.083907
     8  S   -0.005228  -0.049469  -0.049150  -0.002290  -0.039323  -0.000949
     9  C   -0.058300   0.071717  -0.984991  -0.004782   0.194440  -0.005595
    10  C    0.072190  -0.259692  -0.068564  -0.001328  -0.014215   0.013279
    11  C    0.007932  -0.281545   0.608688   0.031350  -0.019027   0.033362
    12  H   -0.058439   0.003988  -0.010992   0.001434  -0.000469  -0.000872
    13  S   15.645556   0.193192  -0.229374  -0.131313   0.007702  -0.000006
    14  C    0.193192   5.823380   0.206919   0.242113  -0.055556  -0.000299
    15  C   -0.229374   0.206919   6.647672   0.027399  -0.122197  -0.000614
    16  H   -0.131313   0.242113   0.027399   1.230626  -0.057983   0.000004
    17  H    0.007702  -0.055556  -0.122197  -0.057983   1.375583   0.000072
    18  H   -0.000006  -0.000299  -0.000614   0.000004   0.000072   0.907435
    19  O   -0.000005  -0.000001   0.000045  -0.000000   0.000006  -0.018346
    20  H   -0.000000   0.000001   0.000021   0.000000   0.000001   0.006687
              19         20
     1  C   -0.062568   0.011243
     2  C   -0.088511   0.004781
     3  C    0.021544   0.004861
     4  C   -0.041649  -0.020503
     5  S    0.005061   0.000648
     6  H   -0.014063  -0.002817
     7  C    0.010163  -0.001502
     8  S    0.002442   0.000103
     9  C    0.000171   0.000063
    10  C   -0.000078  -0.000057
    11  C   -0.002266   0.000454
    12  H    0.000124  -0.000035
    13  S   -0.000005  -0.000000
    14  C   -0.000001   0.000001
    15  C    0.000045   0.000021
    16  H   -0.000000   0.000000
    17  H    0.000006   0.000001
    18  H   -0.018346   0.006687
    19  O    9.106722   0.220764
    20  H    0.220764   0.355030
 Mulliken charges:
               1
     1  C    0.216266
     2  C   -0.294373
     3  C    0.606269
     4  C    0.103614
     5  S    0.527233
     6  H   -0.276436
     7  C    0.235219
     8  S    0.515066
     9  C   -0.456049
    10  C   -0.517615
    11  C    0.111987
    12  H   -0.406624
    13  S    0.680076
    14  C   -0.056851
    15  C    0.483319
    16  H   -0.332184
    17  H   -0.314893
    18  H   -0.104723
    19  O   -1.139556
    20  H    0.420256
 Sum of Mulliken charges =  -0.00000
 Mulliken charges with hydrogens summed into heavy atoms:
               1
     1  C    0.216266
     2  C   -0.399096
     3  C    0.606269
     4  C   -0.172822
     5  S    0.527233
     7  C    0.235219
     8  S    0.515066
     9  C   -0.456049
    10  C   -0.517615
    11  C   -0.294636
    13  S    0.680076
    14  C   -0.389035
    15  C    0.168426
    19  O   -0.719300
 Electronic spatial extent (au):  <R**2>=           4980.6243
 Charge=             -0.0000 electrons
 Dipole moment (field-independent basis, Debye):
    X=             -1.3189    Y=              0.4647    Z=              0.2567  Tot=              1.4217
 Quadrupole moment (field-independent basis, Debye-Ang):
   XX=            -99.8196   YY=            -97.6142   ZZ=           -103.9825
   XY=              8.6308   XZ=             -6.6981   YZ=             -4.9684
 Traceless Quadrupole moment (field-independent basis, Debye-Ang):
   XX=              0.6525   YY=              2.8579   ZZ=             -3.5104
   XY=              8.6308   XZ=             -6.6981   YZ=             -4.9684
 Octapole moment (field-independent basis, Debye-Ang**2):
  XXX=            -63.5233  YYY=             13.6667  ZZZ=              0.8733  XYY=             23.3409
  XXY=             -4.9401  XXZ=              3.1796  XZZ=             33.6971  YZZ=              8.7549
  YYZ=             -9.3773  XYZ=            -39.6815
 Hexadecapole moment (field-independent basis, Debye-Ang**3):
 XXXX=          -5603.0222 YYYY=           -706.0786 ZZZZ=           -469.3017 XXXY=            236.5140
 XXXZ=           -242.7264 YYYX=            120.9255 YYYZ=            -20.0050 ZZZX=            -43.6430
 ZZZY=            -29.6936 XXYY=           -925.0810 XXZZ=           -943.9629 YYZZ=           -176.2698
 XXYZ=           -165.8961 YYXZ=            -63.4655 ZZXY=             44.1847
 N-N= 1.077162448674D+03 E-N=-6.058614470556D+03  KE= 1.646829943159D+03
 Calling FoFJK, ICntrl=      2127 FMM=F ISym2X=0 I1Cent= 0 IOpClX= 0 NMat=1 NMatS=1 NMatT=0.
 ***** Axes restored to original set *****
 -------------------------------------------------------------------
 Center     Atomic                   Forces (Hartrees/Bohr)
 Number     Number              X              Y              Z
 -------------------------------------------------------------------
      1        6          -0.033371745   -0.004263732   -0.019192073
      2        6           0.017943921    0.017079435   -0.021587850
      3        6          -0.071797305    0.040901879    0.009205637
      4        6          -0.011186295    0.074575568   -0.012784757
      5       16          -0.005277334    0.041408378   -0.002059453
      6        1           0.004187745   -0.002417014   -0.001744220
      7        6           0.058812867    0.007270584   -0.072057699
      8       16          -0.013869747    0.013955179   -0.012968410
      9        6          -0.014820675   -0.012703764   -0.051911394
     10        6          -0.007967768   -0.015172328    0.053460935
     11        6          -0.025012441   -0.003283221    0.075363872
     12        1          -0.004255935    0.006149197    0.002947189
     13       16           0.018473578    0.002270136    0.016203044
     14        6          -0.034258669    0.014654952    0.068240840
     15        6           0.019531674   -0.024660054   -0.071372995
     16        1           0.000862111    0.007808563   -0.003841547
     17        1           0.004668544    0.009986426   -0.005061480
     18        1           0.016831883   -0.078878436    0.022092269
     19        8           0.033978253    0.036140014   -0.009943175
     20        1           0.046527337   -0.130821762    0.037011267
 -------------------------------------------------------------------
 Cartesian Forces:  Max     0.130821762 RMS     0.037001496

 GradGradGradGradGradGradGradGradGradGradGradGradGradGradGradGradGradGrad
 Berny optimization.
 FormGI is forming the generalized inverse of G from B-inverse, IUseBI=4.
 Internal  Forces:  Max     0.140733416 RMS     0.028711776
 Search for a local minimum.
 Step number   1 out of a maximum of  116
 All quantities printed in internal units (Hartrees-Bohrs-Radians)
 Mixed Optimization -- RFO/linear search
 Second derivative matrix not updated -- first step.
 ITU=  0
     Eigenvalues ---    0.00230   0.00983   0.01059   0.01224   0.01276
     Eigenvalues ---    0.01302   0.01386   0.01417   0.01427   0.01464
     Eigenvalues ---    0.01496   0.01554   0.01594   0.01771   0.02198
     Eigenvalues ---    0.02650   0.15076   0.15688   0.15739   0.15872
     Eigenvalues ---    0.15997   0.16000   0.17991   0.18458   0.20203
     Eigenvalues ---    0.21719   0.22443   0.23320   0.23380   0.23776
     Eigenvalues ---    0.23978   0.24292   0.24978   0.24995   0.26219
     Eigenvalues ---    0.26548   0.28421   0.30834   0.31284   0.31615
     Eigenvalues ---    0.34850   0.35201   0.35849   0.35886   0.36006
     Eigenvalues ---    0.36155   0.36358   0.37598   0.38343   0.38494
     Eigenvalues ---    0.39449   0.39707   0.405581000.000001000.00000
     Eigenvalues --- 1000.000001000.000001000.000001000.000001000.00000
     Eigenvalues --- 1000.000001000.000001000.000001000.000001000.00000
     Eigenvalues --- 1000.000001000.000001000.000001000.000001000.00000
     Eigenvalues --- 1000.000001000.000001000.000001000.000001000.00000
     Eigenvalues --- 1000.000001000.000001000.000001000.000001000.00000
     Eigenvalues --- 1000.000001000.000001000.000001000.000001000.00000
     Eigenvalues --- 1000.000001000.000001000.000001000.000001000.00000
     Eigenvalues --- 1000.000001000.000001000.000001000.000001000.00000
     Eigenvalues --- 1000.000001000.000001000.000001000.000001000.00000
     Eigenvalues --- 1000.000001000.000001000.000001000.000001000.00000
     Eigenvalues --- 1000.00000
 RFO step:  Lambda=-1.95930651D-01 EMin= 2.30000000D-03
 Linear search not attempted -- first point.
 Maximum step size (   0.300) exceeded in Quadratic search.
    -- Step size scaled by   0.451
 Iteration  1 RMS(Cart)=  0.06070669 RMS(Int)=  0.00128608
 Iteration  2 RMS(Cart)=  0.00168342 RMS(Int)=  0.00005809
 Iteration  3 RMS(Cart)=  0.00000718 RMS(Int)=  0.00005790
 Iteration  4 RMS(Cart)=  0.00000000 RMS(Int)=  0.00005790
 Iteration  1 RMS(Cart)=  0.00000103 RMS(Int)=  0.00000039
 Iteration  2 RMS(Cart)=  0.00000056 RMS(Int)=  0.00000044
 Variable       Old X    -DE/DX   Delta X   Delta X   Delta X     New X
                                 (Linear)    (Quad)   (Total)
    R1        2.71917  -0.01958   0.00000  -0.01584  -0.01577   2.70340
    R2        2.71391  -0.08719   0.00000  -0.06637  -0.06634   2.64757
    R3        3.19503  -0.12332   0.00000  -0.14628  -0.14628   3.04875
    R4        2.75906  -0.09301   0.00000  -0.07452  -0.07449   2.68458
    R5        2.35064  -0.08131   0.00000  -0.08884  -0.08884   2.26180
    R6        3.39578  -0.02794   0.00000  -0.02645  -0.02650   3.36928
    R7        2.74954   0.00199   0.00000   0.00157   0.00157   2.75111
    R8        3.28671  -0.02234   0.00000  -0.01902  -0.01907   3.26764
    R9        2.04073  -0.00285   0.00000  -0.00231  -0.00231   2.03842
   R10        3.38327  -0.01965   0.00000  -0.01822  -0.01826   3.36501
   R11        2.76647  -0.08949   0.00000  -0.07227  -0.07227   2.69420
   R12        3.26841  -0.00543   0.00000  -0.00413  -0.00414   3.26427
   R13        2.72320  -0.05441   0.00000  -0.04219  -0.04211   2.68109
   R14        2.69592   0.00232   0.00000   0.00100   0.00105   2.69698
   R15        2.70708  -0.00888   0.00000  -0.00746  -0.00743   2.69965
   R16        3.27441  -0.00290   0.00000  -0.00183  -0.00185   3.27256
   R17        2.03840  -0.00044   0.00000  -0.00036  -0.00036   2.03804
   R18        3.33485  -0.01824   0.00000  -0.01636  -0.01641   3.31843
   R19        2.72920  -0.08023   0.00000  -0.06217  -0.06218   2.66703
   R20        2.04259  -0.00319   0.00000  -0.00259  -0.00259   2.04000
   R21        2.05350  -0.00668   0.00000  -0.00550  -0.00550   2.04800
   R22        2.39943  -0.14073   0.00000  -0.15961  -0.15961   2.23982
    A1        1.97020   0.02245   0.00000   0.02132   0.02143   1.99163
    A2        2.13260   0.00315   0.00000   0.00449   0.00445   2.13704
    A3        2.16079  -0.02485   0.00000  -0.02427  -0.02435   2.13643
    A4        1.97187  -0.00291   0.00000  -0.00473  -0.00461   1.96726
    A5        1.96334   0.02389   0.00000   0.03096   0.03091   1.99425
    A6        2.34288  -0.02077   0.00000  -0.02572  -0.02578   2.31710
    A7        1.90440  -0.00001   0.00000   0.00068   0.00067   1.90507
    A8        2.31891  -0.01081   0.00000  -0.01129  -0.01128   2.30763
    A9        2.05972   0.01084   0.00000   0.01063   0.01064   2.07036
   A10        1.95339  -0.01765   0.00000  -0.01891  -0.01893   1.93446
   A11        2.17580   0.01300   0.00000   0.01477   0.01477   2.19058
   A12        2.15384   0.00468   0.00000   0.00420   0.00421   2.15805
   A13        1.62490  -0.00189   0.00000   0.00165   0.00146   1.62635
   A14        2.12908  -0.00269   0.00000  -0.00259  -0.00260   2.12648
   A15        2.24028  -0.00576   0.00000  -0.00571  -0.00572   2.23456
   A16        1.91314   0.00853   0.00000   0.00844   0.00845   1.92159
   A17        1.61902  -0.00795   0.00000  -0.00624  -0.00625   1.61277
   A18        1.96183  -0.01154   0.00000  -0.01041  -0.01052   1.95131
   A19        2.23869   0.00921   0.00000   0.01253   0.01241   2.25110
   A20        1.96508   0.00683   0.00000   0.00658   0.00663   1.97171
   A21        1.96594   0.00820   0.00000   0.00741   0.00744   1.97338
   A22        1.96627  -0.01398   0.00000  -0.01281  -0.01288   1.95339
   A23        2.23797   0.00969   0.00000   0.01282   0.01272   2.25069
   A24        1.96411   0.00281   0.00000   0.00089   0.00096   1.96508
   A25        2.16174  -0.00612   0.00000  -0.00613  -0.00618   2.15555
   A26        2.14561   0.00398   0.00000   0.00667   0.00661   2.15222
   A27        1.59318  -0.00002   0.00000   0.00128   0.00124   1.59442
   A28        1.96060   0.00119   0.00000   0.00063   0.00061   1.96121
   A29        2.13515  -0.00395   0.00000  -0.00410  -0.00415   2.13101
   A30        2.17037   0.00405   0.00000   0.00616   0.00612   2.17649
   A31        1.93935   0.00598   0.00000   0.00433   0.00440   1.94375
   A32        2.16529   0.00000   0.00000   0.00254   0.00244   2.16773
   A33        2.14176  -0.00375   0.00000  -0.00232  -0.00242   2.13934
   A34        2.33954  -0.06958   0.00000  -0.08823  -0.08823   2.25130
    D1        0.00683  -0.00086   0.00000  -0.00176  -0.00177   0.00507
    D2        3.05589  -0.00026   0.00000   0.00129   0.00141   3.05730
    D3       -2.93068  -0.00181   0.00000  -0.00684  -0.00700  -2.93768
    D4        0.11838  -0.00121   0.00000  -0.00380  -0.00382   0.11456
    D5       -0.00671   0.00114   0.00000   0.00228   0.00229  -0.00443
    D6       -3.13020  -0.00078   0.00000  -0.00134  -0.00132  -3.13152
    D7        2.92697   0.00603   0.00000   0.01149   0.01142   2.93839
    D8       -0.19651   0.00411   0.00000   0.00787   0.00781  -0.18870
    D9       -0.13323   0.00226   0.00000   0.00283   0.00279  -0.13043
   D10       -3.04818  -0.00482   0.00000  -0.00866  -0.00862  -3.05680
   D11       -0.00388   0.00041   0.00000   0.00064   0.00061  -0.00327
   D12        3.11762   0.00171   0.00000   0.00249   0.00245   3.12007
   D13       -3.02603  -0.00398   0.00000  -0.00784  -0.00780  -3.03383
   D14        0.09547  -0.00268   0.00000  -0.00599  -0.00595   0.08952
   D15        0.00006   0.00027   0.00000   0.00061   0.00063   0.00069
   D16       -3.12486  -0.00055   0.00000  -0.00066  -0.00066  -3.12551
   D17        1.91954  -0.00107   0.00000   0.00000  -0.00000   1.91953
   D18       -1.26617   0.00180   0.00000   0.00503   0.00503  -1.26113
   D19       -1.24356   0.00020   0.00000   0.00186   0.00186  -1.24170
   D20        1.85392   0.00307   0.00000   0.00689   0.00690   1.86082
   D21        0.00376  -0.00081   0.00000  -0.00166  -0.00166   0.00209
   D22        3.12751   0.00119   0.00000   0.00204   0.00200   3.12951
   D23        3.13760   0.00073   0.00000   0.00127   0.00128   3.13888
   D24        0.03273  -0.00138   0.00000  -0.00264  -0.00267   0.03006
   D25       -3.13870  -0.00184   0.00000  -0.00307  -0.00305   3.14144
   D26       -0.15718   0.00321   0.00000   0.00732   0.00732  -0.14987
   D27       -0.03682   0.00056   0.00000   0.00128   0.00132  -0.03550
   D28        2.94469   0.00560   0.00000   0.01167   0.01168   2.95638
   D29       -0.02093   0.00237   0.00000   0.00384   0.00381  -0.01712
   D30       -2.61619  -0.00825   0.00000  -0.01560  -0.01562  -2.63181
   D31        0.00301  -0.00196   0.00000  -0.00337  -0.00334  -0.00033
   D32       -2.68898  -0.01198   0.00000  -0.02071  -0.02055  -2.70952
   D33        2.68698   0.00882   0.00000   0.01590   0.01579   2.70277
   D34       -0.00501  -0.00120   0.00000  -0.00145  -0.00142  -0.00643
   D35        2.61371   0.00696   0.00000   0.01614   0.01626   2.62997
   D36       -0.24565  -0.00085   0.00000  -0.00052  -0.00046  -0.24611
   D37        0.01927   0.00095   0.00000   0.00095   0.00093   0.02020
   D38       -2.84009  -0.00686   0.00000  -0.01571  -0.01580  -2.85589
   D39        0.02242   0.00097   0.00000   0.00132   0.00130   0.02372
   D40       -2.96080  -0.00296   0.00000  -0.00762  -0.00768  -2.96848
   D41        2.62821   0.00530   0.00000   0.01349   0.01361   2.64182
   D42       -0.35501   0.00137   0.00000   0.00456   0.00463  -0.35038
   D43       -0.00814   0.00122   0.00000   0.00146   0.00144  -0.00670
   D44       -2.61385  -0.00861   0.00000  -0.01573  -0.01570  -2.62955
   D45        0.01922  -0.00055   0.00000  -0.00082  -0.00082   0.01839
   D46        2.97122   0.00707   0.00000   0.01474   0.01468   2.98590
   D47       -0.02533   0.00004   0.00000   0.00021   0.00024  -0.02509
   D48        2.83849   0.00840   0.00000   0.01751   0.01754   2.85603
   D49       -2.97283  -0.00673   0.00000  -0.01438  -0.01441  -2.98724
   D50       -0.10901   0.00163   0.00000   0.00292   0.00289  -0.10612
         Item               Value     Threshold  Converged?
 Maximum Force            0.140733     0.000450     NO 
 RMS     Force            0.028848     0.000300     NO 
 Maximum Displacement     0.399630     0.001800     NO 
 RMS     Displacement     0.060183     0.001200     NO 
 Predicted change in Energy=-7.762915D-02
 GradGradGradGradGradGradGradGradGradGradGradGradGradGradGradGradGradGrad

                          Input orientation:                          
 ---------------------------------------------------------------------
 Center     Atomic      Atomic             Coordinates (Angstroms)
 Number     Number       Type             X           Y           Z
 ---------------------------------------------------------------------
      1          6           0       -4.226462   -1.362475   -0.228355
      2          6           0       -2.910304   -0.968612   -0.627300
      3          6           0       -1.989945   -2.050784   -0.626501
      4          6           0       -4.345931   -2.722205    0.087499
      5         16           0       -2.832763   -3.535089   -0.111338
      6          1           0       -5.252872   -3.215523    0.399993
      7          6           0       -0.578765   -2.135046   -0.974198
      8         16           0        0.678671   -2.395893    0.259356
      9          6           0        1.941891   -2.371738   -0.918575
     10          6           0        1.434756   -2.192792   -2.231474
     11          6           0        0.011473   -2.076107   -2.270651
     12          1           0       -0.559072   -2.090808   -3.185744
     13         16           0        2.508404   -2.829829   -3.431671
     14          6           0        3.653931   -3.333225   -2.199585
     15          6           0        3.204215   -3.037185   -0.894990
     16          1           0        4.509680   -3.949803   -2.429575
     17          1           0        3.636679   -3.492025   -0.011464
     18          1           0       -2.824964    0.170450   -0.984807
     19          8           0       -5.509098   -0.400170   -0.406257
     20          1           0       -5.548525    0.734861   -0.745364
 ---------------------------------------------------------------------
                    Distance matrix (angstroms):
                    1          2          3          4          5
     1  C    0.000000
     2  C    1.430580   0.000000
     3  C    2.373668   1.420618   0.000000
     4  C    1.401036   2.376352   2.551719   0.000000
     5  S    2.583862   2.618975   1.782946   1.729159   0.000000
     6  H    2.209554   3.404639   3.613447   1.078683   2.494095
     7  C    3.802478   2.630015   1.455823   3.957713   2.790189
     8  S    5.036481   3.962831   2.832905   5.038118   3.710168
     9  C    6.288370   5.059387   3.955711   6.377438   4.980195
    10  C    6.062286   4.790776   3.784796   6.250941   4.950602
    11  C    4.758187   3.530429   2.590279   4.996527   3.857582
    12  H    4.767219   3.651472   2.932358   5.045105   4.087492
    13  S    7.600842   6.378952   5.358268   7.705716   6.328513
    14  C    8.358840   7.152108   5.997715   8.342775   6.817531
    15  C    7.646177   6.460494   5.293805   7.620315   6.107956
    16  H    9.373357   8.197063   7.007315   9.287868   7.710880
    17  H    8.149295   7.043425   5.840748   8.020254   6.470356
    18  H    2.210492   1.196895   2.399900   3.439569   3.807102
    19  O    1.613330   2.669404   3.893260   2.643596   4.132488
    20  H    2.532580   3.142606   4.520778   3.753824   5.099982
                    6          7          8          9         10
     6  H    0.000000
     7  C    4.990301   0.000000
     8  S    5.989555   1.780686   0.000000
     9  C    7.363098   2.532356   1.727377   0.000000
    10  C    7.259130   2.374521   2.610968   1.418771   0.000000
    11  C    6.011983   1.425709   2.635973   2.375294   1.428596
    12  H    6.012841   2.212076   3.673390   3.387298   2.212777
    13  S    8.664169   4.006559   4.142453   2.616570   1.731765
    14  C    9.279159   4.566500   3.972047   2.344467   2.495264
    15  C    8.557517   3.889867   2.849938   1.427178   2.372798
    16  H   10.190831   5.594974   4.931695   3.371491   3.547039
    17  H    8.903362   4.531911   3.166174   2.224904   3.385988
    18  H    4.390584   3.218825   4.517689   5.402778   5.028350
    19  O    2.939712   5.257426   6.535628   7.724428   7.400137
    20  H    4.123686   5.743452   7.041949   8.110936   7.716598
                   11         12         13         14         15
    11  C    0.000000
    12  H    1.078486   0.000000
    13  S    2.854948   3.164813   0.000000
    14  C    3.853945   4.501722   1.756040   0.000000
    15  C    3.606898   4.506163   2.638541   1.411330   0.000000
    16  H    4.875434   5.451595   2.502727   1.079523   2.211801
    17  H    4.500096   5.444610   3.661875   2.193944   1.083754
    18  H    3.840025   3.884801   6.590420   7.465086   6.829933
    19  O    6.063121   5.923391   8.907116   9.786722   9.116717
    20  H    6.414173   6.231734   9.210721  10.166085   9.532112
                   16         17         18         19         20
    16  H    0.000000
    17  H    2.611313   0.000000
    18  H    8.535856   7.490924   0.000000
    19  O   10.819871   9.662332   2.804443   0.000000
    20  H   11.222750  10.137708   2.791716   1.185261   0.000000
 Stoichiometry    C10H6OS3
 Framework group  C1[X(C10H6OS3)]
 Deg. of freedom    54
 Full point group                 C1      NOp   1
 Largest Abelian subgroup         C1      NOp   1
 Largest concise Abelian subgroup C1      NOp   1
                         Standard orientation:                         
 ---------------------------------------------------------------------
 Center     Atomic      Atomic             Coordinates (Angstroms)
 Number     Number       Type             X           Y           Z
 ---------------------------------------------------------------------
      1          6           0        3.871569    0.367020   -0.254439
      2          6           0        2.575774    0.683289   -0.771593
      3          6           0        1.530339    0.019114   -0.075826
      4          6           0        3.855131   -0.530983    0.820839
      5         16           0        2.235219   -0.991909    1.212536
      6          1           0        4.723099   -0.886589    1.353506
      7          6           0        0.082530    0.048931   -0.225427
      8         16           0       -0.825912   -1.347934   -0.853395
      9          6           0       -2.336976   -0.524148   -0.705425
     10          6           0       -2.176061    0.779689   -0.169677
     11          6           0       -0.814632    1.101962    0.119351
     12          1           0       -0.518007    1.980224    0.670533
     13         16           0       -3.616905    1.340497    0.610370
     14          6           0       -4.457514   -0.151696    0.222541
     15          6           0       -3.635911   -1.066587   -0.470132
     16          1           0       -5.429627   -0.384989    0.629900
     17          1           0       -3.883577   -2.117403   -0.564850
     18          1           0        2.578826    1.518363   -1.629030
     19          8           0        5.195488    1.186968   -0.676053
     20          1           0        5.321451    2.024645   -1.505073
 ---------------------------------------------------------------------
 Rotational constants (GHZ):           1.4085715           0.2244362           0.2138575
 Standard basis: Aug-CC-pVDZ (5D, 7F)
 There are   416 symmetry adapted cartesian basis functions of A   symmetry.
 There are   388 symmetry adapted basis functions of A   symmetry.
   388 basis functions,   782 primitive gaussians,   416 cartesian basis functions
    61 alpha electrons       61 beta electrons
       nuclear repulsion energy      1088.1162632028 Hartrees.
 NAtoms=   20 NActive=   20 NUniq=   20 SFac= 1.00D+00 NAtFMM=   60 NAOKFM=F Big=F
 Integral buffers will be    131072 words long.
 Raffenetti 1 integral format.
 Two-electron integral symmetry is turned on.
 One-electron integrals computed using PRISM.
 NBasis=   388 RedAO= T EigKep=  7.02D-06  NBF=   388
 NBsUse=   388 1.00D-06 EigRej= -1.00D+00 NBFU=   388
 Initial guess from the checkpoint file:  "/tmp/pbs.4766241[285].pbs/Gau-2521739.chk"
 B after Tr=    -0.000000   -0.000000    0.000000
         Rot=    0.999970    0.007371   -0.001666   -0.001604 Ang=   0.89 deg.
 ExpMin= 2.97D-02 ExpMax= 1.11D+05 ExpMxC= 1.07D+03 IAcc=3 IRadAn=         5 AccDes= 0.00D+00
 Harris functional with IExCor=  205 and IRadAn=       5 diagonalized for initial guess.
 HarFok:  IExCor=  205 AccDes= 0.00D+00 IRadAn=         5 IDoV= 1 UseB2=F ITyADJ=14
 ICtDFT=  3500011 ScaDFX=  1.000000  1.000000  1.000000  1.000000
 FoFCou: FMM=F IPFlag=           0 FMFlag=      100000 FMFlg1=           0
         NFxFlg=           0 DoJE=T BraDBF=F KetDBF=T FulRan=T
         wScrn=  0.000000 ICntrl=       500 IOpCl=  0 I1Cent=   200000004 NGrid=           0
         NMat0=    1 NMatS0=      1 NMatT0=    0 NMatD0=    1 NMtDS0=    0 NMtDT0=    0
 Petite list used in FoFCou.
 Requested convergence on RMS density matrix=1.00D-08 within 128 cycles.
 Requested convergence on MAX density matrix=1.00D-06.
 Requested convergence on             energy=1.00D-06.
 No special actions if energy rises.
 SCF Done:  E(RHF) =  -1649.50207230     A.U. after   15 cycles
            NFock= 15  Conv=0.59D-08     -V/T= 2.0012
 Calling FoFJK, ICntrl=      2127 FMM=F ISym2X=0 I1Cent= 0 IOpClX= 0 NMat=1 NMatS=1 NMatT=0.
 ***** Axes restored to original set *****
 -------------------------------------------------------------------
 Center     Atomic                   Forces (Hartrees/Bohr)
 Number     Number              X              Y              Z
 -------------------------------------------------------------------
      1        6          -0.051670244    0.017589248   -0.020517673
      2        6           0.015803288    0.020861568   -0.019905155
      3        6          -0.055161052    0.028601703    0.008308010
      4        6          -0.008268429    0.056609150   -0.008307321
      5       16           0.002030394    0.025545495   -0.000766031
      6        1           0.003392948   -0.002442410   -0.001857843
      7        6           0.046834267    0.005968424   -0.054409848
      8       16          -0.011901274    0.012153890   -0.005690008
      9        6          -0.013787978   -0.011029130   -0.040056015
     10        6          -0.001436361   -0.014877774    0.040805028
     11        6          -0.022810092   -0.001781454    0.054677856
     12        1          -0.003060499    0.005957888    0.002070213
     13       16           0.015010063    0.003330625    0.007411137
     14        6          -0.025628898    0.009271841    0.050938535
     15        6           0.015859799   -0.020081552   -0.051214820
     16        1           0.001162729    0.006772305   -0.003828172
     17        1           0.004367097    0.009340287   -0.002680485
     18        1           0.013038118   -0.063876647    0.018889034
     19        8           0.044563631    0.039775353   -0.011177999
     20        1           0.031662494   -0.127688811    0.037311557
 -------------------------------------------------------------------
 Cartesian Forces:  Max     0.127688811 RMS     0.031461778

 GradGradGradGradGradGradGradGradGradGradGradGradGradGradGradGradGradGrad
 Berny optimization.
 Using GEDIIS/GDIIS optimizer.
 FormGI is forming the generalized inverse of G from B-inverse, IUseBI=4.
 Internal  Forces:  Max     0.134005708 RMS     0.023861061
 Search for a local minimum.
 Step number   2 out of a maximum of  116
 All quantities printed in internal units (Hartrees-Bohrs-Radians)
 Mixed Optimization -- RFO/linear search
 Update second derivatives using D2CorX and points    1    2
 DE= -8.19D-02 DEPred=-7.76D-02 R= 1.06D+00
 TightC=F SS=  1.41D+00  RLast= 3.06D-01 DXNew= 5.0454D-01 9.1697D-01
 Trust test= 1.06D+00 RLast= 3.06D-01 DXMaxT set to 5.05D-01
 ITU=  1  0
 Use linear search instead of GDIIS.
 Linear search step of   0.600 exceeds DXMaxT=   0.505 but not scaled.
 Quartic linear search produced a step of  2.00000.
 Iteration  1 RMS(Cart)=  0.10663501 RMS(Int)=  0.01821197
 Iteration  2 RMS(Cart)=  0.02063901 RMS(Int)=  0.00036867
 Iteration  3 RMS(Cart)=  0.00018543 RMS(Int)=  0.00035077
 Iteration  4 RMS(Cart)=  0.00000009 RMS(Int)=  0.00035077
 Iteration  1 RMS(Cart)=  0.00000571 RMS(Int)=  0.00000231
 Iteration  2 RMS(Cart)=  0.00000311 RMS(Int)=  0.00000258
 Iteration  3 RMS(Cart)=  0.00000169 RMS(Int)=  0.00000291
 Iteration  4 RMS(Cart)=  0.00000092 RMS(Int)=  0.00000313
 Variable       Old X    -DE/DX   Delta X   Delta X   Delta X     New X
                                 (Linear)    (Quad)   (Total)
    R1        2.70340  -0.00882  -0.03153   0.00000  -0.03104   2.67237
    R2        2.64757  -0.06049  -0.13268   0.00000  -0.13248   2.51509
    R3        3.04875  -0.11592  -0.29257   0.00000  -0.29257   2.75619
    R4        2.68458  -0.06551  -0.14897   0.00000  -0.14875   2.53583
    R5        2.26180  -0.06550  -0.17767   0.00000  -0.17767   2.08413
    R6        3.36928  -0.02075  -0.05300   0.00000  -0.05335   3.31593
    R7        2.75111   0.00465   0.00314   0.00000   0.00314   2.75425
    R8        3.26764  -0.01094  -0.03815   0.00000  -0.03852   3.22912
    R9        2.03842  -0.00227  -0.00463   0.00000  -0.00463   2.03379
   R10        3.36501  -0.01403  -0.03652   0.00000  -0.03676   3.32825
   R11        2.69420  -0.06531  -0.14455   0.00000  -0.14456   2.54963
   R12        3.26427  -0.00092  -0.00828   0.00000  -0.00835   3.25592
   R13        2.68109  -0.03925  -0.08422   0.00000  -0.08378   2.59731
   R14        2.69698   0.00405   0.00210   0.00000   0.00242   2.69940
   R15        2.69965  -0.00231  -0.01486   0.00000  -0.01464   2.68501
   R16        3.27256   0.00023  -0.00370   0.00000  -0.00383   3.26873
   R17        2.03804  -0.00022  -0.00071   0.00000  -0.00071   2.03733
   R18        3.31843  -0.01209  -0.03283   0.00000  -0.03316   3.28528
   R19        2.66703  -0.05704  -0.12435   0.00000  -0.12436   2.54266
   R20        2.04000  -0.00213  -0.00518   0.00000  -0.00518   2.03482
   R21        2.04800  -0.00436  -0.01100   0.00000  -0.01100   2.03700
   R22        2.23982  -0.13401  -0.31923   0.00000  -0.31923   1.92059
    A1        1.99163   0.01295   0.04285   0.00000   0.04349   2.03512
    A2        2.13704   0.00501   0.00889   0.00000   0.00859   2.14564
    A3        2.13643  -0.01719  -0.04871   0.00000  -0.04920   2.08723
    A4        1.96726  -0.00175  -0.00922   0.00000  -0.00851   1.95875
    A5        1.99425   0.02044   0.06182   0.00000   0.06147   2.05571
    A6        2.31710  -0.01847  -0.05157   0.00000  -0.05198   2.26512
    A7        1.90507   0.00264   0.00134   0.00000   0.00131   1.90638
    A8        2.30763  -0.01034  -0.02256   0.00000  -0.02255   2.28508
    A9        2.07036   0.00771   0.02127   0.00000   0.02129   2.09164
   A10        1.93446  -0.01004  -0.03786   0.00000  -0.03798   1.89648
   A11        2.19058   0.00876   0.02955   0.00000   0.02959   2.22017
   A12        2.15805   0.00130   0.00842   0.00000   0.00846   2.16651
   A13        1.62635  -0.00379   0.00291   0.00000   0.00169   1.62805
   A14        2.12648  -0.00284  -0.00519   0.00000  -0.00526   2.12123
   A15        2.23456  -0.00466  -0.01143   0.00000  -0.01150   2.22306
   A16        1.92159   0.00757   0.01691   0.00000   0.01700   1.93859
   A17        1.61277  -0.00661  -0.01250   0.00000  -0.01259   1.60018
   A18        1.95131  -0.00771  -0.02103   0.00000  -0.02168   1.92963
   A19        2.25110   0.00729   0.02482   0.00000   0.02412   2.27522
   A20        1.97171   0.00445   0.01326   0.00000   0.01356   1.98527
   A21        1.97338   0.00490   0.01488   0.00000   0.01505   1.98842
   A22        1.95339  -0.00899  -0.02575   0.00000  -0.02611   1.92728
   A23        2.25069   0.00769   0.02544   0.00000   0.02480   2.27549
   A24        1.96508   0.00188   0.00193   0.00000   0.00235   1.96743
   A25        2.15555  -0.00420  -0.01237   0.00000  -0.01271   2.14284
   A26        2.15222   0.00292   0.01322   0.00000   0.01288   2.16510
   A27        1.59442  -0.00131   0.00249   0.00000   0.00223   1.59665
   A28        1.96121   0.00201   0.00122   0.00000   0.00111   1.96232
   A29        2.13101  -0.00432  -0.00830   0.00000  -0.00859   2.12241
   A30        2.17649   0.00345   0.01225   0.00000   0.01202   2.18851
   A31        1.94375   0.00385   0.00879   0.00000   0.00921   1.95296
   A32        2.16773  -0.00019   0.00488   0.00000   0.00427   2.17200
   A33        2.13934  -0.00173  -0.00485   0.00000  -0.00548   2.13385
   A34        2.25130  -0.06090  -0.17646   0.00000  -0.17646   2.07484
    D1        0.00507  -0.00056  -0.00354   0.00000  -0.00362   0.00145
    D2        3.05730   0.00041   0.00281   0.00000   0.00351   3.06081
    D3       -2.93768  -0.00276  -0.01400   0.00000  -0.01491  -2.95259
    D4        0.11456  -0.00179  -0.00765   0.00000  -0.00778   0.10678
    D5       -0.00443   0.00086   0.00457   0.00000   0.00462   0.00019
    D6       -3.13152  -0.00077  -0.00265   0.00000  -0.00254  -3.13407
    D7        2.93839   0.00590   0.02284   0.00000   0.02244   2.96083
    D8       -0.18870   0.00427   0.01562   0.00000   0.01528  -0.17342
    D9       -0.13043   0.00173   0.00559   0.00000   0.00533  -0.12510
   D10       -3.05680  -0.00431  -0.01723   0.00000  -0.01698  -3.07377
   D11       -0.00327   0.00009   0.00122   0.00000   0.00099  -0.00228
   D12        3.12007   0.00137   0.00490   0.00000   0.00465   3.12472
   D13       -3.03383  -0.00404  -0.01560   0.00000  -0.01535  -3.04918
   D14        0.08952  -0.00277  -0.01191   0.00000  -0.01169   0.07782
   D15        0.00069   0.00037   0.00126   0.00000   0.00140   0.00208
   D16       -3.12551  -0.00050  -0.00131   0.00000  -0.00129  -3.12680
   D17        1.91953  -0.00111  -0.00000   0.00000  -0.00000   1.91953
   D18       -1.26113   0.00164   0.01007   0.00000   0.01008  -1.25106
   D19       -1.24170   0.00019   0.00373   0.00000   0.00375  -1.23794
   D20        1.86082   0.00295   0.01380   0.00000   0.01383   1.87465
   D21        0.00209  -0.00069  -0.00333   0.00000  -0.00336  -0.00127
   D22        3.12951   0.00098   0.00400   0.00000   0.00375   3.13326
   D23        3.13888   0.00074   0.00255   0.00000   0.00260   3.14148
   D24        0.03006  -0.00136  -0.00533   0.00000  -0.00547   0.02458
   D25        3.14144  -0.00152  -0.00609   0.00000  -0.00596   3.13549
   D26       -0.14987   0.00315   0.01463   0.00000   0.01458  -0.13529
   D27       -0.03550   0.00081   0.00264   0.00000   0.00290  -0.03259
   D28        2.95638   0.00549   0.02337   0.00000   0.02344   2.97982
   D29       -0.01712   0.00193   0.00762   0.00000   0.00747  -0.00965
   D30       -2.63181  -0.00759  -0.03124   0.00000  -0.03134  -2.66315
   D31       -0.00033  -0.00145  -0.00668   0.00000  -0.00654  -0.00686
   D32       -2.70952  -0.01041  -0.04109   0.00000  -0.04008  -2.74960
   D33        2.70277   0.00811   0.03158   0.00000   0.03092   2.73368
   D34       -0.00643  -0.00085  -0.00283   0.00000  -0.00262  -0.00905
   D35        2.62997   0.00717   0.03253   0.00000   0.03324   2.66321
   D36       -0.24611  -0.00038  -0.00092   0.00000  -0.00057  -0.24668
   D37        0.02020   0.00046   0.00185   0.00000   0.00172   0.02192
   D38       -2.85589  -0.00708  -0.03160   0.00000  -0.03209  -2.88797
   D39        0.02372   0.00046   0.00260   0.00000   0.00251   0.02623
   D40       -2.96848  -0.00349  -0.01537   0.00000  -0.01577  -2.98425
   D41        2.64182   0.00599   0.02722   0.00000   0.02792   2.66974
   D42       -0.35038   0.00204   0.00925   0.00000   0.00964  -0.34074
   D43       -0.00670   0.00105   0.00289   0.00000   0.00277  -0.00392
   D44       -2.62955  -0.00768  -0.03140   0.00000  -0.03123  -2.66078
   D45        0.01839  -0.00069  -0.00165   0.00000  -0.00167   0.01672
   D46        2.98590   0.00655   0.02937   0.00000   0.02905   3.01495
   D47       -0.02509   0.00038   0.00048   0.00000   0.00062  -0.02447
   D48        2.85603   0.00803   0.03508   0.00000   0.03524   2.89127
   D49       -2.98724  -0.00616  -0.02882   0.00000  -0.02900  -3.01624
   D50       -0.10612   0.00149   0.00578   0.00000   0.00562  -0.10050
         Item               Value     Threshold  Converged?
 Maximum Force            0.134006     0.000450     NO 
 RMS     Force            0.023974     0.000300     NO 
 Maximum Displacement     0.721247     0.001800     NO 
 RMS     Displacement     0.116847     0.001200     NO 
 Predicted change in Energy=-1.209405D-01
 GradGradGradGradGradGradGradGradGradGradGradGradGradGradGradGradGradGrad

                          Input orientation:                          
 ---------------------------------------------------------------------
 Center     Atomic      Atomic             Coordinates (Angstroms)
 Number     Number       Type             X           Y           Z
 ---------------------------------------------------------------------
      1          6           0       -4.176884   -1.362962   -0.265628
      2          6           0       -2.867726   -1.003561   -0.661571
      3          6           0       -2.026113   -2.048522   -0.640435
      4          6           0       -4.372188   -2.638759    0.059293
      5         16           0       -2.895118   -3.479871   -0.115943
      6          1           0       -5.293658   -3.096036    0.375638
      7          6           0       -0.612664   -2.143137   -0.983182
      8         16           0        0.619049   -2.398826    0.249478
      9          6           0        1.874899   -2.384103   -0.930016
     10          6           0        1.352803   -2.205046   -2.188760
     11          6           0       -0.062922   -2.087195   -2.214043
     12          1           0       -0.652261   -2.082550   -3.116804
     13         16           0        2.449307   -2.799426   -3.387251
     14          6           0        3.595457   -3.272718   -2.168770
     15          6           0        3.157673   -3.012549   -0.923346
     16          1           0        4.479098   -3.837057   -2.414033
     17          1           0        3.624309   -3.436676   -0.049099
     18          1           0       -2.701295    0.029666   -1.009529
     19          8           0       -5.323909   -0.475465   -0.420335
     20          1           0       -5.166858    0.480793   -0.726667
 ---------------------------------------------------------------------
                    Distance matrix (angstroms):
                    1          2          3          4          5
     1  C    0.000000
     2  C    1.414156   0.000000
     3  C    2.288293   1.341902   0.000000
     4  C    1.330930   2.336006   2.518346   0.000000
     5  S    2.479240   2.535857   1.754714   1.708776   0.000000
     6  H    2.159155   3.367402   3.578622   1.076235   2.478301
     7  C    3.718497   2.547032   1.457487   3.932737   2.783623
     8  S    4.933490   3.864502   2.812746   5.000619   3.694802
     9  C    6.173185   4.946762   3.926114   6.330062   4.961500
    10  C    5.914810   4.646368   3.720065   6.165823   4.895568
    11  C    4.609286   3.383986   2.516319   4.903270   3.789842
    12  H    4.590204   3.478601   2.832142   4.922887   3.998509
    13  S    7.464206   6.239015   5.304549   7.644428   6.302963
    14  C    8.226689   7.013805   5.952858   8.297563   6.810622
    15  C    7.546486   6.356885   5.280249   7.602901   6.124260
    16  H    9.255421   8.066948   6.975836   9.268146   7.732261
    17  H    8.075010   6.960006   5.848412   8.036939   6.519913
    18  H    2.161056   1.102874   2.216070   3.324869   3.626694
    19  O    1.458511   2.523870   3.660384   2.411567   3.875324
    20  H    2.142904   2.737435   4.033503   3.313734   4.606587
                    6          7          8          9         10
     6  H    0.000000
     7  C    4.966499   0.000000
     8  S    5.955008   1.761234   0.000000
     9  C    7.321187   2.499772   1.722958   0.000000
    10  C    7.179515   2.306580   2.553616   1.374439   0.000000
    11  C    5.923243   1.349209   2.575099   2.343508   1.420847
    12  H    5.896343   2.134849   3.612217   3.355520   2.212815
    13  S    8.613990   3.947902   4.090981   2.557429   1.729737
    14  C    9.247789   4.515513   3.933271   2.298797   2.483913
    15  C    8.550983   3.869741   2.863003   1.428460   2.347529
    16  H   10.190100   5.553624   4.905383   3.330952   3.533827
    17  H    8.934572   4.527438   3.193410   2.223592   3.354818
    18  H    4.290576   3.013992   4.302018   5.174375   4.777053
    19  O    2.738956   5.029290   6.282254   7.464952   7.120201
    20  H    3.744978   5.262270   6.536190   7.604953   7.201210
                   11         12         13         14         15
    11  C    0.000000
    12  H    1.078109   0.000000
    13  S    2.862688   3.194805   0.000000
    14  C    3.845940   4.512026   1.738494   0.000000
    15  C    3.590879   4.493524   2.572554   1.345520   0.000000
    16  H    4.871546   5.468367   2.478686   1.076780   2.155952
    17  H    4.483721   5.434476   3.595828   2.126198   1.077933
    18  H    3.590678   3.619475   6.339245   7.204073   6.602272
    19  O    5.787318   5.628318   8.638650   9.509824   8.867190
    20  H    5.903983   5.715335   8.708875   9.640885   9.029946
                   16         17         18         19         20
    16  H    0.000000
    17  H    2.546348   0.000000
    18  H    8.275399   7.276759   0.000000
    19  O   10.553393   9.432773   2.735034   0.000000
    20  H   10.702126   9.648330   2.522405   1.016333   0.000000
 Stoichiometry    C10H6OS3
 Framework group  C1[X(C10H6OS3)]
 Deg. of freedom    54
 Full point group                 C1      NOp   1
 Largest Abelian subgroup         C1      NOp   1
 Largest concise Abelian subgroup C1      NOp   1
                         Standard orientation:                         
 ---------------------------------------------------------------------
 Center     Atomic      Atomic             Coordinates (Angstroms)
 Number     Number       Type             X           Y           Z
 ---------------------------------------------------------------------
      1          6           0        3.785716    0.388024   -0.281708
      2          6           0        2.488222    0.668479   -0.769243
      3          6           0        1.534953    0.033839   -0.069806
      4          6           0        3.865633   -0.435956    0.760426
      5         16           0        2.285891   -0.917588    1.199012
      6          1           0        4.758086   -0.758159    1.268360
[...]
 Number     Number       Type             X           Y           Z
 ---------------------------------------------------------------------
      1          6           0        3.771320    0.611704   -0.349781
      2          6           0        2.378717    0.841106   -0.621945
      3          6           0        1.566975    0.017773    0.079494
      4          6           0        3.982203   -0.383260    0.534615
      5         16           0        2.484119   -1.068794    1.075385
      6          1           0        4.927383   -0.745999    0.897368
      7          6           0        0.095146   -0.024469    0.030682
      8         16           0       -0.740458   -1.387076   -0.700532
      9          6           0       -2.277368   -0.641442   -0.388417
     10          6           0       -2.123418    0.567301    0.225010
     11          6           0       -0.757821    0.927134    0.470533
     12          1           0       -0.431380    1.832475    0.955412
     13         16           0       -3.661423    1.311752    0.538678
     14          6           0       -4.484561   -0.048483   -0.178249
     15          6           0       -3.645354   -1.005609   -0.625440
     16          1           0       -5.560381   -0.053995   -0.224288
     17          1           0       -3.970737   -1.918717   -1.096389
     18          1           0        2.012190    1.580577   -1.318442
     19          8           0        4.778546    1.311450   -0.920224
     20          1           0        4.443711    1.949421   -1.527364
 ---------------------------------------------------------------------
 Rotational constants (GHZ):           1.4743362           0.2308435           0.2171405

 **********************************************************************

            Population analysis using the SCF Density.

 **********************************************************************

 Orbital symmetries:
       Occupied  (A) (A) (A) (A) (A) (A) (A) (A) (A) (A) (A) (A)
                 (A) (A) (A) (A) (A) (A) (A) (A) (A) (A) (A) (A)
                 (A) (A) (A) (A) (A) (A) (A) (A) (A) (A) (A) (A)
                 (A) (A) (A) (A) (A) (A) (A) (A) (A) (A) (A) (A)
                 (A) (A) (A) (A) (A) (A) (A) (A) (A) (A) (A) (A)
                 (A)
       Virtual   (A) (A) (A) (A) (A) (A) (A) (A) (A) (A) (A) (A)
                 (A) (A) (A) (A) (A) (A) (A) (A) (A) (A) (A) (A)
                 (A) (A) (A) (A) (A) (A) (A) (A) (A) (A) (A) (A)
                 (A) (A) (A) (A) (A) (A) (A) (A) (A) (A) (A) (A)
                 (A) (A) (A) (A) (A) (A) (A) (A) (A) (A) (A) (A)
                 (A) (A) (A) (A) (A) (A) (A) (A) (A) (A) (A) (A)
                 (A) (A) (A) (A) (A) (A) (A) (A) (A) (A) (A) (A)
                 (A) (A) (A) (A) (A) (A) (A) (A) (A) (A) (A) (A)
                 (A) (A) (A) (A) (A) (A) (A) (A) (A) (A) (A) (A)
                 (A) (A) (A) (A) (A) (A) (A) (A) (A) (A) (A) (A)
                 (A) (A) (A) (A) (A) (A) (A) (A) (A) (A) (A) (A)
                 (A) (A) (A) (A) (A) (A) (A) (A) (A) (A) (A) (A)
                 (A) (A) (A) (A) (A) (A) (A) (A) (A) (A) (A) (A)
                 (A) (A) (A) (A) (A) (A) (A) (A) (A) (A) (A) (A)
                 (A) (A) (A) (A) (A) (A) (A) (A) (A) (A) (A) (A)
                 (A) (A) (A) (A) (A) (A) (A) (A) (A) (A) (A) (A)
                 (A) (A) (A) (A) (A) (A) (A) (A) (A) (A) (A) (A)
                 (A) (A) (A) (A) (A) (A) (A) (A) (A) (A) (A) (A)
                 (A) (A) (A) (A) (A) (A) (A) (A) (A) (A) (A) (A)
                 (A) (A) (A) (A) (A) (A) (A) (A) (A) (A) (A) (A)
                 (A) (A) (A) (A) (A) (A) (A) (A) (A) (A) (A) (A)
                 (A) (A) (A) (A) (A) (A) (A) (A) (A) (A) (A) (A)
                 (A) (A) (A) (A) (A) (A) (A) (A) (A) (A) (A) (A)
                 (A) (A) (A) (A) (A) (A) (A) (A) (A) (A) (A) (A)
                 (A) (A) (A) (A) (A) (A) (A) (A) (A) (A) (A) (A)
                 (A) (A) (A) (A) (A) (A) (A) (A) (A) (A) (A) (A)
                 (A) (A) (A) (A) (A) (A) (A) (A) (A) (A) (A) (A)
                 (A) (A) (A)
 The electronic state is 1-A.
 Alpha  occ. eigenvalues --  -91.99458 -91.99393 -91.98885 -20.60721 -11.31314
 Alpha  occ. eigenvalues --  -11.29380 -11.29299 -11.28141 -11.27715 -11.27545
 Alpha  occ. eigenvalues --  -11.26357 -11.26122 -11.25642 -11.25525  -8.99615
 Alpha  occ. eigenvalues --   -8.99576  -8.99074  -6.67778  -6.67742  -6.67697
 Alpha  occ. eigenvalues --   -6.67664  -6.67487  -6.67457  -6.67241  -6.67151
 Alpha  occ. eigenvalues --   -6.66951  -1.42576  -1.22191  -1.18611  -1.13204
 Alpha  occ. eigenvalues --   -1.03107  -1.02581  -0.98993  -0.96147  -0.94979
 Alpha  occ. eigenvalues --   -0.84113  -0.78611  -0.77786  -0.74680  -0.72672
 Alpha  occ. eigenvalues --   -0.72345  -0.67571  -0.66161  -0.61141  -0.60612
 Alpha  occ. eigenvalues --   -0.58244  -0.57465  -0.56576  -0.54927  -0.54170
 Alpha  occ. eigenvalues --   -0.52557  -0.50967  -0.49583  -0.48605  -0.46717
 Alpha  occ. eigenvalues --   -0.46634  -0.39223  -0.35215  -0.32692  -0.32534
 Alpha  occ. eigenvalues --   -0.30299
 Alpha virt. eigenvalues --    0.02999   0.03383   0.04556   0.04677   0.04788
 Alpha virt. eigenvalues --    0.06074   0.07860   0.08131   0.08215   0.08897
 Alpha virt. eigenvalues --    0.09455   0.10141   0.10398   0.10769   0.11427
 Alpha virt. eigenvalues --    0.11939   0.12516   0.12627   0.12957   0.13457
 Alpha virt. eigenvalues --    0.13604   0.13757   0.14070   0.14618   0.14961
 Alpha virt. eigenvalues --    0.15448   0.15743   0.15983   0.16348   0.16898
 Alpha virt. eigenvalues --    0.17473   0.17967   0.18155   0.18245   0.18826
 Alpha virt. eigenvalues --    0.19617   0.19872   0.20057   0.20605   0.20743
 Alpha virt. eigenvalues --    0.21855   0.22433   0.22591   0.22818   0.22970
 Alpha virt. eigenvalues --    0.23936   0.24376   0.24625   0.24786   0.25695
 Alpha virt. eigenvalues --    0.26330   0.27133   0.27381   0.27620   0.28101
 Alpha virt. eigenvalues --    0.28366   0.28744   0.30316   0.30825   0.31058
 Alpha virt. eigenvalues --    0.31406   0.31774   0.32301   0.32669   0.33038
 Alpha virt. eigenvalues --    0.33452   0.34056   0.35106   0.35414   0.35698
 Alpha virt. eigenvalues --    0.36487   0.36566   0.37499   0.38573   0.38719
 Alpha virt. eigenvalues --    0.39958   0.40080   0.40850   0.41042   0.41877
 Alpha virt. eigenvalues --    0.42388   0.43380   0.44141   0.44470   0.45159
 Alpha virt. eigenvalues --    0.45463   0.45753   0.46174   0.46846   0.47989
 Alpha virt. eigenvalues --    0.48321   0.48768   0.49344   0.50217   0.51744
 Alpha virt. eigenvalues --    0.52580   0.53518   0.53609   0.54532   0.55746
 Alpha virt. eigenvalues --    0.56724   0.57101   0.57782   0.58595   0.58903
 Alpha virt. eigenvalues --    0.59532   0.60126   0.60606   0.61788   0.62366
 Alpha virt. eigenvalues --    0.63020   0.63869   0.64287   0.65318   0.65526
 Alpha virt. eigenvalues --    0.66190   0.66819   0.67107   0.67721   0.68450
 Alpha virt. eigenvalues --    0.68934   0.69621   0.70223   0.70317   0.70983
 Alpha virt. eigenvalues --    0.71611   0.71932   0.72452   0.73074   0.73469
 Alpha virt. eigenvalues --    0.74146   0.74310   0.74827   0.75691   0.76321
 Alpha virt. eigenvalues --    0.76737   0.77451   0.78084   0.78642   0.79460
 Alpha virt. eigenvalues --    0.80759   0.81902   0.82119   0.83173   0.83784
 Alpha virt. eigenvalues --    0.84182   0.84666   0.85663   0.86759   0.86997
 Alpha virt. eigenvalues --    0.88297   0.89111   0.90123   0.90804   0.91480
 Alpha virt. eigenvalues --    0.92272   0.92520   0.94029   0.94417   0.94846
 Alpha virt. eigenvalues --    0.95391   0.95633   0.96406   0.97000   0.98008
 Alpha virt. eigenvalues --    0.98178   0.99541   1.01569   1.01658   1.02506
 Alpha virt. eigenvalues --    1.03080   1.03940   1.05653   1.06205   1.07234
 Alpha virt. eigenvalues --    1.07833   1.08250   1.10030   1.10647   1.11680
 Alpha virt. eigenvalues --    1.12961   1.14075   1.17304   1.17692   1.19085
 Alpha virt. eigenvalues --    1.19479   1.21403   1.21765   1.22030   1.23083
 Alpha virt. eigenvalues --    1.23393   1.24721   1.25080   1.25833   1.26598
 Alpha virt. eigenvalues --    1.26809   1.27036   1.29439   1.30092   1.31359
 Alpha virt. eigenvalues --    1.31634   1.33654   1.34454   1.35845   1.36225
 Alpha virt. eigenvalues --    1.37510   1.37825   1.39744   1.41134   1.42734
 Alpha virt. eigenvalues --    1.43277   1.44205   1.44906   1.46604   1.48972
 Alpha virt. eigenvalues --    1.49611   1.52901   1.54931   1.56133   1.56696
 Alpha virt. eigenvalues --    1.57256   1.58308   1.59413   1.59840   1.60110
 Alpha virt. eigenvalues --    1.62858   1.63517   1.64636   1.65387   1.66172
 Alpha virt. eigenvalues --    1.67061   1.68033   1.69534   1.70348   1.71502
 Alpha virt. eigenvalues --    1.73028   1.73135   1.75173   1.75898   1.77657
 Alpha virt. eigenvalues --    1.79332   1.79735   1.81355   1.81959   1.83281
 Alpha virt. eigenvalues --    1.83722   1.84461   1.86662   1.88328   1.89008
 Alpha virt. eigenvalues --    1.92157   1.93138   1.95436   1.96053   1.96902
 Alpha virt. eigenvalues --    1.98461   1.99740   2.02254   2.02900   2.04419
 Alpha virt. eigenvalues --    2.04861   2.06630   2.06821   2.08822   2.09237
 Alpha virt. eigenvalues --    2.10386   2.11376   2.14512   2.14999   2.15393
 Alpha virt. eigenvalues --    2.17662   2.19009   2.20054   2.21466   2.23154
 Alpha virt. eigenvalues --    2.23922   2.24716   2.28152   2.28512   2.29756
 Alpha virt. eigenvalues --    2.30221   2.31050   2.32920   2.34755   2.36237
 Alpha virt. eigenvalues --    2.37974   2.39806   2.42127   2.42836   2.45890
 Alpha virt. eigenvalues --    2.47613   2.48815   2.50315   2.51828   2.54745
 Alpha virt. eigenvalues --    2.56976   2.58226   2.59565   2.61994   2.66518
 Alpha virt. eigenvalues --    2.72653   2.80998   2.83449   2.87125   2.89150
 Alpha virt. eigenvalues --    2.89917   2.95519   2.96632   3.00007   3.02780
 Alpha virt. eigenvalues --    3.10889   3.13142   3.23411   3.29041   3.33520
 Alpha virt. eigenvalues --    3.41119   3.52793   3.55238   3.60587   3.75193
 Alpha virt. eigenvalues --    3.76305   3.79337   3.85711   3.88804   4.20193
 Alpha virt. eigenvalues --    4.28100   4.44199
          Condensed to atoms (all electrons):
               1          2          3          4          5          6
     1  C    6.208148  -0.677001  -0.513530   0.312450  -0.288538   0.249701
     2  C   -0.677001  10.142847  -1.867161   0.048516  -0.834305   0.074442
     3  C   -0.513530  -1.867161  11.297247  -1.303338   0.451965   0.103517
     4  C    0.312450   0.048516  -1.303338   6.938784   0.302895  -0.156856
     5  S   -0.288538  -0.834305   0.451965   0.302895  16.233272  -0.167369
     6  H    0.249701   0.074442   0.103517  -0.156856  -0.167369   1.274560
     7  C    0.398276  -0.670129  -1.666980   0.026025  -0.318160  -0.019358
     8  S   -0.002784  -0.070119  -0.404219  -0.009101   0.217053   0.000391
     9  C    0.052508  -0.049591  -0.391033  -0.005411   0.004352  -0.000838
    10  C   -0.048182  -0.020168   0.602425   0.012232   0.070866   0.001600
    11  C   -0.040593   0.367288  -0.772602  -0.076706  -0.161080   0.003022
    12  H    0.013939   0.004016   0.061625   0.002563   0.009775   0.000555
    13  S   -0.002171   0.016320  -0.088905  -0.000731  -0.000973  -0.000109
    14  C   -0.000031  -0.018701   0.039277   0.000558   0.006867   0.000057
    15  C    0.004030  -0.004507  -0.387172  -0.006714   0.000244  -0.000385
    16  H   -0.000008  -0.000295  -0.000598   0.000008   0.000226   0.000002
    17  H   -0.000071  -0.000122  -0.009344  -0.000266   0.000945  -0.000018
    18  H    0.065792  -0.489669   0.341722  -0.040572   0.030333  -0.001689
    19  O   -0.238633  -0.059455   0.080829  -0.102730  -0.006007  -0.008264
    20  H   -0.033271  -0.069146  -0.017287  -0.000855   0.003877  -0.006535
               7          8          9         10         11         12
     1  C    0.398276  -0.002784   0.052508  -0.048182  -0.040593   0.013939
     2  C   -0.670129  -0.070119  -0.049591  -0.020168   0.367288   0.004016
     3  C   -1.666980  -0.404219  -0.391033   0.602425  -0.772602   0.061625
     4  C    0.026025  -0.009101  -0.005411   0.012232  -0.076706   0.002563
     5  S   -0.318160   0.217053   0.004352   0.070866  -0.161080   0.009775
     6  H   -0.019358   0.000391  -0.000838   0.001600   0.003022   0.000555
     7  C   11.875722   0.207530   0.062824  -0.537808  -3.133223   0.234682
     8  S    0.207530  16.433443   0.305089  -0.474260  -0.454980   0.033188
     9  C    0.062824   0.305089  10.693388  -0.569804  -1.464561  -0.050862
    10  C   -0.537808  -0.474260  -0.569804  11.863590  -3.034544   0.599036
    11  C   -3.133223  -0.454980  -1.464561  -3.034544  15.336735  -1.063674
    12  H    0.234682   0.033188  -0.050862   0.599036  -1.063674   1.648203
    13  S   -0.267074   0.096780  -0.102596  -0.273353   0.062875  -0.041808
    14  C    0.060526  -0.105855  -0.170616  -0.919877  -0.142863   0.016743
    15  C   -0.594299  -0.199998  -2.150693  -1.145555   0.468949  -0.036321
    16  H    0.005737   0.008420   0.067455  -0.042994   0.031049   0.001525
    17  H    0.107532   0.010790   0.561298   0.066558  -0.066526  -0.001422
    18  H   -0.142844  -0.006050  -0.007521   0.030715   0.063422  -0.008933
    19  O    0.008299   0.002916  -0.000055  -0.000466   0.003768   0.000788
    20  H   -0.001455   0.001340   0.000873  -0.001267  -0.000954   0.000074
              13         14         15         16         17         18
     1  C   -0.002171  -0.000031   0.004030  -0.000008  -0.000071   0.065792
     2  C    0.016320  -0.018701  -0.004507  -0.000295  -0.000122  -0.489669
     3  C   -0.088905   0.039277  -0.387172  -0.000598  -0.009344   0.341722
     4  C   -0.000731   0.000558  -0.006714   0.000008  -0.000266  -0.040572
     5  S   -0.000973   0.006867   0.000244   0.000226   0.000945   0.030333
     6  H   -0.000109   0.000057  -0.000385   0.000002  -0.000018  -0.001689
     7  C   -0.267074   0.060526  -0.594299   0.005737   0.107532  -0.142844
     8  S    0.096780  -0.105855  -0.199998   0.008420   0.010790  -0.006050
     9  C   -0.102596  -0.170616  -2.150693   0.067455   0.561298  -0.007521
    10  C   -0.273353  -0.919877  -1.145555  -0.042994   0.066558   0.030715
    11  C    0.062875  -0.142863   0.468949   0.031049  -0.066526   0.063422
    12  H   -0.041808   0.016743  -0.036321   0.001525  -0.001422  -0.008933
    13  S   15.965255   0.179199  -0.017686  -0.162336  -0.004358   0.000866
    14  C    0.179199   6.914788   0.140849   0.190721  -0.122016  -0.000539
    15  C   -0.017686   0.140849   9.864369   0.055655  -0.583108  -0.004087
    16  H   -0.162336   0.190721   0.055655   1.290651  -0.068715   0.000031
    17  H   -0.004358  -0.122016  -0.583108  -0.068715   1.430820   0.000014
    18  H    0.000866  -0.000539  -0.004087   0.000031   0.000014   1.778241
    19  O    0.000067  -0.000015   0.000102  -0.000000   0.000017  -0.063250
    20  H   -0.000042  -0.000002   0.000240   0.000000   0.000010  -0.013102
              19         20
     1  C   -0.238633  -0.033271
     2  C   -0.059455  -0.069146
     3  C    0.080829  -0.017287
     4  C   -0.102730  -0.000855
     5  S   -0.006007   0.003877
     6  H   -0.008264  -0.006535
     7  C    0.008299  -0.001455
     8  S    0.002916   0.001340
     9  C   -0.000055   0.000873
    10  C   -0.000466  -0.001267
    11  C    0.003768  -0.000954
    12  H    0.000788   0.000074
    13  S    0.000067  -0.000042
    14  C   -0.000015  -0.000002
    15  C    0.000102   0.000240
    16  H   -0.000000   0.000000
    17  H    0.000017   0.000010
    18  H   -0.063250  -0.013102
    19  O    8.881134   0.348321
    20  H    0.348321   0.658407
 Mulliken charges:
               1
     1  C    0.539970
     2  C    0.176939
     3  C    0.443560
     4  C    0.059250
     5  S    0.443764
     6  H   -0.346426
     7  C    0.364178
     8  S    0.410426
     9  C   -0.784205
    10  C   -0.178743
    11  C    0.075198
    12  H   -0.423689
    13  S    0.640780
    14  C   -0.069068
    15  C    0.596086
    16  H   -0.376533
    17  H   -0.322016
    18  H   -0.532880
    19  O   -0.847366
    20  H    0.130774
 Sum of Mulliken charges =  -0.00000
 Mulliken charges with hydrogens summed into heavy atoms:
               1
     1  C    0.539970
     2  C   -0.355941
     3  C    0.443560
     4  C   -0.287176
     5  S    0.443764
     7  C    0.364178
     8  S    0.410426
     9  C   -0.784205
    10  C   -0.178743
    11  C   -0.348491
    13  S    0.640780
    14  C   -0.445602
    15  C    0.274070
    19  O   -0.716592
 Electronic spatial extent (au):  <R**2>=           4768.3217
 Charge=              0.0000 electrons
 Dipole moment (field-independent basis, Debye):
    X=             -1.2107    Y=              1.2524    Z=             -1.2612  Tot=              2.1506
 Quadrupole moment (field-independent basis, Debye-Ang):
   XX=            -96.9953   YY=            -98.7385   ZZ=           -104.1683
   XY=              6.0351   XZ=             -0.0194   YZ=             -2.0085
 Traceless Quadrupole moment (field-independent basis, Debye-Ang):
   XX=              2.9721   YY=              1.2289   ZZ=             -4.2009
   XY=              6.0351   XZ=             -0.0194   YZ=             -2.0085
 Octapole moment (field-independent basis, Debye-Ang**2):
  XXX=            -76.2172  YYY=             16.0012  ZZZ=            -10.3914  XYY=             16.0797
  XXY=            -19.1797  XXZ=            -10.8750  XZZ=             22.6045  YZZ=              8.5219
  YYZ=            -10.9277  XYZ=            -27.0437
 Hexadecapole moment (field-independent basis, Debye-Ang**3):
 XXXX=          -5209.5123 YYYY=           -709.8127 ZZZZ=           -395.2500 XXXY=             -1.3922
 XXXZ=             81.5971 YYYX=             86.2026 YYYZ=            -13.0303 ZZZX=            -46.1531
 ZZZY=            -23.1997 XXYY=           -982.5455 XXZZ=           -968.7370 YYZZ=           -162.8376
 XXYZ=            -49.8581 YYXZ=            -30.3150 ZZXY=             41.2938
 N-N= 1.107928388718D+03 E-N=-6.122798512817D+03  KE= 1.649566076152D+03
 Unable to Open any file for archive entry.
 1\1\GINC-CX3-12-20\FOpt\RHF\Aug-CC-pVDZ\C10H6O1S3\NS5018\27-Oct-2021\0
 \\# opt=modredundant hf/aug-cc-pvdz\\pg2T_TT_110.pdb\\0,1\C,-4.2138114
 009,-1.2374532746,-0.3302502687\C,-2.8501254466,-1.0894591457,-0.75978
 54316\C,-2.1467223038,-2.241048207,-0.6709913682\C,-4.5067230354,-2.48
 57279888,0.0851952025\S,-3.1276932206,-3.528875777,-0.0442723178\H,-5.
 4498796901,-2.8474151726,0.4542091352\C,-0.7280358582,-2.4389964305,-1
 .0153644665\S,0.468599718,-2.7291807674,0.2390134486\C,1.7333693371,-2
 .788644671,-0.9493884531\C,1.239723297,-2.5879293756,-2.2052070444\C,-
 0.1789102184,-2.3875316715,-2.2492127655\H,-0.756271731,-2.2272150345,
 -3.1449054503\S,2.5052872729,-2.6494821161,-3.393740124\C,3.6858284155
 ,-2.9481653391,-2.1451844436\C,3.1526057865,-2.998748744,-0.9068583402
 \H,4.7218429612,-3.0701795516,-2.4122523869\H,3.7263263666,-3.17462064
 75,-0.0116789289\H,-2.4223274145,-0.1602865795,-1.1060427101\O,-5.1202
 800102,-0.2335275936,-0.3318210093\H,-4.731802825,0.5704880878,-0.6324
 622773\\Version=ES64L-G16RevC.01\State=1-A\HF=-1649.6420074\RMSD=7.875
 e-09\RMSF=4.108e-04\Dipole=0.5144263,0.6115562,-0.2779685\Quadrupole=2
 .9288037,0.3613962,-3.2901998,-3.5292944,1.9378633,-2.0299276\PG=C01 [
 X(C10H6O1S3)]\\@
 The archive entry for this job was punched.


 PERICLES, SOPHOCLES,
 PELOPONESIAN WAR,
 FRENCH VERBS, LATIN VERBS
 H2SO4.
 Job cpu time:       0 days  3 hours 55 minutes  2.9 seconds.
 Elapsed time:       0 days  0 hours 29 minutes 33.6 seconds.
 File lengths (MBytes):  RWF=     95 Int=      0 D2E=      0 Chk=     12 Scr=      1
 Normal termination of Gaussian 16 at Wed Oct 27 03:50:32 2021.
