 Entering Gaussian System, Link 0=g16
 Input=pg2T_TT_130.gjf
 Output=pg2T_TT_130.log
 Initial command:
 /apps/gaussian/g16-c01-avx/g16/l1.exe "/tmp/pbs.4766241[305].pbs/Gau-3522468.inp" -scrdir="/tmp/pbs.4766241[305].pbs/"
 Entering Link 1 = /apps/gaussian/g16-c01-avx/g16/l1.exe PID=   3522469.
  
 Copyright (c) 1988-2019, Gaussian, Inc.  All Rights Reserved.
  
 This is part of the Gaussian(R) 16 program.  It is based on
 the Gaussian(R) 09 system (copyright 2009, Gaussian, Inc.),
 the Gaussian(R) 03 system (copyright 2003, Gaussian, Inc.),
 the Gaussian(R) 98 system (copyright 1998, Gaussian, Inc.),
 the Gaussian(R) 94 system (copyright 1995, Gaussian, Inc.),
 the Gaussian 92(TM) system (copyright 1992, Gaussian, Inc.),
 the Gaussian 90(TM) system (copyright 1990, Gaussian, Inc.),
 the Gaussian 88(TM) system (copyright 1988, Gaussian, Inc.),
 the Gaussian 86(TM) system (copyright 1986, Carnegie Mellon
 University), and the Gaussian 82(TM) system (copyright 1983,
 Carnegie Mellon University). Gaussian is a federally registered
 trademark of Gaussian, Inc.
  
 This software contains proprietary and confidential information,
 including trade secrets, belonging to Gaussian, Inc.
  
 This software is provided under written license and may be
 used, copied, transmitted, or stored only in accord with that
 written license.
  
 The following legend is applicable only to US Government
 contracts under FAR:
  
                    RESTRICTED RIGHTS LEGEND
  
 Use, reproduction and disclosure by the US Government is
 subject to restrictions as set forth in subparagraphs (a)
 and (c) of the Commercial Computer Software - Restricted
 Rights clause in FAR 52.227-19.
  
 Gaussian, Inc.
 340 Quinnipiac St., Bldg. 40, Wallingford CT 06492
  
  
 ---------------------------------------------------------------
 Warning -- This program may not be used in any manner that
 competes with the business of Gaussian, Inc. or will provide
 assistance to any competitor of Gaussian, Inc.  The licensee
 of this program is prohibited from giving any competitor of
 Gaussian, Inc. access to this program.  By using this program,
 the user acknowledges that Gaussian, Inc. is engaged in the
 business of creating and licensing software in the field of
 computational chemistry and represents and warrants to the
 licensee that it is not a competitor of Gaussian, Inc. and that
 it will not use this program in any manner prohibited above.
 ---------------------------------------------------------------
  

 Cite this work as:
 Gaussian 16, Revision C.01,
 M. J. Frisch, G. W. Trucks, H. B. Schlegel, G. E. Scuseria, 
 M. A. Robb, J. R. Cheeseman, G. Scalmani, V. Barone, 
 G. A. Petersson, H. Nakatsuji, X. Li, M. Caricato, A. V. Marenich, 
 J. Bloino, B. G. Janesko, R. Gomperts, B. Mennucci, H. P. Hratchian, 
 J. V. Ortiz, A. F. Izmaylov, J. L. Sonnenberg, D. Williams-Young, 
 F. Ding, F. Lipparini, F. Egidi, J. Goings, B. Peng, A. Petrone, 
 T. Henderson, D. Ranasinghe, V. G. Zakrzewski, J. Gao, N. Rega, 
 G. Zheng, W. Liang, M. Hada, M. Ehara, K. Toyota, R. Fukuda, 
 J. Hasegawa, M. Ishida, T. Nakajima, Y. Honda, O. Kitao, H. Nakai, 
 T. Vreven, K. Throssell, J. A. Montgomery, Jr., J. E. Peralta, 
 F. Ogliaro, M. J. Bearpark, J. J. Heyd, E. N. Brothers, K. N. Kudin, 
 V. N. Staroverov, T. A. Keith, R. Kobayashi, J. Normand, 
 K. Raghavachari, A. P. Rendell, J. C. Burant, S. S. Iyengar, 
 J. Tomasi, M. Cossi, J. M. Millam, M. Klene, C. Adamo, R. Cammi, 
 J. W. Ochterski, R. L. Martin, K. Morokuma, O. Farkas, 
 J. B. Foresman, and D. J. Fox, Gaussian, Inc., Wallingford CT, 2019.
 
 ******************************************
 Gaussian 16:  ES64L-G16RevC.01  3-Jul-2019
                27-Oct-2021 
 ******************************************
 %mem=100GB
 %nprocshared=8
 Will use up to    8 processors via shared memory.
 ---------------------------------
 # opt=modredundant hf/aug-cc-pvdz
 ---------------------------------
 1/18=120,19=15,38=1/1,3;
 2/9=110,12=2,17=6,18=5,40=1/2;
 3/5=16,7=10,11=9,25=1,30=1,71=1/1,2,3;
 4//1;
 5/5=2,38=5/2;
 6/7=2,8=2,9=2,10=2,28=1/1;
 7//1,2,3,16;
 1/18=20,19=15/3(2);
 2/9=110/2;
 99//99;
 2/9=110/2;
 3/5=16,7=10,11=9,25=1,30=1,71=1/1,2,3;
 4/5=5,16=3,69=1/1;
 5/5=2,38=5/2;
 7//1,2,3,16;
 1/18=20,19=15/3(-5);
 2/9=110/2;
 6/7=2,8=2,9=2,10=2,19=2,28=1/1;
 99/9=1/99;
 ---------------
 pg2T_TT_130.pdb
 ---------------
 Symbolic Z-matrix:
 Charge =  0 Multiplicity = 1
 C                    -4.25     -1.36     -0.21 
 C                    -2.93     -0.95     -0.61 
 C                    -1.97     -2.05     -0.62 
 C                    -4.33     -2.76      0.1 
 S                    -2.8      -3.56     -0.11 
 H                    -5.23     -3.27      0.41 
 C                    -0.56     -2.13     -0.97 
 S                     0.644    -2.895     0.112 
 C                     1.948    -2.588    -0.983 
 C                     1.509    -1.933    -2.189 
 C                     0.098    -1.686    -2.201 
 H                    -0.434    -1.357    -3.08 
 S                     2.552    -2.247    -3.536 
 C                     3.611    -3.243    -2.535 
 C                     3.138    -3.349    -1.174 
 H                     4.404    -3.846    -2.954 
 H                     3.484    -4.12     -0.49 
 H                    -2.89      0.24     -0.97 
 O                    -5.6      -0.36     -0.4 
 H                    -5.76      0.85     -0.75 
 
 Add virtual bond connecting atoms H20        and O19        Dist= 2.40D+00.
 Add virtual bond connecting atoms O19        and C1         Dist= 3.20D+00.
 The following ModRedundant input section has been read:
 D       2       3       7       8 F                                           
 

 GradGradGradGradGradGradGradGradGradGradGradGradGradGradGradGradGradGrad
 Berny optimization.
 Initialization pass.
                           ----------------------------
                           !    Initial Parameters    !
                           ! (Angstroms and Degrees)  !
 --------------------------                            --------------------------
 ! Name  Definition              Value          Derivative Info.                !
 --------------------------------------------------------------------------------
 ! R1    R(1,2)                  1.4389         estimate D2E/DX2                !
 ! R2    R(1,4)                  1.4361         estimate D2E/DX2                !
 ! R3    R(1,19)                 1.6907         estimate D2E/DX2                !
 ! R4    R(2,3)                  1.46           estimate D2E/DX2                !
 ! R5    R(2,18)                 1.2439         estimate D2E/DX2                !
 ! R6    R(3,5)                  1.797          estimate D2E/DX2                !
 ! R7    R(3,7)                  1.455          estimate D2E/DX2                !
 ! R8    R(4,5)                  1.7393         estimate D2E/DX2                !
 ! R9    R(4,6)                  1.0799         estimate D2E/DX2                !
 ! R10   R(7,8)                  1.7904         estimate D2E/DX2                !
 ! R11   R(7,11)                 1.4647         estimate D2E/DX2                !
 ! R12   R(8,9)                  1.7302         estimate D2E/DX2                !
 ! R13   R(9,10)                 1.4409         estimate D2E/DX2                !
 ! R14   R(9,15)                 1.4254         estimate D2E/DX2                !
 ! R15   R(10,11)                1.4325         estimate D2E/DX2                !
 ! R16   R(10,13)                1.7323         estimate D2E/DX2                !
 ! R17   R(11,12)                1.0788         estimate D2E/DX2                !
 ! R18   R(13,14)                1.7651         estimate D2E/DX2                !
 ! R19   R(14,15)                1.4447         estimate D2E/DX2                !
 ! R20   R(14,16)                1.0807         estimate D2E/DX2                !
 ! R21   R(15,17)                1.0872         estimate D2E/DX2                !
 ! R22   R(19,20)                1.2697         estimate D2E/DX2                !
 ! A1    A(2,1,4)              112.8843         estimate D2E/DX2                !
 ! A2    A(2,1,19)             122.1887         estimate D2E/DX2                !
 ! A3    A(4,1,19)             123.8039         estimate D2E/DX2                !
 ! A4    A(1,2,3)              112.9799         estimate D2E/DX2                !
 ! A5    A(1,2,18)             112.491          estimate D2E/DX2                !
 ! A6    A(3,2,18)             134.2373         estimate D2E/DX2                !
 ! A7    A(2,3,5)              109.1138         estimate D2E/DX2                !
 ! A8    A(2,3,7)              132.8639         estimate D2E/DX2                !
 ! A9    A(5,3,7)              118.0132         estimate D2E/DX2                !
 ! A10   A(1,4,5)              111.9209         estimate D2E/DX2                !
 ! A11   A(1,4,6)              124.6643         estimate D2E/DX2                !
 ! A12   A(5,4,6)              123.4062         estimate D2E/DX2                !
 ! A13   A(3,5,4)               93.0997         estimate D2E/DX2                !
 ! A14   A(3,7,8)              121.9918         estimate D2E/DX2                !
 ! A15   A(3,7,11)             128.377          estimate D2E/DX2                !
 ! A16   A(8,7,11)             109.592          estimate D2E/DX2                !
 ! A17   A(7,8,9)               92.7823         estimate D2E/DX2                !
 ! A18   A(8,9,10)             112.3791         estimate D2E/DX2                !
 ! A19   A(8,9,15)             128.2633         estimate D2E/DX2                !
 ! A20   A(10,9,15)            112.6376         estimate D2E/DX2                !
 ! A21   A(9,10,11)            112.6741         estimate D2E/DX2                !
 ! A22   A(9,10,13)            112.6425         estimate D2E/DX2                !
 ! A23   A(11,10,13)           128.1551         estimate D2E/DX2                !
 ! A24   A(7,11,10)            112.5305         estimate D2E/DX2                !
 ! A25   A(7,11,12)            123.7562         estimate D2E/DX2                !
 ! A26   A(10,11,12)           123.0331         estimate D2E/DX2                !
 ! A27   A(10,13,14)            91.2918         estimate D2E/DX2                !
 ! A28   A(13,14,15)           112.2851         estimate D2E/DX2                !
 ! A29   A(13,14,16)           122.3577         estimate D2E/DX2                !
 ! A30   A(15,14,16)           124.3683         estimate D2E/DX2                !
 ! A31   A(9,15,14)            111.1242         estimate D2E/DX2                !
 ! A32   A(9,15,17)            124.0562         estimate D2E/DX2                !
 ! A33   A(14,15,17)           122.7182         estimate D2E/DX2                !
 ! A34   A(1,19,20)            134.0455         estimate D2E/DX2                !
 ! D1    D(4,1,2,3)              0.3915         estimate D2E/DX2                !
 ! D2    D(4,1,2,18)           175.0898         estimate D2E/DX2                !
 ! D3    D(19,1,2,3)          -167.9154         estimate D2E/DX2                !
 ! D4    D(19,1,2,18)            6.7829         estimate D2E/DX2                !
 ! D5    D(2,1,4,5)             -0.3845         estimate D2E/DX2                !
 ! D6    D(2,1,4,6)           -179.3471         estimate D2E/DX2                !
 ! D7    D(19,1,4,5)           167.7032         estimate D2E/DX2                !
 ! D8    D(19,1,4,6)           -11.2593         estimate D2E/DX2                !
 ! D9    D(2,1,19,20)           -7.6334         estimate D2E/DX2                !
 ! D10   D(4,1,19,20)         -174.6479         estimate D2E/DX2                !
 ! D11   D(1,2,3,5)             -0.2224         estimate D2E/DX2                !
 ! D12   D(1,2,3,7)            178.6265         estimate D2E/DX2                !
 ! D13   D(18,2,3,5)          -173.3787         estimate D2E/DX2                !
 ! D14   D(18,2,3,7)             5.4701         estimate D2E/DX2                !
 ! D15   D(2,3,5,4)              0.0033         estimate D2E/DX2                !
 ! D16   D(7,3,5,4)           -179.041          estimate D2E/DX2                !
 ! D17   D(2,3,7,8)            129.9937         Frozen                          !
 ! D18   D(2,3,7,11)           -52.5283         estimate D2E/DX2                !
 ! D19   D(5,3,7,8)            -51.2383         estimate D2E/DX2                !
 ! D20   D(5,3,7,11)           126.2396         estimate D2E/DX2                !
 ! D21   D(1,4,5,3)              0.2153         estimate D2E/DX2                !
 ! D22   D(6,4,5,3)            179.1932         estimate D2E/DX2                !
 ! D23   D(3,7,8,9)            179.7615         estimate D2E/DX2                !
 ! D24   D(11,7,8,9)             1.8599         estimate D2E/DX2                !
 ! D25   D(3,7,11,10)         -179.8583         estimate D2E/DX2                !
 ! D26   D(3,7,11,12)           -9.0741         estimate D2E/DX2                !
 ! D27   D(8,7,11,10)           -2.1286         estimate D2E/DX2                !
 ! D28   D(8,7,11,12)          168.6556         estimate D2E/DX2                !
 ! D29   D(7,8,9,10)            -1.1543         estimate D2E/DX2                !
 ! D30   D(7,8,9,15)          -149.9017         estimate D2E/DX2                !
 ! D31   D(8,9,10,11)            0.1074         estimate D2E/DX2                !
 ! D32   D(8,9,10,13)         -154.0142         estimate D2E/DX2                !
 ! D33   D(15,9,10,11)         153.9167         estimate D2E/DX2                !
 ! D34   D(15,9,10,13)          -0.2049         estimate D2E/DX2                !
 ! D35   D(8,9,15,14)          149.7621         estimate D2E/DX2                !
 ! D36   D(8,9,15,17)          -14.0905         estimate D2E/DX2                !
 ! D37   D(10,9,15,14)           1.0798         estimate D2E/DX2                !
 ! D38   D(10,9,15,17)        -162.7728         estimate D2E/DX2                !
 ! D39   D(9,10,11,7)            1.3383         estimate D2E/DX2                !
 ! D40   D(9,10,11,12)        -169.5229         estimate D2E/DX2                !
 ! D41   D(13,10,11,7)         150.5228         estimate D2E/DX2                !
 ! D42   D(13,10,11,12)        -20.3383         estimate D2E/DX2                !
 ! D43   D(9,10,13,14)          -0.5558         estimate D2E/DX2                !
 ! D44   D(11,10,13,14)       -149.7483         estimate D2E/DX2                !
 ! D45   D(10,13,14,15)          1.1757         estimate D2E/DX2                !
 ! D46   D(10,13,14,16)        170.252          estimate D2E/DX2                !
 ! D47   D(13,14,15,9)          -1.4926         estimate D2E/DX2                !
 ! D48   D(13,14,15,17)        162.6133         estimate D2E/DX2                !
 ! D49   D(16,14,15,9)        -170.3101         estimate D2E/DX2                !
 ! D50   D(16,14,15,17)         -6.2043         estimate D2E/DX2                !
 --------------------------------------------------------------------------------
 Trust Radius=3.00D-01 FncErr=1.00D-07 GrdErr=1.00D-07 EigMax=2.50D+02 EigMin=1.00D-04
 Number of steps in this run=    116 maximum allowed number of steps=    120.
 GradGradGradGradGradGradGradGradGradGradGradGradGradGradGradGradGradGrad

                          Input orientation:                          
 ---------------------------------------------------------------------
 Center     Atomic      Atomic             Coordinates (Angstroms)
 Number     Number       Type             X           Y           Z
 ---------------------------------------------------------------------
      1          6           0       -4.250000   -1.360000   -0.210000
      2          6           0       -2.930000   -0.950000   -0.610000
      3          6           0       -1.970000   -2.050000   -0.620000
      4          6           0       -4.330000   -2.760000    0.100000
      5         16           0       -2.800000   -3.560000   -0.110000
      6          1           0       -5.230000   -3.270000    0.410000
      7          6           0       -0.560000   -2.130000   -0.970000
      8         16           0        0.644000   -2.895000    0.112000
      9          6           0        1.948000   -2.588000   -0.983000
     10          6           0        1.509000   -1.933000   -2.189000
     11          6           0        0.098000   -1.686000   -2.201000
     12          1           0       -0.434000   -1.357000   -3.080000
     13         16           0        2.552000   -2.247000   -3.536000
     14          6           0        3.611000   -3.243000   -2.535000
     15          6           0        3.138000   -3.349000   -1.174000
     16          1           0        4.404000   -3.846000   -2.954000
     17          1           0        3.484000   -4.120000   -0.490000
     18          1           0       -2.890000    0.240000   -0.970000
     19          8           0       -5.600000   -0.360000   -0.400000
     20          1           0       -5.760000    0.850000   -0.750000
 ---------------------------------------------------------------------
                    Distance matrix (angstroms):
                    1          2          3          4          5
     1  C    0.000000
     2  C    1.438923   0.000000
     3  C    2.417147   1.460034   0.000000
     4  C    1.436141   2.395871   2.567509   0.000000
     5  S    2.636759   2.660639   1.796970   1.739253   0.000000
     6  H    2.234480   3.422397   3.630000   1.079907   2.501879
     7  C    3.845335   2.671872   1.454991   3.969219   2.793224
     8  S    5.139177   4.132528   2.843034   4.975846   3.514633
     9  C    6.365589   5.159172   3.971390   6.373049   4.924471
    10  C    6.116441   4.812925   3.818231   6.325928   5.053400
    11  C    4.793272   3.498823   2.628437   5.104435   4.035166
    12  H    4.774805   3.535048   2.981802   5.221075   4.389996
    13  S    7.623401   6.347914   5.384269   7.800358   6.488863
    14  C    8.411102   7.193619   6.019804   8.380692   6.861635
    15  C    7.711547   6.549345   5.299621   7.598751   6.036262
    16  H    9.412834   8.226099   7.021471   9.316065   7.750339
    17  H    8.216493   7.155606   5.835059   7.953383   6.320337
    18  H    2.233204   1.243905   2.492589   3.495497   3.897140
    19  O    1.690739   2.742462   4.010162   2.760960   4.261936
    20  H    2.730531   3.356859   4.773992   3.974858   5.349701
                    6          7          8          9         10
     6  H    0.000000
     7  C    5.001290   0.000000
     8  S    5.893497   1.790409   0.000000
     9  C    7.343654   2.549509   1.730228   0.000000
    10  C    7.345508   2.409467   2.639748   1.440896   0.000000
    11  C    6.141169   1.464739   2.666414   2.391574   1.432506
    12  H    6.232278   2.250668   3.703565   3.403923   2.213799
    13  S    8.785042   4.035169   4.167526   2.645545   1.732297
    14  C    9.318639   4.591866   3.991341   2.367129   2.500844
    15  C    8.516967   3.899074   2.842525   1.425378   2.385146
    16  H   10.220676   5.614464   4.943921   3.391068   3.553283
    17  H    8.801494   4.532597   3.150973   2.224718   3.401499
    18  H    4.438479   3.323522   4.846453   5.603927   5.055600
    19  O    3.043206   5.372095   6.758395   7.891526   7.497515
    20  H    4.312876   5.997399   7.468553   8.443186   7.915439
                   11         12         13         14         15
    11  C    0.000000
    12  H    1.078845   0.000000
    13  S    2.849397   3.149005   0.000000
    14  C    3.857068   4.496226   1.765077   0.000000
    15  C    3.614125   4.512215   2.671487   1.444744   0.000000
    16  H    4.875884   5.442172   2.515041   1.080749   2.240126
    17  H    4.507424   5.449128   3.695250   2.228740   1.087204
    18  H    3.762045   3.610325   6.510368   7.539464   7.018498
    19  O    6.121199   5.904572   8.935903   9.884960   9.267461
    20  H    6.546210   6.218201   9.297449  10.380487   9.848136
                   16         17         18         19         20
    16  H    0.000000
    17  H    2.644385   0.000000
    18  H    8.592676   7.737433   0.000000
    19  O   10.897483   9.831824   2.833549   0.000000
    20  H   11.411263  10.498573   2.942346   1.269724   0.000000
 Stoichiometry    C10H6OS3
 Framework group  C1[X(C10H6OS3)]
 Deg. of freedom    54
 Full point group                 C1      NOp   1
 Largest Abelian subgroup         C1      NOp   1
 Largest concise Abelian subgroup C1      NOp   1
                         Standard orientation:                         
 ---------------------------------------------------------------------
 Center     Atomic      Atomic             Coordinates (Angstroms)
 Number     Number       Type             X           Y           Z
 ---------------------------------------------------------------------
      1          6           0        3.899826    0.473249   -0.172467
      2          6           0        2.589447    0.889043   -0.597344
      3          6           0        1.526823    0.018816   -0.102130
      4          6           0        3.874170   -0.711968    0.638152
      5         16           0        2.254597   -1.297708    0.880829
      6          1           0        4.746931   -1.182347    1.066209
      7          6           0        0.078740    0.047537   -0.240804
      8         16           0       -0.853386   -1.391092   -0.757574
      9          6           0       -2.363746   -0.552940   -0.657561
     10          6           0       -2.207310    0.808227   -0.211540
     11          6           0       -0.840213    1.152304    0.042883
     12          1           0       -0.545565    2.065634    0.535747
     13         16           0       -3.628080    1.422661    0.566109
     14          6           0       -4.477799   -0.102655    0.307489
     15          6           0       -3.650366   -1.085562   -0.353217
     16          1           0       -5.432676   -0.317747    0.765708
     17          1           0       -3.885551   -2.147024   -0.353632
     18          1           0        2.609864    1.968069   -1.215879
     19          8           0        5.260437    1.460697   -0.352146
     20          1           0        5.475967    2.569754   -0.931576
 ---------------------------------------------------------------------
 Rotational constants (GHZ):           1.3517504           0.2257457           0.2058114
 Standard basis: Aug-CC-pVDZ (5D, 7F)
 There are   416 symmetry adapted cartesian basis functions of A   symmetry.
 There are   388 symmetry adapted basis functions of A   symmetry.
   388 basis functions,   782 primitive gaussians,   416 cartesian basis functions
    61 alpha electrons       61 beta electrons
       nuclear repulsion energy      1078.2919867534 Hartrees.
 NAtoms=   20 NActive=   20 NUniq=   20 SFac= 1.00D+00 NAtFMM=   60 NAOKFM=F Big=F
 Integral buffers will be    131072 words long.
 Raffenetti 1 integral format.
 Two-electron integral symmetry is turned on.
 One-electron integrals computed using PRISM.
 NBasis=   388 RedAO= T EigKep=  7.71D-06  NBF=   388
 NBsUse=   388 1.00D-06 EigRej= -1.00D+00 NBFU=   388
 ExpMin= 2.97D-02 ExpMax= 1.11D+05 ExpMxC= 1.07D+03 IAcc=3 IRadAn=         5 AccDes= 0.00D+00
 Harris functional with IExCor=  205 and IRadAn=       5 diagonalized for initial guess.
 HarFok:  IExCor=  205 AccDes= 0.00D+00 IRadAn=         5 IDoV= 1 UseB2=F ITyADJ=14
 ICtDFT=  3500011 ScaDFX=  1.000000  1.000000  1.000000  1.000000
 FoFCou: FMM=F IPFlag=           0 FMFlag=      100000 FMFlg1=           0
         NFxFlg=           0 DoJE=T BraDBF=F KetDBF=T FulRan=T
         wScrn=  0.000000 ICntrl=       500 IOpCl=  0 I1Cent=   200000004 NGrid=           0
         NMat0=    1 NMatS0=      1 NMatT0=    0 NMatD0=    1 NMtDS0=    0 NMtDT0=    0
 Petite list used in FoFCou.
 Requested convergence on RMS density matrix=1.00D-08 within 128 cycles.
 Requested convergence on MAX density matrix=1.00D-06.
 Requested convergence on             energy=1.00D-06.
 No special actions if energy rises.
 SCF Done:  E(RHF) =  -1649.42141302     A.U. after   18 cycles
            NFock= 18  Conv=0.60D-08     -V/T= 2.0016

 **********************************************************************

            Population analysis using the SCF Density.

 **********************************************************************

 Orbital symmetries:
       Occupied  (A) (A) (A) (A) (A) (A) (A) (A) (A) (A) (A) (A)
                 (A) (A) (A) (A) (A) (A) (A) (A) (A) (A) (A) (A)
                 (A) (A) (A) (A) (A) (A) (A) (A) (A) (A) (A) (A)
                 (A) (A) (A) (A) (A) (A) (A) (A) (A) (A) (A) (A)
                 (A) (A) (A) (A) (A) (A) (A) (A) (A) (A) (A) (A)
                 (A)
       Virtual   (A) (A) (A) (A) (A) (A) (A) (A) (A) (A) (A) (A)
                 (A) (A) (A) (A) (A) (A) (A) (A) (A) (A) (A) (A)
                 (A) (A) (A) (A) (A) (A) (A) (A) (A) (A) (A) (A)
                 (A) (A) (A) (A) (A) (A) (A) (A) (A) (A) (A) (A)
                 (A) (A) (A) (A) (A) (A) (A) (A) (A) (A) (A) (A)
                 (A) (A) (A) (A) (A) (A) (A) (A) (A) (A) (A) (A)
                 (A) (A) (A) (A) (A) (A) (A) (A) (A) (A) (A) (A)
                 (A) (A) (A) (A) (A) (A) (A) (A) (A) (A) (A) (A)
                 (A) (A) (A) (A) (A) (A) (A) (A) (A) (A) (A) (A)
                 (A) (A) (A) (A) (A) (A) (A) (A) (A) (A) (A) (A)
                 (A) (A) (A) (A) (A) (A) (A) (A) (A) (A) (A) (A)
                 (A) (A) (A) (A) (A) (A) (A) (A) (A) (A) (A) (A)
                 (A) (A) (A) (A) (A) (A) (A) (A) (A) (A) (A) (A)
                 (A) (A) (A) (A) (A) (A) (A) (A) (A) (A) (A) (A)
                 (A) (A) (A) (A) (A) (A) (A) (A) (A) (A) (A) (A)
                 (A) (A) (A) (A) (A) (A) (A) (A) (A) (A) (A) (A)
                 (A) (A) (A) (A) (A) (A) (A) (A) (A) (A) (A) (A)
                 (A) (A) (A) (A) (A) (A) (A) (A) (A) (A) (A) (A)
                 (A) (A) (A) (A) (A) (A) (A) (A) (A) (A) (A) (A)
                 (A) (A) (A) (A) (A) (A) (A) (A) (A) (A) (A) (A)
                 (A) (A) (A) (A) (A) (A) (A) (A) (A) (A) (A) (A)
                 (A) (A) (A) (A) (A) (A) (A) (A) (A) (A) (A) (A)
                 (A) (A) (A) (A) (A) (A) (A) (A) (A) (A) (A) (A)
                 (A) (A) (A) (A) (A) (A) (A) (A) (A) (A) (A) (A)
                 (A) (A) (A) (A) (A) (A) (A) (A) (A) (A) (A) (A)
                 (A) (A) (A) (A) (A) (A) (A) (A) (A) (A) (A) (A)
                 (A) (A) (A) (A) (A) (A) (A) (A) (A) (A) (A) (A)
                 (A) (A) (A)
 The electronic state is 1-A.
 Alpha  occ. eigenvalues --  -92.01530 -92.00583 -92.00432 -20.59989 -11.35035
 Alpha  occ. eigenvalues --  -11.32044 -11.31370 -11.30109 -11.30007 -11.29967
 Alpha  occ. eigenvalues --  -11.29249 -11.29106 -11.28358 -11.27729  -9.01460
 Alpha  occ. eigenvalues --   -9.00643  -9.00473  -6.69615  -6.69511  -6.69337
 Alpha  occ. eigenvalues --   -6.68808  -6.68718  -6.68636  -6.68541  -6.68529
 Alpha  occ. eigenvalues --   -6.68351  -1.25231  -1.20420  -1.16609  -1.10958
 Alpha  occ. eigenvalues --   -1.03808  -1.01229  -0.99183  -0.94910  -0.93063
 Alpha  occ. eigenvalues --   -0.83523  -0.77967  -0.74647  -0.72831  -0.71333
 Alpha  occ. eigenvalues --   -0.66880  -0.65831  -0.60301  -0.58173  -0.56727
 Alpha  occ. eigenvalues --   -0.55821  -0.55243  -0.54405  -0.53761  -0.52983
 Alpha  occ. eigenvalues --   -0.50987  -0.49419  -0.48223  -0.47842  -0.47073
 Alpha  occ. eigenvalues --   -0.45652  -0.39575  -0.35935  -0.33900  -0.32412
 Alpha  occ. eigenvalues --   -0.27765
 Alpha virt. eigenvalues --    0.02445   0.03394   0.03874   0.04381   0.04497
 Alpha virt. eigenvalues --    0.04831   0.06013   0.07796   0.08259   0.08533
 Alpha virt. eigenvalues --    0.08981   0.09416   0.09689   0.10424   0.10818
 Alpha virt. eigenvalues --    0.11143   0.11681   0.12107   0.12720   0.12840
 Alpha virt. eigenvalues --    0.13338   0.13659   0.13912   0.14269   0.14887
 Alpha virt. eigenvalues --    0.15087   0.15677   0.15742   0.15931   0.16531
 Alpha virt. eigenvalues --    0.16900   0.17141   0.17671   0.18205   0.18310
 Alpha virt. eigenvalues --    0.18586   0.19354   0.19666   0.19798   0.20160
 Alpha virt. eigenvalues --    0.20964   0.21276   0.21622   0.21898   0.22464
 Alpha virt. eigenvalues --    0.23138   0.23470   0.23950   0.24603   0.25488
 Alpha virt. eigenvalues --    0.25781   0.26029   0.26224   0.26984   0.27222
 Alpha virt. eigenvalues --    0.27894   0.28453   0.28815   0.29288   0.29958
 Alpha virt. eigenvalues --    0.30184   0.30674   0.31390   0.31860   0.31950
 Alpha virt. eigenvalues --    0.32705   0.33099   0.33691   0.34189   0.34689
 Alpha virt. eigenvalues --    0.35207   0.35996   0.36209   0.36523   0.37450
 Alpha virt. eigenvalues --    0.37707   0.38725   0.39236   0.40183   0.40649
 Alpha virt. eigenvalues --    0.41000   0.42144   0.42281   0.42757   0.43671
 Alpha virt. eigenvalues --    0.44254   0.44716   0.44859   0.45892   0.46386
 Alpha virt. eigenvalues --    0.46559   0.48055   0.48654   0.49425   0.49910
 Alpha virt. eigenvalues --    0.50343   0.51339   0.51355   0.52205   0.52620
 Alpha virt. eigenvalues --    0.53738   0.54726   0.55258   0.55793   0.56654
 Alpha virt. eigenvalues --    0.57603   0.58148   0.58900   0.59268   0.59922
 Alpha virt. eigenvalues --    0.60575   0.61106   0.61574   0.62446   0.62761
 Alpha virt. eigenvalues --    0.63779   0.64594   0.64869   0.65896   0.66413
 Alpha virt. eigenvalues --    0.66810   0.67109   0.67514   0.68337   0.68455
 Alpha virt. eigenvalues --    0.68879   0.69606   0.70661   0.71541   0.72069
 Alpha virt. eigenvalues --    0.72164   0.73040   0.73449   0.73951   0.74306
 Alpha virt. eigenvalues --    0.74534   0.75649   0.75750   0.76771   0.77793
 Alpha virt. eigenvalues --    0.78412   0.78949   0.80022   0.81108   0.81769
 Alpha virt. eigenvalues --    0.82068   0.83097   0.84248   0.84327   0.85089
 Alpha virt. eigenvalues --    0.85743   0.87372   0.87466   0.88320   0.89202
 Alpha virt. eigenvalues --    0.90171   0.90806   0.92537   0.92727   0.93297
 Alpha virt. eigenvalues --    0.94102   0.94509   0.95937   0.96219   0.97309
 Alpha virt. eigenvalues --    0.97728   0.98747   0.98911   0.99686   0.99848
 Alpha virt. eigenvalues --    1.01175   1.02376   1.02678   1.03976   1.04673
 Alpha virt. eigenvalues --    1.06142   1.06930   1.07700   1.09614   1.11075
 Alpha virt. eigenvalues --    1.11544   1.12783   1.14714   1.15720   1.16936
 Alpha virt. eigenvalues --    1.17840   1.18182   1.19000   1.20420   1.20964
 Alpha virt. eigenvalues --    1.21648   1.22138   1.23433   1.23854   1.24749
 Alpha virt. eigenvalues --    1.25467   1.25595   1.26977   1.27688   1.28571
 Alpha virt. eigenvalues --    1.29321   1.30309   1.30920   1.31237   1.32045
 Alpha virt. eigenvalues --    1.33527   1.36061   1.36793   1.38061   1.39512
 Alpha virt. eigenvalues --    1.40118   1.41146   1.42297   1.42902   1.45472
 Alpha virt. eigenvalues --    1.46752   1.47818   1.49115   1.51240   1.53181
 Alpha virt. eigenvalues --    1.54935   1.55438   1.56827   1.57056   1.58650
 Alpha virt. eigenvalues --    1.59238   1.59828   1.61242   1.61814   1.62794
 Alpha virt. eigenvalues --    1.64074   1.65021   1.65330   1.67155   1.68402
 Alpha virt. eigenvalues --    1.69814   1.70543   1.72015   1.73695   1.74768
 Alpha virt. eigenvalues --    1.75774   1.76927   1.78344   1.79105   1.79730
 Alpha virt. eigenvalues --    1.80399   1.81589   1.82556   1.84420   1.85693
 Alpha virt. eigenvalues --    1.87131   1.88294   1.88739   1.89926   1.92609
 Alpha virt. eigenvalues --    1.93449   1.94838   1.95532   1.96333   1.97795
 Alpha virt. eigenvalues --    1.99487   2.00098   2.02418   2.03720   2.04384
 Alpha virt. eigenvalues --    2.05329   2.06020   2.06513   2.07599   2.09780
 Alpha virt. eigenvalues --    2.10078   2.10724   2.12036   2.14675   2.15588
 Alpha virt. eigenvalues --    2.16404   2.18031   2.19564   2.20494   2.22054
 Alpha virt. eigenvalues --    2.23157   2.24740   2.26488   2.27170   2.28572
 Alpha virt. eigenvalues --    2.29494   2.31403   2.32639   2.33937   2.34995
 Alpha virt. eigenvalues --    2.37778   2.39621   2.40785   2.43166   2.44605
 Alpha virt. eigenvalues --    2.45733   2.49071   2.51311   2.53625   2.54521
 Alpha virt. eigenvalues --    2.58766   2.67148   2.69164   2.73576   2.78041
 Alpha virt. eigenvalues --    2.79290   2.81063   2.83213   2.83932   2.87317
 Alpha virt. eigenvalues --    2.95559   3.01623   3.04358   3.10647   3.13771
 Alpha virt. eigenvalues --    3.20457   3.27325   3.34251   3.44840   3.73619
 Alpha virt. eigenvalues --    3.76261   3.78020   3.81448   3.83128   3.99190
 Alpha virt. eigenvalues --    4.09797   4.14717
          Condensed to atoms (all electrons):
               1          2          3          4          5          6
     1  C    5.894224  -0.254035  -0.231733   0.613998  -0.292146   0.048566
     2  C   -0.254035   7.679072  -0.802146  -0.033075  -0.307183   0.043698
     3  C   -0.231733  -0.802146   8.735198  -0.751338   0.417218   0.058061
     4  C    0.613998  -0.033075  -0.751338   5.584827   0.246483   0.125781
     5  S   -0.292146  -0.307183   0.417218   0.246483  15.769955  -0.161675
     6  H    0.048566   0.043698   0.058061   0.125781  -0.161675   1.183912
     7  C    0.205754  -0.464901  -1.677781   0.212052  -0.252597  -0.000746
     8  S   -0.019962  -0.038550  -0.169993  -0.005883   0.122815   0.000631
     9  C    0.017038  -0.017181   0.052037   0.015277  -0.005041   0.000715
    10  C   -0.022402   0.072093   0.256905  -0.005644  -0.008347   0.000033
    11  C   -0.001080   0.235908  -0.426689  -0.036944  -0.093073   0.001785
    12  H    0.016603   0.011701  -0.004543   0.003477  -0.001207   0.000558
    13  S    0.001018   0.009706  -0.007076   0.000294  -0.003730   0.000038
    14  C   -0.000195  -0.005541   0.022558   0.000491   0.002884   0.000028
    15  C    0.004501   0.007442  -0.185177  -0.003059  -0.007065  -0.000133
    16  H    0.000035   0.000043   0.001956   0.000024  -0.000233   0.000004
    17  H    0.000067   0.001288  -0.008319  -0.000167  -0.000445  -0.000006
    18  H   -0.077450   0.312462   0.016298  -0.011367   0.014125  -0.001267
    19  O   -0.076412  -0.074631   0.034175  -0.049065   0.001579  -0.014513
    20  H    0.010637   0.004661   0.003493  -0.018569   0.000702  -0.002894
               7          8          9         10         11         12
     1  C    0.205754  -0.019962   0.017038  -0.022402  -0.001080   0.016603
     2  C   -0.464901  -0.038550  -0.017181   0.072093   0.235908   0.011701
     3  C   -1.677781  -0.169993   0.052037   0.256905  -0.426689  -0.004543
     4  C    0.212052  -0.005883   0.015277  -0.005644  -0.036944   0.003477
     5  S   -0.252597   0.122815  -0.005041  -0.008347  -0.093073  -0.001207
     6  H   -0.000746   0.000631   0.000715   0.000033   0.001785   0.000558
     7  C    9.209031   0.289541  -0.005127  -0.471677  -1.302315   0.238025
     8  S    0.289541  15.951981   0.103775  -0.241598  -0.446515   0.035396
     9  C   -0.005127   0.103775   7.204120   0.299759  -0.387269  -0.036046
    10  C   -0.471677  -0.241598   0.299759   8.171744  -1.480795   0.161825
    11  C   -1.302315  -0.446515  -0.387269  -1.480795   9.999466  -0.458951
    12  H    0.238025   0.035396  -0.036046   0.161825  -0.458951   1.504957
    13  S   -0.114798  -0.006855  -0.042610   0.042691   0.015764  -0.060841
    14  C    0.109144  -0.057193   0.064066  -0.314466  -0.190704   0.001252
    15  C   -0.255672  -0.031170  -0.964869   0.021181   0.472857  -0.001788
    16  H   -0.004461  -0.000658   0.008583  -0.015767   0.030179   0.001235
    17  H    0.049836  -0.036201   0.194143  -0.013809  -0.018255   0.000122
    18  H   -0.076191  -0.004593  -0.003505   0.014430   0.038922  -0.005127
    19  O    0.000796   0.001443  -0.000050   0.000219   0.002648   0.000253
    20  H   -0.001920   0.000005   0.000067  -0.000050   0.001002   0.000025
              13         14         15         16         17         18
     1  C    0.001018  -0.000195   0.004501   0.000035   0.000067  -0.077450
     2  C    0.009706  -0.005541   0.007442   0.000043   0.001288   0.312462
     3  C   -0.007076   0.022558  -0.185177   0.001956  -0.008319   0.016298
     4  C    0.000294   0.000491  -0.003059   0.000024  -0.000167  -0.011367
     5  S   -0.003730   0.002884  -0.007065  -0.000233  -0.000445   0.014125
     6  H    0.000038   0.000028  -0.000133   0.000004  -0.000006  -0.001267
     7  C   -0.114798   0.109144  -0.255672  -0.004461   0.049836  -0.076191
     8  S   -0.006855  -0.057193  -0.031170  -0.000658  -0.036201  -0.004593
     9  C   -0.042610   0.064066  -0.964869   0.008583   0.194143  -0.003505
    10  C    0.042691  -0.314466   0.021181  -0.015767  -0.013809   0.014430
    11  C    0.015764  -0.190704   0.472857   0.030179  -0.018255   0.038922
    12  H   -0.060841   0.001252  -0.001788   0.001235   0.000122  -0.005127
    13  S   15.664443   0.210463  -0.257205  -0.127952   0.008023   0.000329
    14  C    0.210463   5.803709   0.227256   0.246415  -0.064680  -0.000283
    15  C   -0.257205   0.227256   6.585155   0.020757  -0.111827  -0.000730
    16  H   -0.127952   0.246415   0.020757   1.232526  -0.058199  -0.000005
    17  H    0.008023  -0.064680  -0.111827  -0.058199   1.373660   0.000055
    18  H    0.000329  -0.000283  -0.000730  -0.000005   0.000055   0.895884
    19  O   -0.000004  -0.000001   0.000034  -0.000000   0.000003  -0.018609
    20  H   -0.000004   0.000001   0.000022   0.000000   0.000000   0.006690
              19         20
     1  C   -0.076412   0.010637
     2  C   -0.074631   0.004661
     3  C    0.034175   0.003493
     4  C   -0.049065  -0.018569
     5  S    0.001579   0.000702
     6  H   -0.014513  -0.002894
     7  C    0.000796  -0.001920
     8  S    0.001443   0.000005
     9  C   -0.000050   0.000067
    10  C    0.000219  -0.000050
    11  C    0.002648   0.001002
    12  H    0.000253   0.000025
    13  S   -0.000004  -0.000004
    14  C   -0.000001   0.000001
    15  C    0.000034   0.000022
    16  H   -0.000000   0.000000
    17  H    0.000003   0.000000
    18  H   -0.018609   0.006690
    19  O    9.111072   0.220889
    20  H    0.220889   0.354538
 Mulliken charges:
               1
     1  C    0.162974
     2  C   -0.380831
     3  C    0.666895
     4  C    0.112407
     5  S    0.556980
     6  H   -0.282575
     7  C    0.314008
     8  S    0.553583
     9  C   -0.497883
    10  C   -0.466325
    11  C    0.044057
    12  H   -0.406926
    13  S    0.668308
    14  C   -0.055205
    15  C    0.479490
    16  H   -0.334482
    17  H   -0.315288
    18  H   -0.100067
    19  O   -1.139827
    20  H    0.420704
 Sum of Mulliken charges =  -0.00000
 Mulliken charges with hydrogens summed into heavy atoms:
               1
     1  C    0.162974
     2  C   -0.480898
     3  C    0.666895
     4  C   -0.170168
     5  S    0.556980
     7  C    0.314008
     8  S    0.553583
     9  C   -0.497883
    10  C   -0.466325
    11  C   -0.362869
    13  S    0.668308
    14  C   -0.389686
    15  C    0.164202
    19  O   -0.719123
 Electronic spatial extent (au):  <R**2>=           4980.1409
 Charge=             -0.0000 electrons
 Dipole moment (field-independent basis, Debye):
    X=             -1.3185    Y=              0.6939    Z=              0.5441  Tot=              1.5862
 Quadrupole moment (field-independent basis, Debye-Ang):
   XX=           -100.1731   YY=            -93.4551   ZZ=           -107.9736
   XY=              8.7537   XZ=             -5.8657   YZ=             -4.6222
 Traceless Quadrupole moment (field-independent basis, Debye-Ang):
   XX=              0.3608   YY=              7.0789   ZZ=             -7.4397
   XY=              8.7537   XZ=             -5.8657   YZ=             -4.6222
 Octapole moment (field-independent basis, Debye-Ang**2):
  XXX=            -63.9134  YYY=             25.8380  ZZZ=              4.9392  XYY=             40.2564
  XXY=             -2.6746  XXZ=             14.2330  XZZ=             16.4061  YZZ=              4.2241
  YYZ=             -7.7046  XYZ=            -32.9480
 Hexadecapole moment (field-independent basis, Debye-Ang**3):
 XXXX=          -5616.0530 YYYY=           -791.6178 ZZZZ=           -353.8101 XXXY=            221.3875
 XXXZ=           -200.4348 YYYX=            182.1276 YYYZ=            -31.6396 ZZZX=            -17.5164
 ZZZY=            -11.6131 XXYY=           -860.5598 XXZZ=          -1006.6896 YYZZ=           -191.3811
 XXYZ=           -136.8578 YYXZ=            -57.6279 ZZXY=             18.4103
 N-N= 1.078291986753D+03 E-N=-6.060803131539D+03  KE= 1.646831370306D+03
 Calling FoFJK, ICntrl=      2127 FMM=F ISym2X=0 I1Cent= 0 IOpClX= 0 NMat=1 NMatS=1 NMatT=0.
 ***** Axes restored to original set *****
 -------------------------------------------------------------------
 Center     Atomic                   Forces (Hartrees/Bohr)
 Number     Number              X              Y              Z
 -------------------------------------------------------------------
      1        6          -0.033245375   -0.004514654   -0.020253505
      2        6           0.017246995    0.018783748   -0.021953321
      3        6          -0.065974499    0.039532548    0.009765362
      4        6          -0.011874828    0.075244798   -0.012405612
      5       16          -0.005207130    0.040490743   -0.002449939
      6        1           0.004421293   -0.002459467   -0.001497899
      7        6           0.056242742    0.025098542   -0.066475620
      8       16          -0.012510757    0.018724059   -0.007039363
      9        6          -0.014113002    0.007067895   -0.053184550
     10        6          -0.011796267   -0.031175680    0.045166471
     11        6          -0.027582296   -0.024598934    0.068948373
     12        1          -0.003517633    0.004610300    0.004715914
     13       16           0.018216796   -0.004655849    0.016188129
     14        6          -0.035251857   -0.005895896    0.069210090
     15        6           0.020148557   -0.002054284   -0.075505506
     16        1           0.001682522    0.008529919   -0.001061583
     17        1           0.005522024    0.010908326   -0.001709270
     18        1           0.016849115   -0.078806928    0.022396969
     19        8           0.034197675    0.035973411   -0.009872714
     20        1           0.046545924   -0.130802596    0.037017575
 -------------------------------------------------------------------
 Cartesian Forces:  Max     0.130802596 RMS     0.036682431

 GradGradGradGradGradGradGradGradGradGradGradGradGradGradGradGradGradGrad
 Berny optimization.
 FormGI is forming the generalized inverse of G from B-inverse, IUseBI=4.
 Internal  Forces:  Max     0.140719233 RMS     0.028665491
 Search for a local minimum.
 Step number   1 out of a maximum of  116
 All quantities printed in internal units (Hartrees-Bohrs-Radians)
 Mixed Optimization -- RFO/linear search
 Second derivative matrix not updated -- first step.
 ITU=  0
     Eigenvalues ---    0.00230   0.00983   0.01054   0.01222   0.01274
     Eigenvalues ---    0.01299   0.01386   0.01417   0.01425   0.01464
     Eigenvalues ---    0.01492   0.01554   0.01599   0.01776   0.02203
     Eigenvalues ---    0.02656   0.15078   0.15684   0.15736   0.15872
     Eigenvalues ---    0.15997   0.16000   0.17987   0.18458   0.20203
     Eigenvalues ---    0.21719   0.22443   0.23317   0.23380   0.23776
     Eigenvalues ---    0.23979   0.24292   0.24978   0.24995   0.26219
     Eigenvalues ---    0.26543   0.28393   0.30834   0.31321   0.31556
     Eigenvalues ---    0.34806   0.35138   0.35849   0.35904   0.36006
     Eigenvalues ---    0.36134   0.36313   0.37598   0.38307   0.38494
     Eigenvalues ---    0.39449   0.39712   0.407151000.000001000.00000
     Eigenvalues --- 1000.000001000.000001000.000001000.000001000.00000
     Eigenvalues --- 1000.000001000.000001000.000001000.000001000.00000
     Eigenvalues --- 1000.000001000.000001000.000001000.000001000.00000
     Eigenvalues --- 1000.000001000.000001000.000001000.000001000.00000
     Eigenvalues --- 1000.000001000.000001000.000001000.000001000.00000
     Eigenvalues --- 1000.000001000.000001000.000001000.000001000.00000
     Eigenvalues --- 1000.000001000.000001000.000001000.000001000.00000
     Eigenvalues --- 1000.000001000.000001000.000001000.000001000.00000
     Eigenvalues --- 1000.000001000.000001000.000001000.000001000.00000
     Eigenvalues --- 1000.000001000.000001000.000001000.000001000.00000
     Eigenvalues --- 1000.00000
 RFO step:  Lambda=-1.95662608D-01 EMin= 2.30000000D-03
 Linear search not attempted -- first point.
 Maximum step size (   0.300) exceeded in Quadratic search.
    -- Step size scaled by   0.451
 Iteration  1 RMS(Cart)=  0.06157887 RMS(Int)=  0.00129867
 Iteration  2 RMS(Cart)=  0.00169992 RMS(Int)=  0.00005834
 Iteration  3 RMS(Cart)=  0.00000725 RMS(Int)=  0.00005814
 Iteration  4 RMS(Cart)=  0.00000000 RMS(Int)=  0.00005814
 Iteration  1 RMS(Cart)=  0.00000077 RMS(Int)=  0.00000029
 Variable       Old X    -DE/DX   Delta X   Delta X   Delta X     New X
                                 (Linear)    (Quad)   (Total)
    R1        2.71917  -0.01996   0.00000  -0.01614  -0.01606   2.70311
    R2        2.71391  -0.08713   0.00000  -0.06635  -0.06632   2.64759
    R3        3.19503  -0.12361   0.00000  -0.14670  -0.14670   3.04833
    R4        2.75906  -0.09174   0.00000  -0.07351  -0.07348   2.68559
    R5        2.35064  -0.08133   0.00000  -0.08890  -0.08890   2.26174
    R6        3.39578  -0.02755   0.00000  -0.02606  -0.02611   3.36967
    R7        2.74954  -0.00305   0.00000  -0.00241  -0.00241   2.74713
    R8        3.28671  -0.02165   0.00000  -0.01843  -0.01848   3.26823
    R9        2.04073  -0.00295   0.00000  -0.00240  -0.00240   2.03833
   R10        3.38338  -0.01974   0.00000  -0.01830  -0.01834   3.36505
   R11        2.76796  -0.08862   0.00000  -0.07170  -0.07170   2.69625
   R12        3.26966  -0.00505   0.00000  -0.00382  -0.00383   3.26583
   R13        2.72290  -0.05409   0.00000  -0.04194  -0.04187   2.68103
   R14        2.69357   0.00285   0.00000   0.00139   0.00144   2.69502
   R15        2.70704  -0.00952   0.00000  -0.00795  -0.00791   2.69913
   R16        3.27357  -0.00284   0.00000  -0.00178  -0.00180   3.27177
   R17        2.03872  -0.00070   0.00000  -0.00057  -0.00057   2.03815
   R18        3.33551  -0.01824   0.00000  -0.01638  -0.01643   3.31908
   R19        2.73017  -0.08035   0.00000  -0.06236  -0.06236   2.66781
   R20        2.04232  -0.00311   0.00000  -0.00253  -0.00253   2.03979
   R21        2.05452  -0.00705   0.00000  -0.00582  -0.00582   2.04870
   R22        2.39943  -0.14072   0.00000  -0.15968  -0.15968   2.23975
    A1        1.97020   0.02277   0.00000   0.02165   0.02176   1.99196
    A2        2.13260   0.00298   0.00000   0.00436   0.00431   2.13691
    A3        2.16079  -0.02496   0.00000  -0.02435  -0.02444   2.13634
    A4        1.97187  -0.00333   0.00000  -0.00517  -0.00506   1.96681
    A5        1.96334   0.02402   0.00000   0.03110   0.03105   1.99439
    A6        2.34288  -0.02047   0.00000  -0.02541  -0.02547   2.31741
    A7        1.90440   0.00026   0.00000   0.00099   0.00098   1.90537
    A8        2.31891  -0.01220   0.00000  -0.01271  -0.01271   2.30621
    A9        2.05972   0.01195   0.00000   0.01174   0.01175   2.07146
   A10        1.95339  -0.01742   0.00000  -0.01871  -0.01873   1.93466
   A11        2.17580   0.01306   0.00000   0.01489   0.01489   2.19070
   A12        2.15384   0.00439   0.00000   0.00388   0.00389   2.15773
   A13        1.62490  -0.00228   0.00000   0.00126   0.00107   1.62596
   A14        2.12916  -0.00234   0.00000  -0.00225  -0.00226   2.12690
   A15        2.24060  -0.00652   0.00000  -0.00649  -0.00651   2.23410
   A16        1.91274   0.00895   0.00000   0.00891   0.00892   1.92166
   A17        1.61936  -0.00839   0.00000  -0.00668  -0.00669   1.61267
   A18        1.96139  -0.01129   0.00000  -0.01017  -0.01028   1.95110
   A19        2.23862   0.00907   0.00000   0.01236   0.01224   2.25086
   A20        1.96590   0.00667   0.00000   0.00644   0.00649   1.97239
   A21        1.96653   0.00831   0.00000   0.00752   0.00755   1.97408
   A22        1.96598  -0.01405   0.00000  -0.01289  -0.01295   1.95303
   A23        2.23673   0.00967   0.00000   0.01283   0.01273   2.24946
   A24        1.96403   0.00246   0.00000   0.00053   0.00060   1.96462
   A25        2.15995  -0.00568   0.00000  -0.00562  -0.00567   2.15429
   A26        2.14733   0.00386   0.00000   0.00645   0.00640   2.15373
   A27        1.59334   0.00013   0.00000   0.00141   0.00137   1.59472
   A28        1.95974   0.00117   0.00000   0.00060   0.00058   1.96032
   A29        2.13554  -0.00395   0.00000  -0.00410  -0.00415   2.13140
   A30        2.17064   0.00409   0.00000   0.00622   0.00619   2.17682
   A31        1.93948   0.00607   0.00000   0.00445   0.00452   1.94400
   A32        2.16519   0.00000   0.00000   0.00257   0.00247   2.16766
   A33        2.14184  -0.00382   0.00000  -0.00241  -0.00252   2.13932
   A34        2.33954  -0.06963   0.00000  -0.08834  -0.08834   2.25119
    D1        0.00683  -0.00065   0.00000  -0.00131  -0.00132   0.00552
    D2        3.05589  -0.00001   0.00000   0.00180   0.00193   3.05782
    D3       -2.93068  -0.00186   0.00000  -0.00698  -0.00714  -2.93782
    D4        0.11838  -0.00122   0.00000  -0.00387  -0.00390   0.11449
    D5       -0.00671   0.00079   0.00000   0.00152   0.00153  -0.00518
    D6       -3.13020  -0.00104   0.00000  -0.00190  -0.00189  -3.13208
    D7        2.92697   0.00595   0.00000   0.01132   0.01125   2.93822
    D8       -0.19651   0.00412   0.00000   0.00789   0.00783  -0.18868
    D9       -0.13323   0.00242   0.00000   0.00315   0.00311  -0.13012
   D10       -3.04818  -0.00500   0.00000  -0.00903  -0.00899  -3.05717
   D11       -0.00388   0.00042   0.00000   0.00069   0.00066  -0.00322
   D12        3.11762   0.00142   0.00000   0.00181   0.00177   3.11939
   D13       -3.02603  -0.00399   0.00000  -0.00784  -0.00781  -3.03383
   D14        0.09547  -0.00299   0.00000  -0.00673  -0.00669   0.08878
   D15        0.00006   0.00010   0.00000   0.00020   0.00022   0.00028
   D16       -3.12486  -0.00044   0.00000  -0.00042  -0.00041  -3.12527
   D17        2.26882  -0.00114   0.00000   0.00000  -0.00000   2.26882
   D18       -0.91679   0.00198   0.00000   0.00554   0.00554  -0.91125
   D19       -0.89428  -0.00021   0.00000   0.00106   0.00106  -0.89321
   D20        2.20330   0.00292   0.00000   0.00660   0.00660   2.20990
   D21        0.00376  -0.00051   0.00000  -0.00099  -0.00101   0.00275
   D22        3.12751   0.00140   0.00000   0.00252   0.00247   3.12998
   D23        3.13743   0.00080   0.00000   0.00140   0.00142   3.13885
   D24        0.03246  -0.00150   0.00000  -0.00290  -0.00292   0.02954
   D25       -3.13912  -0.00197   0.00000  -0.00332  -0.00330   3.14077
   D26       -0.15837   0.00281   0.00000   0.00654   0.00654  -0.15183
   D27       -0.03715   0.00066   0.00000   0.00148   0.00153  -0.03562
   D28        2.94359   0.00544   0.00000   0.01135   0.01137   2.95496
   D29       -0.02015   0.00247   0.00000   0.00408   0.00406  -0.01609
   D30       -2.61628  -0.00804   0.00000  -0.01519  -0.01521  -2.63149
   D31        0.00187  -0.00203   0.00000  -0.00354  -0.00351  -0.00164
   D32       -2.68805  -0.01207   0.00000  -0.02094  -0.02077  -2.70882
   D33        2.68635   0.00864   0.00000   0.01555   0.01545   2.70180
   D34       -0.00358  -0.00140   0.00000  -0.00185  -0.00181  -0.00538
   D35        2.61384   0.00711   0.00000   0.01640   0.01652   2.63036
   D36       -0.24593  -0.00080   0.00000  -0.00049  -0.00043  -0.24636
   D37        0.01885   0.00109   0.00000   0.00126   0.00124   0.02009
   D38       -2.84092  -0.00682   0.00000  -0.01563  -0.01571  -2.85663
   D39        0.02336   0.00094   0.00000   0.00129   0.00128   0.02463
   D40       -2.95873  -0.00278   0.00000  -0.00721  -0.00727  -2.96601
   D41        2.62712   0.00526   0.00000   0.01346   0.01358   2.64070
   D42       -0.35497   0.00154   0.00000   0.00496   0.00504  -0.34993
   D43       -0.00970   0.00137   0.00000   0.00173   0.00171  -0.00799
   D44       -2.61360  -0.00852   0.00000  -0.01551  -0.01549  -2.62909
   D45        0.02052  -0.00059   0.00000  -0.00090  -0.00090   0.01962
   D46        2.97146   0.00707   0.00000   0.01475   0.01469   2.98615
   D47       -0.02605  -0.00002   0.00000   0.00009   0.00011  -0.02594
   D48        2.83814   0.00846   0.00000   0.01763   0.01766   2.85580
   D49       -2.97247  -0.00682   0.00000  -0.01458  -0.01461  -2.98708
   D50       -0.10829   0.00166   0.00000   0.00296   0.00294  -0.10535
         Item               Value     Threshold  Converged?
 Maximum Force            0.140719     0.000450     NO 
 RMS     Force            0.028801     0.000300     NO 
 Maximum Displacement     0.404597     0.001800     NO 
 RMS     Displacement     0.061044     0.001200     NO 
 Predicted change in Energy=-7.751403D-02
 GradGradGradGradGradGradGradGradGradGradGradGradGradGradGradGradGradGrad

                          Input orientation:                          
 ---------------------------------------------------------------------
 Center     Atomic      Atomic             Coordinates (Angstroms)
 Number     Number       Type             X           Y           Z
 ---------------------------------------------------------------------
      1          6           0       -4.224723   -1.360768   -0.228049
      2          6           0       -2.908950   -0.967764   -0.628555
      3          6           0       -1.989103   -2.051071   -0.627558
      4          6           0       -4.344700   -2.720021    0.089696
      5         16           0       -2.832299   -3.534696   -0.110348
      6          1           0       -5.251460   -3.212413    0.404015
      7          6           0       -0.580510   -2.134786   -0.977062
      8         16           0        0.613035   -2.893243    0.105115
      9          6           0        1.911344   -2.588215   -0.993993
     10          6           0        1.461318   -1.942724   -2.174518
     11          6           0        0.053716   -1.700381   -2.179060
     12          1           0       -0.488245   -1.365335   -3.049278
     13         16           0        2.517855   -2.236864   -3.514208
     14          6           0        3.581960   -3.213526   -2.514865
     15          6           0        3.115141   -3.328025   -1.187466
     16          1           0        4.393285   -3.789654   -2.933138
     17          1           0        3.482444   -4.084042   -0.502736
     18          1           0       -2.823364    0.170937   -0.987038
     19          8           0       -5.506848   -0.398050   -0.405392
     20          1           0       -5.545897    0.736642   -0.745560
 ---------------------------------------------------------------------
                    Distance matrix (angstroms):
                    1          2          3          4          5
     1  C    0.000000
     2  C    1.430425   0.000000
     3  C    2.373631   1.421152   0.000000
     4  C    1.401043   2.376481   2.551623   0.000000
     5  S    2.584311   2.619839   1.783151   1.729471   0.000000
     6  H    2.209588   3.404703   3.613285   1.078638   2.494148
     7  C    3.800054   2.627742   1.453718   3.955957   2.789533
     8  S    5.085605   4.080455   2.831463   4.960784   3.511155
     9  C    6.304333   5.098494   3.954274   6.350578   4.917194
    10  C    6.038086   4.737066   3.782887   6.280183   5.022980
    11  C    4.714533   3.423183   2.589064   5.053016   3.996669
    12  H    4.681946   3.446414   2.930449   5.153694   4.340279
    13  S    7.551738   6.275972   5.355365   7.766352   6.472618
    14  C    8.343054   7.122747   5.995830   8.358183   6.857666
    15  C    7.659255   6.494065   5.291258   7.592762   6.047722
    16  H    9.353452   8.160686   7.005230   9.307740   7.761586
    17  H    8.178759   7.111746   5.838354   7.967164   6.350727
    18  H    2.210429   1.196861   2.400529   3.439689   3.807938
    19  O    1.613109   2.668979   3.893118   2.643341   4.132652
    20  H    2.532281   3.142002   4.520625   3.753537   5.100141
                    6          7          8          9         10
     6  H    0.000000
     7  C    4.988630   0.000000
     8  S    5.880775   1.780706   0.000000
     9  C    7.324603   2.532829   1.728203   0.000000
    10  C    7.302214   2.374837   2.611474   1.418740   0.000000
    11  C    6.091256   1.426796   2.636894   2.375587   1.428319
    12  H    6.166453   2.212384   3.673896   3.387870   2.213454
    13  S    8.755936   4.005920   4.142302   2.615872   1.731345
    14  C    9.303181   4.566692   3.972580   2.344147   2.495575
    15  C    8.517405   3.889206   2.849620   1.426141   2.372438
    16  H   10.222079   5.594950   4.932020   3.371020   3.547264
    17  H    8.824002   4.531245   3.165595   2.224227   3.386008
    18  H    4.390642   3.216652   4.731895   5.480002   4.923025
    19  O    2.939559   5.254699   6.628693   7.757116   7.353310
    20  H    4.123500   5.740536   7.199455   8.168649   7.636883
                   11         12         13         14         15
    11  C    0.000000
    12  H    1.078544   0.000000
    13  S    2.853492   3.164232   0.000000
    14  C    3.853684   4.501997   1.756381   0.000000
    15  C    3.606218   4.505873   2.638392   1.411744   0.000000
    16  H    4.874993   5.451619   2.503205   1.079409   2.212267
    17  H    4.499786   5.444503   3.662166   2.194622   1.084125
    18  H    3.633226   3.473578   6.380651   7.403852   6.895560
    19  O    5.980120   5.754315   8.800104   9.745933   9.139753
    20  H    6.272931   5.941823   9.029465  10.102081   9.577597
                   16         17         18         19         20
    16  H    0.000000
    17  H    2.612116   0.000000
    18  H    8.458937   7.622506   0.000000
    19  O   10.765924   9.716140   2.804130   0.000000
    20  H   11.138231  10.237621   2.791150   1.185227   0.000000
 Stoichiometry    C10H6OS3
 Framework group  C1[X(C10H6OS3)]
 Deg. of freedom    54
 Full point group                 C1      NOp   1
 Largest Abelian subgroup         C1      NOp   1
 Largest concise Abelian subgroup C1      NOp   1
                         Standard orientation:                         
 ---------------------------------------------------------------------
 Center     Atomic      Atomic             Coordinates (Angstroms)
 Number     Number       Type             X           Y           Z
 ---------------------------------------------------------------------
      1          6           0        3.854464    0.489277   -0.179243
      2          6           0        2.543568    0.887785   -0.590167
      3          6           0        1.528091    0.025554   -0.095153
      4          6           0        3.879632   -0.664051    0.615819
      5         16           0        2.279984   -1.268614    0.874082
      6          1           0        4.764689   -1.119446    1.031453
      7          6           0        0.080641    0.046273   -0.228396
      8         16           0       -0.837182   -1.392355   -0.737184
      9          6           0       -2.346006   -0.556123   -0.633025
     10          6           0       -2.176358    0.784554   -0.201019
     11          6           0       -0.811518    1.125305    0.046357
     12          1           0       -0.505960    2.041353    0.526719
     13         16           0       -3.605577    1.405723    0.553328
     14          6           0       -4.453796   -0.109639    0.290501
     15          6           0       -3.641340   -1.076295   -0.340776
     16          1           0       -5.420683   -0.309306    0.726835
     17          1           0       -3.891205   -2.131170   -0.352360
     18          1           0        2.509835    1.921379   -1.192679
     19          8           0        5.146034    1.436943   -0.368712
     20          1           0        5.235197    2.469755   -0.943265
 ---------------------------------------------------------------------
 Rotational constants (GHZ):           1.3921079           0.2299071           0.2096960
 Standard basis: Aug-CC-pVDZ (5D, 7F)
 There are   416 symmetry adapted cartesian basis functions of A   symmetry.
 There are   388 symmetry adapted basis functions of A   symmetry.
   388 basis functions,   782 primitive gaussians,   416 cartesian basis functions
    61 alpha electrons       61 beta electrons
       nuclear repulsion energy      1089.3326362913 Hartrees.
 NAtoms=   20 NActive=   20 NUniq=   20 SFac= 1.00D+00 NAtFMM=   60 NAOKFM=F Big=F
 Integral buffers will be    131072 words long.
 Raffenetti 1 integral format.
 Two-electron integral symmetry is turned on.
 One-electron integrals computed using PRISM.
 NBasis=   388 RedAO= T EigKep=  6.85D-06  NBF=   388
 NBsUse=   388 1.00D-06 EigRej= -1.00D+00 NBFU=   388
 Initial guess from the checkpoint file:  "/tmp/pbs.4766241[305].pbs/Gau-3522469.chk"
 B after Tr=     0.000000    0.000000    0.000000
         Rot=    0.999991    0.003621   -0.001070   -0.002048 Ang=   0.49 deg.
 ExpMin= 2.97D-02 ExpMax= 1.11D+05 ExpMxC= 1.07D+03 IAcc=3 IRadAn=         5 AccDes= 0.00D+00
 Harris functional with IExCor=  205 and IRadAn=       5 diagonalized for initial guess.
 HarFok:  IExCor=  205 AccDes= 0.00D+00 IRadAn=         5 IDoV= 1 UseB2=F ITyADJ=14
 ICtDFT=  3500011 ScaDFX=  1.000000  1.000000  1.000000  1.000000
 FoFCou: FMM=F IPFlag=           0 FMFlag=      100000 FMFlg1=           0
         NFxFlg=           0 DoJE=T BraDBF=F KetDBF=T FulRan=T
         wScrn=  0.000000 ICntrl=       500 IOpCl=  0 I1Cent=   200000004 NGrid=           0
         NMat0=    1 NMatS0=      1 NMatT0=    0 NMatD0=    1 NMtDS0=    0 NMtDT0=    0
 Petite list used in FoFCou.
 Requested convergence on RMS density matrix=1.00D-08 within 128 cycles.
 Requested convergence on MAX density matrix=1.00D-06.
 Requested convergence on             energy=1.00D-06.
 No special actions if energy rises.
 SCF Done:  E(RHF) =  -1649.50320397     A.U. after   15 cycles
            NFock= 15  Conv=0.56D-08     -V/T= 2.0012
 Calling FoFJK, ICntrl=      2127 FMM=F ISym2X=0 I1Cent= 0 IOpClX= 0 NMat=1 NMatS=1 NMatT=0.
 ***** Axes restored to original set *****
 -------------------------------------------------------------------
 Center     Atomic                   Forces (Hartrees/Bohr)
 Number     Number              X              Y              Z
 -------------------------------------------------------------------
      1        6          -0.051656141    0.017430660   -0.021428035
      2        6           0.015182485    0.021941339   -0.020313577
      3        6          -0.051208380    0.027623684    0.009176124
      4        6          -0.008669298    0.057043735   -0.008052582
      5       16           0.001867275    0.025077126   -0.001155236
      6        1           0.003553752   -0.002479921   -0.001635992
      7        6           0.045292156    0.018978220   -0.050526661
      8       16          -0.010663954    0.014541224   -0.001154589
      9        6          -0.013497142    0.004411236   -0.041335770
     10        6          -0.004544489   -0.027239717    0.033411182
     11        6          -0.024472908   -0.016795189    0.050442389
     12        1          -0.002387388    0.004641976    0.003752036
     13       16           0.015178341   -0.000471232    0.008155482
     14        6          -0.026538229   -0.005957842    0.051190539
     15        6           0.016146662   -0.003916845   -0.055043056
     16        1           0.001871204    0.007533091   -0.001386474
     17        1           0.005103344    0.009465004    0.000393144
     18        1           0.013049147   -0.063773705    0.019289427
     19        8           0.044766190    0.039605386   -0.011192255
     20        1           0.031627374   -0.127658231    0.037413905
 -------------------------------------------------------------------
 Cartesian Forces:  Max     0.127658231 RMS     0.031296099

 GradGradGradGradGradGradGradGradGradGradGradGradGradGradGradGradGradGrad
 Berny optimization.
 Using GEDIIS/GDIIS optimizer.
 FormGI is forming the generalized inverse of G from B-inverse, IUseBI=4.
 Internal  Forces:  Max     0.133995165 RMS     0.023832151
 Search for a local minimum.
 Step number   2 out of a maximum of  116
 All quantities printed in internal units (Hartrees-Bohrs-Radians)
 Mixed Optimization -- RFO/linear search
 Update second derivatives using D2CorX and points    1    2
 DE= -8.18D-02 DEPred=-7.75D-02 R= 1.06D+00
 TightC=F SS=  1.41D+00  RLast= 3.06D-01 DXNew= 5.0454D-01 9.1695D-01
 Trust test= 1.06D+00 RLast= 3.06D-01 DXMaxT set to 5.05D-01
 ITU=  1  0
 Use linear search instead of GDIIS.
 Linear search step of   0.600 exceeds DXMaxT=   0.505 but not scaled.
 Quartic linear search produced a step of  2.00000.
 Iteration  1 RMS(Cart)=  0.10847366 RMS(Int)=  0.01830121
 Iteration  2 RMS(Cart)=  0.02077359 RMS(Int)=  0.00037021
 Iteration  3 RMS(Cart)=  0.00018585 RMS(Int)=  0.00035208
 Iteration  4 RMS(Cart)=  0.00000009 RMS(Int)=  0.00035208
 Iteration  1 RMS(Cart)=  0.00000440 RMS(Int)=  0.00000174
 Iteration  2 RMS(Cart)=  0.00000240 RMS(Int)=  0.00000194
 Iteration  3 RMS(Cart)=  0.00000131 RMS(Int)=  0.00000220
 Iteration  4 RMS(Cart)=  0.00000071 RMS(Int)=  0.00000236
 Variable       Old X    -DE/DX   Delta X   Delta X   Delta X     New X
                                 (Linear)    (Quad)   (Total)
    R1        2.70311  -0.00909  -0.03212   0.00000  -0.03162   2.67149
    R2        2.64759  -0.06048  -0.13265   0.00000  -0.13245   2.51513
    R3        3.04833  -0.11615  -0.29340   0.00000  -0.29340   2.75494
    R4        2.68559  -0.06451  -0.14695   0.00000  -0.14674   2.53885
    R5        2.26174  -0.06552  -0.17780   0.00000  -0.17780   2.08394
    R6        3.36967  -0.02049  -0.05223   0.00000  -0.05258   3.31709
    R7        2.74713   0.00165  -0.00481   0.00000  -0.00481   2.74232
    R8        3.26823  -0.01055  -0.03697   0.00000  -0.03734   3.23089
    R9        2.03833  -0.00233  -0.00480   0.00000  -0.00480   2.03353
   R10        3.36505  -0.01408  -0.03667   0.00000  -0.03689   3.32815
   R11        2.69625  -0.06463  -0.14340   0.00000  -0.14342   2.55284
   R12        3.26583  -0.00081  -0.00766   0.00000  -0.00773   3.25810
   R13        2.68103  -0.03905  -0.08374   0.00000  -0.08330   2.59773
   R14        2.69502   0.00447   0.00288   0.00000   0.00320   2.69822
   R15        2.69913  -0.00276  -0.01583   0.00000  -0.01562   2.68351
   R16        3.27177   0.00033  -0.00360   0.00000  -0.00373   3.26804
   R17        2.03815  -0.00039  -0.00114   0.00000  -0.00114   2.03702
   R18        3.31908  -0.01210  -0.03287   0.00000  -0.03319   3.28589
   R19        2.66781  -0.05719  -0.12472   0.00000  -0.12473   2.54307
   R20        2.03979  -0.00208  -0.00507   0.00000  -0.00507   2.03472
   R21        2.04870  -0.00462  -0.01164   0.00000  -0.01164   2.03706
   R22        2.23975  -0.13400  -0.31935   0.00000  -0.31935   1.92040
    A1        1.99196   0.01316   0.04351   0.00000   0.04415   2.03611
    A2        2.13691   0.00493   0.00863   0.00000   0.00832   2.14523
    A3        2.13634  -0.01728  -0.04888   0.00000  -0.04940   2.08695
    A4        1.96681  -0.00196  -0.01012   0.00000  -0.00940   1.95742
    A5        1.99439   0.02046   0.06209   0.00000   0.06174   2.05613
    A6        2.31741  -0.01828  -0.05094   0.00000  -0.05136   2.26605
    A7        1.90537   0.00265   0.00195   0.00000   0.00192   1.90729
    A8        2.30621  -0.01136  -0.02541   0.00000  -0.02540   2.28081
    A9        2.07146   0.00872   0.02349   0.00000   0.02351   2.09497
   A10        1.93466  -0.00992  -0.03746   0.00000  -0.03757   1.89709
   A11        2.19070   0.00882   0.02979   0.00000   0.02983   2.22053
   A12        2.15773   0.00112   0.00777   0.00000   0.00781   2.16554
   A13        1.62596  -0.00393   0.00213   0.00000   0.00091   1.62687
   A14        2.12690  -0.00236  -0.00452   0.00000  -0.00460   2.12230
   A15        2.23410  -0.00525  -0.01301   0.00000  -0.01309   2.22101
   A16        1.92166   0.00769   0.01785   0.00000   0.01794   1.93961
   A17        1.61267  -0.00679  -0.01338   0.00000  -0.01345   1.59921
   A18        1.95110  -0.00755  -0.02057   0.00000  -0.02121   1.92989
   A19        2.25086   0.00721   0.02449   0.00000   0.02379   2.27466
   A20        1.97239   0.00434   0.01298   0.00000   0.01329   1.98567
   A21        1.97408   0.00495   0.01509   0.00000   0.01524   1.98932
   A22        1.95303  -0.00905  -0.02590   0.00000  -0.02625   1.92678
   A23        2.24946   0.00771   0.02547   0.00000   0.02485   2.27431
   A24        1.96462   0.00174   0.00119   0.00000   0.00162   1.96624
   A25        2.15429  -0.00388  -0.01134   0.00000  -0.01166   2.14263
   A26        2.15373   0.00272   0.01280   0.00000   0.01247   2.16620
   A27        1.59472  -0.00123   0.00275   0.00000   0.00249   1.59721
   A28        1.96032   0.00204   0.00115   0.00000   0.00104   1.96136
   A29        2.13140  -0.00434  -0.00829   0.00000  -0.00859   2.12281
   A30        2.17682   0.00345   0.01237   0.00000   0.01214   2.18896
   A31        1.94400   0.00390   0.00903   0.00000   0.00943   1.95343
   A32        2.16766  -0.00018   0.00493   0.00000   0.00432   2.17197
   A33        2.13932  -0.00177  -0.00503   0.00000  -0.00567   2.13365
   A34        2.25119  -0.06092  -0.17668   0.00000  -0.17668   2.07451
    D1        0.00552  -0.00038  -0.00263   0.00000  -0.00268   0.00284
    D2        3.05782   0.00066   0.00385   0.00000   0.00460   3.06242
    D3       -2.93782  -0.00283  -0.01428   0.00000  -0.01521  -2.95303
    D4        0.11449  -0.00179  -0.00779   0.00000  -0.00793   0.10655
    D5       -0.00518   0.00057   0.00306   0.00000   0.00311  -0.00208
    D6       -3.13208  -0.00100  -0.00377   0.00000  -0.00368  -3.13576
    D7        2.93822   0.00586   0.02250   0.00000   0.02210   2.96032
    D8       -0.18868   0.00429   0.01567   0.00000   0.01531  -0.17336
    D9       -0.13012   0.00187   0.00622   0.00000   0.00594  -0.12418
   D10       -3.05717  -0.00447  -0.01798   0.00000  -0.01770  -3.07487
   D11       -0.00322   0.00011   0.00132   0.00000   0.00112  -0.00210
   D12        3.11939   0.00109   0.00355   0.00000   0.00332   3.12272
   D13       -3.03383  -0.00410  -0.01561   0.00000  -0.01535  -3.04919
   D14        0.08878  -0.00312  -0.01339   0.00000  -0.01315   0.07563
   D15        0.00028   0.00021   0.00045   0.00000   0.00058   0.00086
   D16       -3.12527  -0.00037  -0.00083   0.00000  -0.00077  -3.12604
   D17        2.26882  -0.00122  -0.00000   0.00000   0.00000   2.26882
   D18       -0.91125   0.00178   0.01107   0.00000   0.01109  -0.90017
   D19       -0.89321  -0.00024   0.00213   0.00000   0.00214  -0.89107
   D20        2.20990   0.00275   0.01321   0.00000   0.01323   2.22313
   D21        0.00275  -0.00044  -0.00201   0.00000  -0.00208   0.00068
   D22        3.12998   0.00117   0.00495   0.00000   0.00468   3.13467
   D23        3.13885   0.00083   0.00283   0.00000   0.00291  -3.14143
   D24        0.02954  -0.00145  -0.00585   0.00000  -0.00600   0.02354
   D25        3.14077  -0.00167  -0.00659   0.00000  -0.00646   3.13431
   D26       -0.15183   0.00276   0.01308   0.00000   0.01305  -0.13878
   D27       -0.03562   0.00089   0.00306   0.00000   0.00333  -0.03229
   D28        2.95496   0.00532   0.02273   0.00000   0.02284   2.97780
   D29       -0.01609   0.00201   0.00811   0.00000   0.00795  -0.00814
   D30       -2.63149  -0.00743  -0.03042   0.00000  -0.03053  -2.66202
   D31       -0.00164  -0.00151  -0.00703   0.00000  -0.00689  -0.00853
   D32       -2.70882  -0.01049  -0.04154   0.00000  -0.04052  -2.74934
   D33        2.70180   0.00798   0.03089   0.00000   0.03024   2.73204
   D34       -0.00538  -0.00100  -0.00362   0.00000  -0.00339  -0.00877
   D35        2.63036   0.00727   0.03304   0.00000   0.03374   2.66410
   D36       -0.24636  -0.00035  -0.00087   0.00000  -0.00054  -0.24690
   D37        0.02009   0.00057   0.00249   0.00000   0.00238   0.02247
   D38       -2.85663  -0.00705  -0.03142   0.00000  -0.03190  -2.88853
   D39        0.02463   0.00045   0.00255   0.00000   0.00246   0.02709
   D40       -2.96601  -0.00331  -0.01455   0.00000  -0.01492  -2.98092
   D41        2.64070   0.00596   0.02717   0.00000   0.02787   2.66857
   D42       -0.34993   0.00220   0.01007   0.00000   0.01049  -0.33945
   D43       -0.00799   0.00116   0.00343   0.00000   0.00331  -0.00468
   D44       -2.62909  -0.00758  -0.03097   0.00000  -0.03078  -2.65987
   D45        0.01962  -0.00073  -0.00180   0.00000  -0.00182   0.01780
   D46        2.98615   0.00655   0.02939   0.00000   0.02907   3.01522
   D47       -0.02594   0.00034   0.00022   0.00000   0.00037  -0.02557
   D48        2.85580   0.00808   0.03532   0.00000   0.03547   2.89126
   D49       -2.98708  -0.00623  -0.02922   0.00000  -0.02940  -3.01648
   D50       -0.10535   0.00151   0.00587   0.00000   0.00570  -0.09964
         Item               Value     Threshold  Converged?
 Maximum Force            0.133995     0.000450     NO 
 RMS     Force            0.023945     0.000300     NO 
 Maximum Displacement     0.730816     0.001800     NO 
 RMS     Displacement     0.118504     0.001200     NO 
 Predicted change in Energy=-1.208561D-01
 GradGradGradGradGradGradGradGradGradGradGradGradGradGradGradGradGradGrad

                          Input orientation:                          
 ---------------------------------------------------------------------
 Center     Atomic      Atomic             Coordinates (Angstroms)
 Number     Number       Type             X           Y           Z
 ---------------------------------------------------------------------
      1          6           0       -4.171718   -1.357932   -0.264677
      2          6           0       -2.863723   -1.001142   -0.665151
      3          6           0       -2.023622   -2.049358   -0.643413
      4          6           0       -4.368464   -2.632138    0.065660
      5         16           0       -2.893783   -3.478594   -0.113055
      6          1           0       -5.289349   -3.086559    0.387318
      7          6           0       -0.617921   -2.142379   -0.991620
      8         16           0        0.553466   -2.889170    0.090932
      9          6           0        1.840953   -2.589841   -1.016020
     10          6           0        1.370977   -1.962994   -2.145564
     11          6           0       -0.029490   -1.728186   -2.134919
     12          1           0       -0.590662   -1.380374   -2.987017
     13         16           0        2.452500   -2.218172   -3.470674
     14          6           0        3.523508   -3.159222   -2.475260
     15          6           0        3.069889   -3.289025   -1.214947
     16          1           0        4.367773   -3.681986   -2.891528
     17          1           0        3.476616   -4.014394   -0.529072
     18          1           0       -2.696611    0.030932   -1.015875
     19          8           0       -5.317174   -0.469223   -0.417818
     20          1           0       -5.159166    0.485755   -0.727301
 ---------------------------------------------------------------------
                    Distance matrix (angstroms):
                    1          2          3          4          5
     1  C    0.000000
     2  C    1.413694   0.000000
     3  C    2.288193   1.343502   0.000000
     4  C    1.330952   2.336339   2.518075   0.000000
     5  S    2.480588   2.538402   1.755328   1.709711   0.000000
     6  H    2.159247   3.367539   3.578151   1.076100   2.478468
     7  C    3.711237   2.540203   1.451171   3.927375   2.781527
     8  S    4.979811   3.976618   2.808190   4.928702   3.503221
     9  C    6.183391   4.978057   3.919936   6.303069   4.901321
    10  C    5.884326   4.587969   3.713114   6.186957   4.961482
    11  C    4.559928   3.274399   2.510837   4.948370   3.918678
    12  H    4.498400   3.271343   2.827259   5.015729   4.238697
    13  S    7.409365   6.133054   5.296940   7.694321   6.437780
    14  C    8.206572   6.980725   5.946269   8.307666   6.845702
    15  C    7.554668   6.383137   5.273261   7.576315   6.067576
    16  H    9.231711   8.027342   6.969177   9.282725   7.777626
    17  H    8.100847   7.021261   5.841838   7.988092   6.406414
    18  H    2.160829   1.102774   2.217938   3.325169   3.629151
    19  O    1.457849   2.522604   3.659946   2.410809   3.875825
    20  H    2.142021   2.735650   4.033047   3.312892   4.607095
                    6          7          8          9         10
     6  H    0.000000
     7  C    4.961369   0.000000
     8  S    5.853657   1.761182   0.000000
     9  C    7.284044   2.499375   1.724112   0.000000
    10  C    7.213725   2.306400   2.555002   1.374658   0.000000
    11  C    5.989405   1.350903   2.577233   2.343702   1.420054
    12  H    6.031157   2.136120   3.613760   3.355651   2.212581
    13  S    8.693355   3.947016   4.091650   2.556844   1.729372
    14  C    9.266395   4.515151   3.934389   2.298819   2.484563
    15  C    8.513819   3.868412   2.863143   1.427835   2.347490
    16  H   10.215937   5.553124   4.906379   3.330935   3.534429
    17  H    8.862437   4.525884   3.193014   2.223030   3.354849
    18  H    4.290686   3.007461   4.507219   5.240033   4.668748
    19  O    2.738515   5.021123   6.370195   7.489569   7.067377
    20  H    3.744429   5.253556   6.685341   7.651425   7.116923
                   11         12         13         14         15
    11  C    0.000000
    12  H    1.077942   0.000000
    13  S    2.860874   3.193222   0.000000
    14  C    3.845451   4.511385   1.738817   0.000000
    15  C    3.590086   4.492529   2.572198   1.345737   0.000000
    16  H    4.870905   5.467414   2.479200   1.076729   2.156350
    17  H    4.483110   5.433444   3.595588   2.126303   1.077967
    18  H    3.385305   3.211263   6.131709   7.141203   6.656896
    19  O    5.700265   5.456271   8.529161   9.467144   8.884229
    20  H    5.761640   5.427704   8.530813   9.577580   9.066648
                   16         17         18         19         20
    16  H    0.000000
    17  H    2.546734   0.000000
    18  H    8.198132   7.396647   0.000000
    19  O   10.499490   9.482160   2.734077   0.000000
    20  H   10.621511   9.739988   2.520776   1.016233   0.000000
 Stoichiometry    C10H6OS3
 Framework group  C1[X(C10H6OS3)]
 Deg. of freedom    54
 Full point group                 C1      NOp   1
 Largest Abelian subgroup         C1      NOp   1
 Largest concise Abelian subgroup C1      NOp   1
                         Standard orientation:                         
 ---------------------------------------------------------------------
 Center     Atomic      Atomic             Coordinates (Angstroms)
 Number     Number       Type             X           Y           Z
 ---------------------------------------------------------------------
      1          6           0        3.764671    0.518204   -0.193759
      2          6           0        2.453134    0.880940   -0.576932
      3          6           0        1.529921    0.039258   -0.082716
      4          6           0        3.885748   -0.565752    0.569007
      5         16           0        2.328079   -1.207409    0.860651
      6          1           0        4.794903   -0.988755    0.959516
      7          6           0        0.083880    0.043927   -0.204536
[...]
 Number     Number       Type             X           Y           Z
 ---------------------------------------------------------------------
      1          6           0        3.762974    0.700815   -0.240012
      2          6           0        2.368165    0.972696   -0.451237
      3          6           0        1.565592    0.002018    0.045211
      4          6           0        3.987264   -0.467926    0.392815
      5         16           0        2.497195   -1.270283    0.772139
      6          1           0        4.936871   -0.898346    0.656013
      7          6           0        0.097884   -0.029557    0.010852
      8         16           0       -0.760949   -1.450787   -0.565305
      9          6           0       -2.286444   -0.663000   -0.305168
     10          6           0       -2.112590    0.600780    0.178567
     11          6           0       -0.741546    0.969613    0.368524
     12          1           0       -0.402844    1.911335    0.767945
     13         16           0       -3.639552    1.386342    0.441671
     14          6           0       -4.485125   -0.032432   -0.119323
     15          6           0       -3.660563   -1.037361   -0.480884
     16          1           0       -5.561581   -0.032924   -0.146599
     17          1           0       -4.000600   -1.990573   -0.851301
     18          1           0        1.995250    1.842980   -0.969694
     19          8           0        4.761620    1.519553   -0.642015
     20          1           0        4.419167    2.272885   -1.092389
 ---------------------------------------------------------------------
 Rotational constants (GHZ):           1.4648144           0.2361988           0.2132006

 **********************************************************************

            Population analysis using the SCF Density.

 **********************************************************************

 Orbital symmetries:
       Occupied  (A) (A) (A) (A) (A) (A) (A) (A) (A) (A) (A) (A)
                 (A) (A) (A) (A) (A) (A) (A) (A) (A) (A) (A) (A)
                 (A) (A) (A) (A) (A) (A) (A) (A) (A) (A) (A) (A)
                 (A) (A) (A) (A) (A) (A) (A) (A) (A) (A) (A) (A)
                 (A) (A) (A) (A) (A) (A) (A) (A) (A) (A) (A) (A)
                 (A)
       Virtual   (A) (A) (A) (A) (A) (A) (A) (A) (A) (A) (A) (A)
                 (A) (A) (A) (A) (A) (A) (A) (A) (A) (A) (A) (A)
                 (A) (A) (A) (A) (A) (A) (A) (A) (A) (A) (A) (A)
                 (A) (A) (A) (A) (A) (A) (A) (A) (A) (A) (A) (A)
                 (A) (A) (A) (A) (A) (A) (A) (A) (A) (A) (A) (A)
                 (A) (A) (A) (A) (A) (A) (A) (A) (A) (A) (A) (A)
                 (A) (A) (A) (A) (A) (A) (A) (A) (A) (A) (A) (A)
                 (A) (A) (A) (A) (A) (A) (A) (A) (A) (A) (A) (A)
                 (A) (A) (A) (A) (A) (A) (A) (A) (A) (A) (A) (A)
                 (A) (A) (A) (A) (A) (A) (A) (A) (A) (A) (A) (A)
                 (A) (A) (A) (A) (A) (A) (A) (A) (A) (A) (A) (A)
                 (A) (A) (A) (A) (A) (A) (A) (A) (A) (A) (A) (A)
                 (A) (A) (A) (A) (A) (A) (A) (A) (A) (A) (A) (A)
                 (A) (A) (A) (A) (A) (A) (A) (A) (A) (A) (A) (A)
                 (A) (A) (A) (A) (A) (A) (A) (A) (A) (A) (A) (A)
                 (A) (A) (A) (A) (A) (A) (A) (A) (A) (A) (A) (A)
                 (A) (A) (A) (A) (A) (A) (A) (A) (A) (A) (A) (A)
                 (A) (A) (A) (A) (A) (A) (A) (A) (A) (A) (A) (A)
                 (A) (A) (A) (A) (A) (A) (A) (A) (A) (A) (A) (A)
                 (A) (A) (A) (A) (A) (A) (A) (A) (A) (A) (A) (A)
                 (A) (A) (A) (A) (A) (A) (A) (A) (A) (A) (A) (A)
                 (A) (A) (A) (A) (A) (A) (A) (A) (A) (A) (A) (A)
                 (A) (A) (A) (A) (A) (A) (A) (A) (A) (A) (A) (A)
                 (A) (A) (A) (A) (A) (A) (A) (A) (A) (A) (A) (A)
                 (A) (A) (A) (A) (A) (A) (A) (A) (A) (A) (A) (A)
                 (A) (A) (A) (A) (A) (A) (A) (A) (A) (A) (A) (A)
                 (A) (A) (A) (A) (A) (A) (A) (A) (A) (A) (A) (A)
                 (A) (A) (A)
 The electronic state is 1-A.
 Alpha  occ. eigenvalues --  -91.99522 -91.99424 -91.98934 -20.60753 -11.31375
 Alpha  occ. eigenvalues --  -11.29502 -11.29419 -11.28156 -11.27757 -11.27608
 Alpha  occ. eigenvalues --  -11.26362 -11.26153 -11.25632 -11.25472  -8.99687
 Alpha  occ. eigenvalues --   -8.99607  -8.99130  -6.67850  -6.67773  -6.67770
 Alpha  occ. eigenvalues --   -6.67695  -6.67559  -6.67488  -6.67298  -6.67208
 Alpha  occ. eigenvalues --   -6.67008  -1.42612  -1.22260  -1.18665  -1.13247
 Alpha  occ. eigenvalues --   -1.03229  -1.02639  -0.99065  -0.96167  -0.94993
 Alpha  occ. eigenvalues --   -0.84243  -0.78748  -0.77795  -0.74626  -0.72936
 Alpha  occ. eigenvalues --   -0.72194  -0.67662  -0.66204  -0.61218  -0.60655
 Alpha  occ. eigenvalues --   -0.58258  -0.57482  -0.56428  -0.54964  -0.54017
 Alpha  occ. eigenvalues --   -0.52740  -0.51123  -0.50002  -0.48463  -0.46889
 Alpha  occ. eigenvalues --   -0.46606  -0.39370  -0.35588  -0.33129  -0.32686
 Alpha  occ. eigenvalues --   -0.29405
 Alpha virt. eigenvalues --    0.02939   0.03378   0.04515   0.04769   0.04826
 Alpha virt. eigenvalues --    0.05917   0.07249   0.08239   0.08262   0.09233
 Alpha virt. eigenvalues --    0.09436   0.10289   0.10641   0.10896   0.11494
 Alpha virt. eigenvalues --    0.11961   0.12478   0.12770   0.13027   0.13436
 Alpha virt. eigenvalues --    0.13618   0.13787   0.13933   0.14669   0.15002
 Alpha virt. eigenvalues --    0.15433   0.15882   0.16205   0.16399   0.17299
 Alpha virt. eigenvalues --    0.17453   0.18245   0.18353   0.18509   0.19044
 Alpha virt. eigenvalues --    0.19344   0.19980   0.20092   0.21061   0.21135
 Alpha virt. eigenvalues --    0.21819   0.22455   0.22798   0.23013   0.23378
 Alpha virt. eigenvalues --    0.24066   0.24553   0.24706   0.25006   0.25915
 Alpha virt. eigenvalues --    0.26303   0.26939   0.27293   0.27496   0.28139
 Alpha virt. eigenvalues --    0.28559   0.28728   0.30239   0.30702   0.30997
 Alpha virt. eigenvalues --    0.31157   0.31603   0.31775   0.32568   0.32750
 Alpha virt. eigenvalues --    0.33865   0.34080   0.34785   0.35112   0.35261
 Alpha virt. eigenvalues --    0.36454   0.36577   0.37472   0.38826   0.38857
 Alpha virt. eigenvalues --    0.39386   0.40133   0.41018   0.41425   0.41722
 Alpha virt. eigenvalues --    0.42382   0.42671   0.43831   0.44580   0.44795
 Alpha virt. eigenvalues --    0.45602   0.46001   0.46054   0.47339   0.48186
 Alpha virt. eigenvalues --    0.48578   0.48992   0.49437   0.50702   0.51896
 Alpha virt. eigenvalues --    0.52477   0.53261   0.54001   0.54758   0.55105
 Alpha virt. eigenvalues --    0.56430   0.57128   0.58122   0.58856   0.59215
 Alpha virt. eigenvalues --    0.59721   0.60597   0.61638   0.62028   0.62509
 Alpha virt. eigenvalues --    0.62808   0.63927   0.64240   0.65152   0.65268
 Alpha virt. eigenvalues --    0.66307   0.66866   0.67498   0.67977   0.68157
 Alpha virt. eigenvalues --    0.68362   0.69273   0.69919   0.70405   0.71227
 Alpha virt. eigenvalues --    0.71449   0.71584   0.72610   0.72965   0.73224
 Alpha virt. eigenvalues --    0.73706   0.74188   0.75153   0.75414   0.76276
 Alpha virt. eigenvalues --    0.76480   0.77260   0.77787   0.78712   0.79684
 Alpha virt. eigenvalues --    0.80828   0.82389   0.82720   0.83517   0.83928
 Alpha virt. eigenvalues --    0.84363   0.84919   0.86135   0.86918   0.87687
 Alpha virt. eigenvalues --    0.88321   0.89449   0.89874   0.90664   0.91577
 Alpha virt. eigenvalues --    0.92012   0.93570   0.93989   0.94405   0.94968
 Alpha virt. eigenvalues --    0.95433   0.95600   0.95926   0.97099   0.97785
 Alpha virt. eigenvalues --    0.98853   1.00213   1.01694   1.01793   1.02930
 Alpha virt. eigenvalues --    1.03738   1.04223   1.05187   1.05689   1.07201
 Alpha virt. eigenvalues --    1.08280   1.09172   1.09781   1.11040   1.11873
 Alpha virt. eigenvalues --    1.13406   1.14600   1.17065   1.17188   1.18238
 Alpha virt. eigenvalues --    1.20088   1.21178   1.22006   1.22400   1.23226
 Alpha virt. eigenvalues --    1.23399   1.24339   1.25099   1.26420   1.26966
 Alpha virt. eigenvalues --    1.27669   1.28061   1.29376   1.29727   1.31677
 Alpha virt. eigenvalues --    1.32645   1.33568   1.34896   1.35832   1.36367
 Alpha virt. eigenvalues --    1.37396   1.38903   1.39861   1.40513   1.40973
 Alpha virt. eigenvalues --    1.43672   1.44460   1.45431   1.46056   1.49847
 Alpha virt. eigenvalues --    1.51052   1.52454   1.55033   1.56296   1.56470
 Alpha virt. eigenvalues --    1.57522   1.57926   1.59523   1.60667   1.60931
 Alpha virt. eigenvalues --    1.63020   1.64095   1.64516   1.65662   1.66688
 Alpha virt. eigenvalues --    1.67139   1.68320   1.69589   1.70916   1.71258
 Alpha virt. eigenvalues --    1.72762   1.73300   1.75420   1.76456   1.78485
 Alpha virt. eigenvalues --    1.79514   1.80286   1.81429   1.82241   1.83234
 Alpha virt. eigenvalues --    1.84398   1.85093   1.85883   1.88017   1.88660
 Alpha virt. eigenvalues --    1.91155   1.92951   1.95460   1.95887   1.97060
 Alpha virt. eigenvalues --    1.97942   1.98955   2.02447   2.03611   2.04194
 Alpha virt. eigenvalues --    2.04609   2.05803   2.07828   2.09322   2.09999
 Alpha virt. eigenvalues --    2.11313   2.13041   2.13869   2.14766   2.16315
 Alpha virt. eigenvalues --    2.17783   2.19883   2.20531   2.21713   2.23634
 Alpha virt. eigenvalues --    2.24207   2.24362   2.26678   2.29265   2.30722
 Alpha virt. eigenvalues --    2.31690   2.32411   2.33053   2.35531   2.36361
 Alpha virt. eigenvalues --    2.38385   2.39238   2.41398   2.42768   2.46137
 Alpha virt. eigenvalues --    2.47358   2.48724   2.50465   2.52005   2.54747
 Alpha virt. eigenvalues --    2.56097   2.57542   2.60041   2.61468   2.66524
 Alpha virt. eigenvalues --    2.72207   2.80293   2.83473   2.86972   2.89107
 Alpha virt. eigenvalues --    2.90211   2.95568   2.96900   3.00557   3.04481
 Alpha virt. eigenvalues --    3.11260   3.13352   3.23654   3.28736   3.34865
 Alpha virt. eigenvalues --    3.42405   3.53086   3.54809   3.61279   3.75335
 Alpha virt. eigenvalues --    3.76404   3.79253   3.85850   3.87664   4.20662
 Alpha virt. eigenvalues --    4.27049   4.44208
          Condensed to atoms (all electrons):
               1          2          3          4          5          6
     1  C    6.377138  -0.707460  -0.548704   0.289230  -0.226663   0.230839
     2  C   -0.707460  10.635355  -1.766398   0.059400  -0.845163   0.079187
     3  C   -0.548704  -1.766398  10.961226  -1.167682   0.220787   0.078839
     4  C    0.289230   0.059400  -1.167682   6.845628   0.286730  -0.144686
     5  S   -0.226663  -0.845163   0.220787   0.286730  16.206277  -0.148149
     6  H    0.230839   0.079187   0.078839  -0.144686  -0.148149   1.279493
     7  C    0.429051  -1.087983  -1.505053  -0.036157   0.003586  -0.011049
     8  S   -0.025938  -0.140570  -0.367530   0.001835   0.237833   0.002678
     9  C    0.055538  -0.087909  -0.351958  -0.017458   0.057131  -0.000067
    10  C   -0.055038   0.023641   0.636436   0.017350   0.020023   0.001498
    11  C   -0.021883   0.356495  -0.814613  -0.075982  -0.329834  -0.000999
    12  H    0.019442  -0.004456   0.050971   0.000050   0.005201   0.000776
    13  S   -0.002470   0.021056  -0.095253  -0.000312  -0.000706  -0.000092
    14  C    0.000205  -0.016807   0.018936   0.000543   0.005446   0.000064
    15  C    0.004416  -0.028183  -0.352689  -0.006980   0.017857  -0.000396
    16  H    0.000016  -0.000146  -0.000869  -0.000002   0.000133   0.000002
    17  H   -0.000197  -0.000348  -0.008886  -0.000168   0.001413  -0.000008
    18  H   -0.008364  -0.572237   0.459947  -0.025730   0.022227  -0.001343
    19  O   -0.238833  -0.065703   0.097010  -0.113959  -0.012608  -0.008334
    20  H   -0.039976  -0.058466  -0.033826   0.009609   0.004930  -0.006396
               7          8          9         10         11         12
     1  C    0.429051  -0.025938   0.055538  -0.055038  -0.021883   0.019442
     2  C   -1.087983  -0.140570  -0.087909   0.023641   0.356495  -0.004456
     3  C   -1.505053  -0.367530  -0.351958   0.636436  -0.814613   0.050971
     4  C   -0.036157   0.001835  -0.017458   0.017350  -0.075982   0.000050
     5  S    0.003586   0.237833   0.057131   0.020023  -0.329834   0.005201
     6  H   -0.011049   0.002678  -0.000067   0.001498  -0.000999   0.000776
     7  C   11.918310   0.303599  -0.215521  -0.377652  -3.507754   0.453280
     8  S    0.303599  16.557878   0.378680  -0.554157  -0.642721   0.029543
     9  C   -0.215521   0.378680  10.874242  -0.859730  -1.132803  -0.074727
    10  C   -0.377652  -0.554157  -0.859730  12.500733  -3.481850   0.539276
    11  C   -3.507754  -0.642721  -1.132803  -3.481850  16.439682  -1.180372
    12  H    0.453280   0.029543  -0.074727   0.539276  -1.180372   1.672634
    13  S   -0.301603   0.113899  -0.020400  -0.421277   0.144364  -0.045757
    14  C    0.057995  -0.121061  -0.217926  -0.975949  -0.077233   0.013909
    15  C   -0.437931  -0.209888  -2.236838  -0.921159   0.171746  -0.023833
    16  H    0.004536   0.012101   0.100476  -0.072853   0.029744   0.001568
    17  H    0.092765   0.022028   0.539436   0.062542  -0.060347  -0.000268
    18  H   -0.097674  -0.008010  -0.006163   0.027278   0.064844  -0.022020
    19  O    0.007449   0.003002  -0.000225   0.001070   0.001526   0.001258
    20  H   -0.001215   0.000614   0.000998  -0.001788   0.001026   0.000143
              13         14         15         16         17         18
     1  C   -0.002470   0.000205   0.004416   0.000016  -0.000197  -0.008364
     2  C    0.021056  -0.016807  -0.028183  -0.000146  -0.000348  -0.572237
     3  C   -0.095253   0.018936  -0.352689  -0.000869  -0.008886   0.459947
     4  C   -0.000312   0.000543  -0.006980  -0.000002  -0.000168  -0.025730
     5  S   -0.000706   0.005446   0.017857   0.000133   0.001413   0.022227
     6  H   -0.000092   0.000064  -0.000396   0.000002  -0.000008  -0.001343
     7  C   -0.301603   0.057995  -0.437931   0.004536   0.092765  -0.097674
     8  S    0.113899  -0.121061  -0.209888   0.012101   0.022028  -0.008010
     9  C   -0.020400  -0.217926  -2.236838   0.100476   0.539436  -0.006163
    10  C   -0.421277  -0.975949  -0.921159  -0.072853   0.062542   0.027278
    11  C    0.144364  -0.077233   0.171746   0.029744  -0.060347   0.064844
    12  H   -0.045757   0.013909  -0.023833   0.001568  -0.000268  -0.022020
    13  S   16.013468   0.191326  -0.048422  -0.159870  -0.002882   0.000611
    14  C    0.191326   6.922697   0.195262   0.195026  -0.123100  -0.000975
    15  C   -0.048422   0.195262   9.848823   0.042770  -0.557001  -0.002480
    16  H   -0.159870   0.195026   0.042770   1.295435  -0.069288   0.000032
    17  H   -0.002882  -0.123100  -0.557001  -0.069288   1.423257   0.000098
    18  H    0.000611  -0.000975  -0.002480   0.000032   0.000098   1.794480
    19  O    0.000066  -0.000004   0.000058   0.000000   0.000015  -0.063420
    20  H   -0.000047  -0.000013   0.000217  -0.000000   0.000006  -0.012835
              19         20
     1  C   -0.238833  -0.039976
     2  C   -0.065703  -0.058466
     3  C    0.097010  -0.033826
     4  C   -0.113959   0.009609
     5  S   -0.012608   0.004930
     6  H   -0.008334  -0.006396
     7  C    0.007449  -0.001215
     8  S    0.003002   0.000614
     9  C   -0.000225   0.000998
    10  C    0.001070  -0.001788
    11  C    0.001526   0.001026
    12  H    0.001258   0.000143
    13  S    0.000066  -0.000047
    14  C   -0.000004  -0.000013
    15  C    0.000058   0.000217
    16  H    0.000000  -0.000000
    17  H    0.000015   0.000006
    18  H   -0.063420  -0.012835
    19  O    8.886997   0.349448
    20  H    0.349448   0.655685
 Mulliken charges:
               1
     1  C    0.469650
     2  C    0.206694
     3  C    0.489308
     4  C    0.078742
     5  S    0.473549
     6  H   -0.351857
     7  C    0.309020
     8  S    0.406186
     9  C   -0.784777
    10  C   -0.108394
    11  C    0.116963
    12  H   -0.436620
    13  S    0.614301
    14  C   -0.068341
    15  C    0.544650
    16  H   -0.378812
    17  H   -0.319068
    18  H   -0.548266
    19  O   -0.844813
    20  H    0.131886
 Sum of Mulliken charges =  -0.00000
 Mulliken charges with hydrogens summed into heavy atoms:
               1
     1  C    0.469650
     2  C   -0.341572
     3  C    0.489308
     4  C   -0.273116
     5  S    0.473549
     7  C    0.309020
     8  S    0.406186
     9  C   -0.784777
    10  C   -0.108394
    11  C   -0.319656
    13  S    0.614301
    14  C   -0.447153
    15  C    0.225582
    19  O   -0.712927
 Electronic spatial extent (au):  <R**2>=           4764.3113
 Charge=             -0.0000 electrons
 Dipole moment (field-independent basis, Debye):
    X=             -1.2513    Y=              1.4426    Z=             -0.9189  Tot=              2.1193
 Quadrupole moment (field-independent basis, Debye-Ang):
   XX=            -96.8170   YY=            -96.0499   ZZ=           -106.9674
   XY=              6.5956   XZ=              0.0640   YZ=             -1.8235
 Traceless Quadrupole moment (field-independent basis, Debye-Ang):
   XX=              3.1278   YY=              3.8949   ZZ=             -7.0226
   XY=              6.5956   XZ=              0.0640   YZ=             -1.8235
 Octapole moment (field-independent basis, Debye-Ang**2):
  XXX=            -76.9152  YYY=             22.9049  ZZZ=             -5.4193  XYY=             22.6585
  XXY=            -20.9649  XXZ=             -8.3479  XZZ=             16.0224  YZZ=              6.4794
  YYZ=            -10.1735  XYZ=            -23.0150
 Hexadecapole moment (field-independent basis, Debye-Ang**3):
 XXXX=          -5189.8052 YYYY=           -796.1939 ZZZZ=           -287.7103 XXXY=            -10.5214
 XXXZ=             58.6266 YYYX=            117.0252 YYYZ=            -18.8119 ZZZX=            -27.0193
 ZZZY=            -12.9366 XXYY=           -964.9458 XXZZ=           -987.6502 YYZZ=           -174.7228
 XXYZ=            -43.8360 YYXZ=            -28.2803 ZZXY=             30.6251
 N-N= 1.109148704573D+03 E-N=-6.125186714425D+03  KE= 1.649572545348D+03
 Unable to Open any file for archive entry.
 1\1\GINC-CX3-12-25\FOpt\RHF\Aug-CC-pVDZ\C10H6O1S3\NS5018\27-Oct-2021\0
 \\# opt=modredundant hf/aug-cc-pvdz\\pg2T_TT_130.pdb\\0,1\C,-4.2135683
 176,-1.2380387623,-0.3017585259\C,-2.8625705661,-1.0707452806,-0.76093
 9937\C,-2.1414847145,-2.2143875052,-0.6908209073\C,-4.4815118311,-2.49
 05332368,0.1179978452\S,-3.094576377,-3.5178449373,-0.0523299596\H,-5.
 4089371975,-2.8642043867,0.5136480243\C,-0.7399203766,-2.3969731725,-1
 .0891001999\S,0.4137142852,-3.1620560489,-0.0059471398\C,1.6843249413,
 -2.9471037904,-1.1698877726\C,1.2247641747,-2.3209701711,-2.2915501461
 \C,-0.1722797532,-2.0067660908,-2.2537616837\H,-0.7243007776,-1.540224
 4867,-3.0529530436\S,2.4961184691,-2.1098144565,-3.456459825\C,3.63231
 43279,-2.881572965,-2.3812495499\C,3.0805858531,-3.275256978,-1.214579
 5532\H,4.6582372905,-2.9974636901,-2.6871133146\H,3.6263810382,-3.7697
 643461,-0.427803272\H,-2.4540321508,-0.1321381359,-1.1035332909\O,-5.1
 309777823,-0.2446172635,-0.2752268763\H,-4.7582805359,0.5664757043,-0.
 5766308721\\Version=ES64L-G16RevC.01\State=1-A\HF=-1649.6428742\RMSD=7
 .486e-09\RMSF=1.707e-04\Dipole=0.5090244,0.5968083,-0.2826768\Quadrupo
 le=2.6491726,1.483023,-4.1321957,-4.8316786,1.0539996,-2.9682784\PG=C0
 1 [X(C10H6O1S3)]\\@
 The archive entry for this job was punched.


 MY GROUP MEETINGS AREN'T VERY STRUCTURED.
     -- PROF. M. S. GORDON, OCT. 5, 1984
 Job cpu time:       0 days  4 hours 19 minutes 31.7 seconds.
 Elapsed time:       0 days  0 hours 32 minutes 39.9 seconds.
 File lengths (MBytes):  RWF=     95 Int=      0 D2E=      0 Chk=     12 Scr=      1
 Normal termination of Gaussian 16 at Wed Oct 27 03:59:59 2021.
