 Entering Gaussian System, Link 0=g03
 Input=gT2_Oanglescan.gjf
 Output=gT2_Oanglescan.log
 Initial command:
 /apps/gaussian/g16-a03/l1.exe "/tmp/pbs.362115.pbs/Gau-32719.inp" -scrdir="/tmp/pbs.362115.pbs/"
 Entering Link 1 = /apps/gaussian/g16-a03/l1.exe PID=     32721.
  
 Copyright (c) 1988,1990,1992,1993,1995,1998,2003,2009,2016,
            Gaussian, Inc.  All Rights Reserved.
  
 This is part of the Gaussian(R) 16 program.  It is based on
 the Gaussian(R) 09 system (copyright 2009, Gaussian, Inc.),
 the Gaussian(R) 03 system (copyright 2003, Gaussian, Inc.),
 the Gaussian(R) 98 system (copyright 1998, Gaussian, Inc.),
 the Gaussian(R) 94 system (copyright 1995, Gaussian, Inc.),
 the Gaussian 92(TM) system (copyright 1992, Gaussian, Inc.),
 the Gaussian 90(TM) system (copyright 1990, Gaussian, Inc.),
 the Gaussian 88(TM) system (copyright 1988, Gaussian, Inc.),
 the Gaussian 86(TM) system (copyright 1986, Carnegie Mellon
 University), and the Gaussian 82(TM) system (copyright 1983,
 Carnegie Mellon University). Gaussian is a federally registered
 trademark of Gaussian, Inc.
  
 This software contains proprietary and confidential information,
 including trade secrets, belonging to Gaussian, Inc.
  
 This software is provided under written license and may be
 used, copied, transmitted, or stored only in accord with that
 written license.
  
 The following legend is applicable only to US Government
 contracts under FAR:
  
                    RESTRICTED RIGHTS LEGEND
  
 Use, reproduction and disclosure by the US Government is
 subject to restrictions as set forth in subparagraphs (a)
 and (c) of the Commercial Computer Software - Restricted
 Rights clause in FAR 52.227-19.
  
 Gaussian, Inc.
 340 Quinnipiac St., Bldg. 40, Wallingford CT 06492
  
  
 ---------------------------------------------------------------
 Warning -- This program may not be used in any manner that
 competes with the business of Gaussian, Inc. or will provide
 assistance to any competitor of Gaussian, Inc.  The licensee
 of this program is prohibited from giving any competitor of
 Gaussian, Inc. access to this program.  By using this program,
 the user acknowledges that Gaussian, Inc. is engaged in the
 business of creating and licensing software in the field of
 computational chemistry and represents and warrants to the
 licensee that it is not a competitor of Gaussian, Inc. and that
 it will not use this program in any manner prohibited above.
 ---------------------------------------------------------------
  

 Cite this work as:
 Gaussian 16, Revision A.03,
 M. J. Frisch, G. W. Trucks, H. B. Schlegel, G. E. Scuseria, 
 M. A. Robb, J. R. Cheeseman, G. Scalmani, V. Barone, 
 G. A. Petersson, H. Nakatsuji, X. Li, M. Caricato, A. V. Marenich, 
 J. Bloino, B. G. Janesko, R. Gomperts, B. Mennucci, H. P. Hratchian, 
 J. V. Ortiz, A. F. Izmaylov, J. L. Sonnenberg, D. Williams-Young, 
 F. Ding, F. Lipparini, F. Egidi, J. Goings, B. Peng, A. Petrone, 
 T. Henderson, D. Ranasinghe, V. G. Zakrzewski, J. Gao, N. Rega, 
 G. Zheng, W. Liang, M. Hada, M. Ehara, K. Toyota, R. Fukuda, 
 J. Hasegawa, M. Ishida, T. Nakajima, Y. Honda, O. Kitao, H. Nakai, 
 T. Vreven, K. Throssell, J. A. Montgomery, Jr., J. E. Peralta, 
 F. Ogliaro, M. J. Bearpark, J. J. Heyd, E. N. Brothers, K. N. Kudin, 
 V. N. Staroverov, T. A. Keith, R. Kobayashi, J. Normand, 
 K. Raghavachari, A. P. Rendell, J. C. Burant, S. S. Iyengar, 
 J. Tomasi, M. Cossi, J. M. Millam, M. Klene, C. Adamo, R. Cammi, 
 J. W. Ochterski, R. L. Martin, K. Morokuma, O. Farkas, 
 J. B. Foresman, and D. J. Fox, Gaussian, Inc., Wallingford CT, 2016.
 
 ******************************************
 Gaussian 16:  ES64L-G16RevA.03 25-Dec-2016
                15-Jul-2019 
 ******************************************
 %mem=10GB
 %nprocshared=8
 Will use up to    8 processors via shared memory.
 %chk=gT2_Oanglescan.chk
 -------------------------------------------------------
 # opt=modredundant b3lyp/6-311+g(d,p) geom=connectivity
 -------------------------------------------------------
 1/18=120,19=15,26=3,38=1,57=2/1,3;
 2/9=110,12=2,17=6,18=5,40=1/2;
 3/5=4,6=6,7=111,11=2,25=1,30=1,71=1,74=-5/1,2,3;
 4//1;
 5/5=2,38=5/2;
 6/7=2,8=2,9=2,10=2,28=1/1;
 7//1,2,3,16;
 1/18=20,19=15,26=3/3(2);
 2/9=110/2;
 99//99;
 2/9=110/2;
 3/5=4,6=6,7=111,11=2,25=1,30=1,71=1,74=-5/1,2,3;
 4/5=5,16=3,69=1/1;
 5/5=2,38=5/2;
 7//1,2,3,16;
 1/18=20,19=15,26=3/3(-5);
 2/9=110/2;
 6/7=2,8=2,9=2,10=2,19=2,28=1/1;
 99/9=1/99;
 -------------------
 Title Card Required
 -------------------
 Symbolic Z-matrix:
 Charge =  0 Multiplicity = 1
 C                    -0.59366  -0.41063  -0.00009 
 C                    -1.91734   0.00391  -0.00003 
 C                    -2.86398  -1.05921  -0.00001 
 C                    -2.25936  -2.2846   -0.0001 
 S                    -0.53724  -2.16837  -0.00024 
 H                    -3.93604  -0.92509   0.00005 
 H                    -2.73094  -3.25516  -0.00012 
 C                     0.59366   0.41063  -0.00009 
 C                     1.91734  -0.00391  -0.00002 
 S                     0.53724   2.16837  -0.00025 
 C                     2.86398   1.05921  -0.00001 
 C                     2.25936   2.2846   -0.0001 
 H                     3.93604   0.92509   0.00006 
 H                     2.73094   3.25516  -0.00012 
 O                    -2.20249   1.33737   0.00001 
 O                     2.20249  -1.33737   0.00002 
 C                     3.56951  -1.7273    0.00052 
 H                     4.08546  -1.36398   0.89555 
 H                     3.57058  -2.81592   0.00067 
 H                     4.08605  -1.36423  -0.89427 
 C                    -3.56951   1.7273    0.00054 
 H                    -4.08544   1.36397   0.89557 
 H                    -3.57058   2.81592   0.00069 
 H                    -4.08607   1.36423  -0.89424 
 
 The following ModRedundant input section has been read:
 A       1       2      15 S  15 0.2500                                        
 

 GradGradGradGradGradGradGradGradGradGradGradGradGradGradGradGradGradGrad
 Berny optimization.
 Initialization pass.
                           ----------------------------
                           !    Initial Parameters    !
                           ! (Angstroms and Degrees)  !
 --------------------------                            --------------------------
 ! Name  Definition              Value          Derivative Info.                !
 --------------------------------------------------------------------------------
 ! R1    R(1,2)                  1.3871         estimate D2E/DX2                !
 ! R2    R(1,5)                  1.7586         estimate D2E/DX2                !
 ! R3    R(1,8)                  1.4437         estimate D2E/DX2                !
 ! R4    R(2,3)                  1.4235         estimate D2E/DX2                !
 ! R5    R(2,15)                 1.3636         estimate D2E/DX2                !
 ! R6    R(3,4)                  1.3664         estimate D2E/DX2                !
 ! R7    R(3,6)                  1.0804         estimate D2E/DX2                !
 ! R8    R(4,5)                  1.726          estimate D2E/DX2                !
 ! R9    R(4,7)                  1.0791         estimate D2E/DX2                !
 ! R10   R(8,9)                  1.3871         estimate D2E/DX2                !
 ! R11   R(8,10)                 1.7586         estimate D2E/DX2                !
 ! R12   R(9,11)                 1.4235         estimate D2E/DX2                !
 ! R13   R(9,16)                 1.3636         estimate D2E/DX2                !
 ! R14   R(10,12)                1.726          estimate D2E/DX2                !
 ! R15   R(11,12)                1.3664         estimate D2E/DX2                !
 ! R16   R(11,13)                1.0804         estimate D2E/DX2                !
 ! R17   R(12,14)                1.0791         estimate D2E/DX2                !
 ! R18   R(15,21)                1.4215         estimate D2E/DX2                !
 ! R19   R(16,17)                1.4215         estimate D2E/DX2                !
 ! R20   R(17,18)                1.0951         estimate D2E/DX2                !
 ! R21   R(17,19)                1.0886         estimate D2E/DX2                !
 ! R22   R(17,20)                1.0951         estimate D2E/DX2                !
 ! R23   R(21,22)                1.0951         estimate D2E/DX2                !
 ! R24   R(21,23)                1.0886         estimate D2E/DX2                !
 ! R25   R(21,24)                1.0951         estimate D2E/DX2                !
 ! A1    A(2,1,5)              109.228          estimate D2E/DX2                !
 ! A2    A(2,1,8)              127.9393         estimate D2E/DX2                !
 ! A3    A(5,1,8)              122.8328         estimate D2E/DX2                !
 ! A4    A(1,2,3)              114.2937         estimate D2E/DX2                !
 ! A5    A(1,2,15)             119.46           Scan                            !
 ! A6    A(3,2,15)             126.2463         estimate D2E/DX2                !
 ! A7    A(2,3,4)              112.0548         estimate D2E/DX2                !
 ! A8    A(2,3,6)              124.5521         estimate D2E/DX2                !
 ! A9    A(4,3,6)              123.3931         estimate D2E/DX2                !
 ! A10   A(3,4,5)              112.4009         estimate D2E/DX2                !
 ! A11   A(3,4,7)              127.8234         estimate D2E/DX2                !
 ! A12   A(5,4,7)              119.7757         estimate D2E/DX2                !
 ! A13   A(1,5,4)               92.0227         estimate D2E/DX2                !
 ! A14   A(1,8,9)              127.9393         estimate D2E/DX2                !
 ! A15   A(1,8,10)             122.8328         estimate D2E/DX2                !
 ! A16   A(9,8,10)             109.228          estimate D2E/DX2                !
 ! A17   A(8,9,11)             114.2937         estimate D2E/DX2                !
 ! A18   A(8,9,16)             119.46           estimate D2E/DX2                !
 ! A19   A(11,9,16)            126.2463         estimate D2E/DX2                !
 ! A20   A(8,10,12)             92.0227         estimate D2E/DX2                !
 ! A21   A(9,11,12)            112.0548         estimate D2E/DX2                !
 ! A22   A(9,11,13)            124.5521         estimate D2E/DX2                !
 ! A23   A(12,11,13)           123.3931         estimate D2E/DX2                !
 ! A24   A(10,12,11)           112.4009         estimate D2E/DX2                !
 ! A25   A(10,12,14)           119.7757         estimate D2E/DX2                !
 ! A26   A(11,12,14)           127.8234         estimate D2E/DX2                !
 ! A27   A(2,15,21)            117.9908         estimate D2E/DX2                !
 ! A28   A(9,16,17)            117.9908         estimate D2E/DX2                !
 ! A29   A(16,17,18)           111.2449         estimate D2E/DX2                !
 ! A30   A(16,17,19)           105.9768         estimate D2E/DX2                !
 ! A31   A(16,17,20)           111.2452         estimate D2E/DX2                !
 ! A32   A(18,17,19)           109.3408         estimate D2E/DX2                !
 ! A33   A(18,17,20)           109.6069         estimate D2E/DX2                !
 ! A34   A(19,17,20)           109.3403         estimate D2E/DX2                !
 ! A35   A(15,21,22)           111.2449         estimate D2E/DX2                !
 ! A36   A(15,21,23)           105.9768         estimate D2E/DX2                !
 ! A37   A(15,21,24)           111.2452         estimate D2E/DX2                !
 ! A38   A(22,21,23)           109.3409         estimate D2E/DX2                !
 ! A39   A(22,21,24)           109.6069         estimate D2E/DX2                !
 ! A40   A(23,21,24)           109.3402         estimate D2E/DX2                !
 ! D1    D(5,1,2,3)              0.0042         estimate D2E/DX2                !
 ! D2    D(5,1,2,15)          -179.9959         estimate D2E/DX2                !
 ! D3    D(8,1,2,3)           -179.9984         estimate D2E/DX2                !
 ! D4    D(8,1,2,15)             0.0015         estimate D2E/DX2                !
 ! D5    D(2,1,5,4)             -0.0042         estimate D2E/DX2                !
 ! D6    D(8,1,5,4)            179.9983         estimate D2E/DX2                !
 ! D7    D(2,1,8,9)            179.9937         estimate D2E/DX2                !
 ! D8    D(2,1,8,10)            -0.0091         estimate D2E/DX2                !
 ! D9    D(5,1,8,9)             -0.0093         estimate D2E/DX2                !
 ! D10   D(5,1,8,10)           179.9879         estimate D2E/DX2                !
 ! D11   D(1,2,3,4)             -0.0018         estimate D2E/DX2                !
 ! D12   D(1,2,3,6)            179.9988         estimate D2E/DX2                !
 ! D13   D(15,2,3,4)           179.9983         estimate D2E/DX2                !
 ! D14   D(15,2,3,6)            -0.0011         estimate D2E/DX2                !
 ! D15   D(1,2,15,21)         -179.9784         estimate D2E/DX2                !
 ! D16   D(3,2,15,21)            0.0215         estimate D2E/DX2                !
 ! D17   D(2,3,4,5)             -0.0015         estimate D2E/DX2                !
 ! D18   D(2,3,4,7)           -179.9988         estimate D2E/DX2                !
 ! D19   D(6,3,4,5)            179.9978         estimate D2E/DX2                !
 ! D20   D(6,3,4,7)              0.0006         estimate D2E/DX2                !
 ! D21   D(3,4,5,1)              0.0033         estimate D2E/DX2                !
 ! D22   D(7,4,5,1)           -179.9992         estimate D2E/DX2                !
 ! D23   D(1,8,9,11)          -179.9983         estimate D2E/DX2                !
 ! D24   D(1,8,9,16)             0.0014         estimate D2E/DX2                !
 ! D25   D(10,8,9,11)            0.0041         estimate D2E/DX2                !
 ! D26   D(10,8,9,16)         -179.9961         estimate D2E/DX2                !
 ! D27   D(1,8,10,12)          179.9982         estimate D2E/DX2                !
 ! D28   D(9,8,10,12)           -0.0042         estimate D2E/DX2                !
 ! D29   D(8,9,11,12)           -0.0018         estimate D2E/DX2                !
 ! D30   D(8,9,11,13)          179.9988         estimate D2E/DX2                !
 ! D31   D(16,9,11,12)         179.9985         estimate D2E/DX2                !
 ! D32   D(16,9,11,13)          -0.001          estimate D2E/DX2                !
 ! D33   D(8,9,16,17)         -179.9802         estimate D2E/DX2                !
 ! D34   D(11,9,16,17)           0.0196         estimate D2E/DX2                !
 ! D35   D(8,10,12,11)           0.0033         estimate D2E/DX2                !
 ! D36   D(8,10,12,14)        -179.9992         estimate D2E/DX2                !
 ! D37   D(9,11,12,10)          -0.0015         estimate D2E/DX2                !
 ! D38   D(9,11,12,14)        -179.9988         estimate D2E/DX2                !
 ! D39   D(13,11,12,10)        179.9979         estimate D2E/DX2                !
 ! D40   D(13,11,12,14)          0.0007         estimate D2E/DX2                !
 ! D41   D(2,15,21,22)          61.2425         estimate D2E/DX2                !
 ! D42   D(2,15,21,23)         179.9882         estimate D2E/DX2                !
 ! D43   D(2,15,21,24)         -61.2668         estimate D2E/DX2                !
 ! D44   D(9,16,17,18)          61.2435         estimate D2E/DX2                !
 ! D45   D(9,16,17,19)         179.9891         estimate D2E/DX2                !
 ! D46   D(9,16,17,20)         -61.2658         estimate D2E/DX2                !
 --------------------------------------------------------------------------------
 Trust Radius=3.00D-01 FncErr=1.00D-07 GrdErr=1.00D-06 EigMax=2.50D+02 EigMin=1.00D-04
 Number of optimizations in scan=  16
 Number of steps in this run=    121 maximum allowed number of steps=    144.
 GradGradGradGradGradGradGradGradGradGradGradGradGradGradGradGradGradGrad

                          Input orientation:                          
 ---------------------------------------------------------------------
 Center     Atomic      Atomic             Coordinates (Angstroms)
 Number     Number       Type             X           Y           Z
 ---------------------------------------------------------------------
      1          6           0       -0.593663   -0.410632   -0.000087
      2          6           0       -1.917339    0.003914   -0.000030
      3          6           0       -2.863983   -1.059207   -0.000012
      4          6           0       -2.259364   -2.284600   -0.000096
      5         16           0       -0.537240   -2.168368   -0.000240
      6          1           0       -3.936038   -0.925086    0.000049
      7          1           0       -2.730943   -3.255156   -0.000122
      8          6           0        0.593663    0.410632   -0.000087
      9          6           0        1.917339   -0.003914   -0.000023
     10         16           0        0.537240    2.168368   -0.000245
     11          6           0        2.863983    1.059207   -0.000005
     12          6           0        2.259364    2.284600   -0.000095
     13          1           0        3.936038    0.925086    0.000062
     14          1           0        2.730943    3.255156   -0.000122
     15          8           0       -2.202491    1.337369    0.000005
     16          8           0        2.202491   -1.337369    0.000021
     17          6           0        3.569508   -1.727296    0.000521
     18          1           0        4.085463   -1.363977    0.895548
     19          1           0        3.570583   -2.815916    0.000668
     20          1           0        4.086051   -1.364228   -0.894268
     21          6           0       -3.569508    1.727296    0.000536
     22          1           0       -4.085443    1.363973    0.895572
     23          1           0       -3.570583    2.815916    0.000686
     24          1           0       -4.086071    1.364232   -0.894244
 ---------------------------------------------------------------------
                    Distance matrix (angstroms):
                    1          2          3          4          5
     1  C    0.000000
     2  C    1.387071   0.000000
     3  C    2.361144   1.423503   0.000000
     4  C    2.507253   2.313931   1.366438   0.000000
     5  S    1.758641   2.573613   2.577590   1.726042   0.000000
     6  H    3.381735   2.222203   1.080412   2.158591   3.619058
     7  H    3.557989   3.359090   2.199975   1.079058   2.448151
     8  C    1.443682   2.543728   3.757092   3.924798   2.816058
     9  C    2.543728   3.834686   4.896395   4.758821   3.272586
    10  S    2.816058   3.272586   4.688876   5.258319   4.467862
    11  C    3.757092   4.896395   6.107149   6.117984   4.688876
    12  C    3.924798   4.758821   6.117984   6.426235   5.258319
    13  H    4.722535   5.925418   7.083622   6.977470   5.438720
    14  H    4.948839   5.672486   7.065191   7.456008   6.332111
    15  O    2.375676   1.363603   2.486192   3.622415   3.881141
    16  O    2.945729   4.332671   5.074104   4.561293   2.862985
    17  C    4.366417   5.753484   6.468087   5.855454   4.130366
    18  H    4.858523   6.221480   7.013538   6.473527   4.776909
    19  H    4.808985   6.169986   6.670057   5.854108   4.158549
    20  H    4.858871   6.221910   7.013965   6.473864   4.777107
    21  C    3.664204   2.387406   2.874433   4.220401   4.936684
    22  H    4.017954   2.711556   2.857593   4.177185   5.086222
    23  H    4.390064   3.261989   3.939018   5.266361   5.834746
    24  H    4.018280   2.711730   2.857658   4.177360   5.086522
                    6          7          8          9         10
     6  H    0.000000
     7  H    2.623258   0.000000
     8  C    4.722535   4.948839   0.000000
     9  C    5.925418   5.672486   1.387071   0.000000
    10  S    5.438720   6.332111   1.758641   2.573613   0.000000
    11  C    7.083622   7.065191   2.361144   1.423503   2.577590
    12  C    6.977470   7.456008   2.507253   2.313931   1.726042
    13  H    8.086576   7.869121   3.381735   2.222203   3.619058
    14  H    7.869121   8.498021   3.557989   3.359090   2.448151
    15  O    2.850243   4.622829   2.945729   4.332671   2.862985
    16  O    6.152359   5.293078   2.375676   1.363603   3.881141
    17  C    7.548295   6.483058   3.664204   2.387406   4.936684
    18  H    8.083256   7.130370   4.017968   2.711564   5.086236
    19  H    7.741098   6.316816   4.390064   3.261989   5.834746
    20  H    8.083722   7.130674   4.018266   2.711723   5.086509
    21  C    2.677587   5.052526   4.366417   5.753484   4.130366
    22  H    2.462534   4.896253   4.858508   6.221463   4.776896
    23  H    3.758810   6.128859   4.808985   6.169986   4.158549
    24  H    2.462366   4.896384   4.858887   6.221928   4.777120
                   11         12         13         14         15
    11  C    0.000000
    12  C    1.366438   0.000000
    13  H    1.080412   2.158591   0.000000
    14  H    2.199975   1.079058   2.623258   0.000000
    15  O    5.074104   4.561293   6.152359   5.293078   0.000000
    16  O    2.486192   3.622415   2.850243   4.622829   5.153454
    17  C    2.874433   4.220401   2.677587   5.052526   6.535147
    18  H    2.857595   4.177191   2.462526   4.896258   6.902002
    19  H    3.939018   5.266361   3.758810   6.128859   7.111832
    20  H    2.857655   4.177353   2.462375   4.896379   6.902471
    21  C    6.468087   5.855454   7.548295   6.483058   1.421541
    22  H    7.013520   6.473511   8.083237   7.130355   2.085247
    23  H    6.670057   5.854108   7.741098   6.316816   2.014393
    24  H    7.013983   6.473880   8.083741   7.130689   2.085252
                   16         17         18         19         20
    16  O    0.000000
    17  C    1.421541   0.000000
    18  H    2.085248   1.095118   0.000000
    19  H    2.014393   1.088621   1.781583   0.000000
    20  H    2.085251   1.095118   1.789816   1.781577   0.000000
    21  C    6.535147   7.930937   8.303951   8.462959   8.304564
    22  H    6.901983   8.303935   8.614257   8.768527   8.798859
    23  H    7.111832   8.462959   8.768542   9.094712   8.769184
    24  H    6.902490   8.304579   8.798889   8.769199   8.615571
                   21         22         23         24
    21  C    0.000000
    22  H    1.095117   0.000000
    23  H    1.088621   1.781584   0.000000
    24  H    1.095118   1.789816   1.781576   0.000000
 Stoichiometry    C10H10O2S2
 Framework group  C1[X(C10H10O2S2)]
 Deg. of freedom    66
 Full point group                 C1      NOp   1
 Largest Abelian subgroup         C1      NOp   1
 Largest concise Abelian subgroup C1      NOp   1
                         Standard orientation:                         
 ---------------------------------------------------------------------
 Center     Atomic      Atomic             Coordinates (Angstroms)
 Number     Number       Type             X           Y           Z
 ---------------------------------------------------------------------
      1          6           0       -0.593663   -0.410632   -0.000087
      2          6           0       -1.917339    0.003914   -0.000030
      3          6           0       -2.863983   -1.059207   -0.000012
      4          6           0       -2.259364   -2.284600   -0.000096
      5         16           0       -0.537240   -2.168368   -0.000240
      6          1           0       -3.936038   -0.925086    0.000049
      7          1           0       -2.730943   -3.255156   -0.000122
      8          6           0        0.593663    0.410632   -0.000087
      9          6           0        1.917339   -0.003914   -0.000023
     10         16           0        0.537240    2.168368   -0.000245
     11          6           0        2.863983    1.059207   -0.000005
     12          6           0        2.259364    2.284600   -0.000095
     13          1           0        3.936038    0.925086    0.000062
     14          1           0        2.730943    3.255156   -0.000122
     15          8           0       -2.202491    1.337369    0.000005
     16          8           0        2.202491   -1.337369    0.000021
     17          6           0        3.569508   -1.727296    0.000521
     18          1           0        4.085463   -1.363977    0.895548
     19          1           0        3.570583   -2.815916    0.000668
     20          1           0        4.086051   -1.364228   -0.894268
     21          6           0       -3.569508    1.727296    0.000536
     22          1           0       -4.085443    1.363973    0.895572
     23          1           0       -3.570583    2.815916    0.000686
     24          1           0       -4.086071    1.364232   -0.894244
 ---------------------------------------------------------------------
 Rotational constants (GHZ):           0.7961509           0.4865484           0.3031625
 Standard basis: 6-311+G(d,p) (5D, 7F)
 There are   398 symmetry adapted cartesian basis functions of A   symmetry.
 There are   384 symmetry adapted basis functions of A   symmetry.
   384 basis functions,   612 primitive gaussians,   398 cartesian basis functions
    59 alpha electrons       59 beta electrons
       nuclear repulsion energy      1105.8030505921 Hartrees.
 NAtoms=   24 NActive=   24 NUniq=   24 SFac= 1.00D+00 NAtFMM=   60 NAOKFM=F Big=F
 Integral buffers will be    131072 words long.
 Raffenetti 2 integral format.
 Two-electron integral symmetry is turned on.
 One-electron integrals computed using PRISM.
 NBasis=   384 RedAO= T EigKep=  1.04D-06  NBF=   384
 NBsUse=   382 1.00D-06 EigRej=  3.64D-07 NBFU=   382
 ExpMin= 4.05D-02 ExpMax= 9.34D+04 ExpMxC= 3.17D+03 IAcc=3 IRadAn=         5 AccDes= 0.00D+00
 Harris functional with IExCor=  402 and IRadAn=       5 diagonalized for initial guess.
 HarFok:  IExCor=  402 AccDes= 0.00D+00 IRadAn=         5 IDoV= 1 UseB2=F ITyADJ=14
 ICtDFT=  3500011 ScaDFX=  1.000000  1.000000  1.000000  1.000000
 FoFCou: FMM=F IPFlag=           0 FMFlag=      100000 FMFlg1=           0
         NFxFlg=           0 DoJE=T BraDBF=F KetDBF=T FulRan=T
         wScrn=  0.000000 ICntrl=       500 IOpCl=  0 I1Cent=   200000004 NGrid=           0
         NMat0=    1 NMatS0=      1 NMatT0=    0 NMatD0=    1 NMtDS0=    0 NMtDT0=    0
 Petite list used in FoFCou.
 Requested convergence on RMS density matrix=1.00D-08 within 128 cycles.
 Requested convergence on MAX density matrix=1.00D-06.
 Requested convergence on             energy=1.00D-06.
 No special actions if energy rises.
 SCF Done:  E(RB3LYP) =  -1334.05172732     A.U. after   14 cycles
            NFock= 14  Conv=0.54D-08     -V/T= 2.0025

 **********************************************************************

            Population analysis using the SCF density.

 **********************************************************************

 Orbital symmetries:
       Occupied  (A) (A) (A) (A) (A) (A) (A) (A) (A) (A) (A) (A)
                 (A) (A) (A) (A) (A) (A) (A) (A) (A) (A) (A) (A)
                 (A) (A) (A) (A) (A) (A) (A) (A) (A) (A) (A) (A)
                 (A) (A) (A) (A) (A) (A) (A) (A) (A) (A) (A) (A)
                 (A) (A) (A) (A) (A) (A) (A) (A) (A) (A) (A)
       Virtual   (A) (A) (A) (A) (A) (A) (A) (A) (A) (A) (A) (A)
                 (A) (A) (A) (A) (A) (A) (A) (A) (A) (A) (A) (A)
                 (A) (A) (A) (A) (A) (A) (A) (A) (A) (A) (A) (A)
                 (A) (A) (A) (A) (A) (A) (A) (A) (A) (A) (A) (A)
                 (A) (A) (A) (A) (A) (A) (A) (A) (A) (A) (A) (A)
                 (A) (A) (A) (A) (A) (A) (A) (A) (A) (A) (A) (A)
                 (A) (A) (A) (A) (A) (A) (A) (A) (A) (A) (A) (A)
                 (A) (A) (A) (A) (A) (A) (A) (A) (A) (A) (A) (A)
                 (A) (A) (A) (A) (A) (A) (A) (A) (A) (A) (A) (A)
                 (A) (A) (A) (A) (A) (A) (A) (A) (A) (A) (A) (A)
                 (A) (A) (A) (A) (A) (A) (A) (A) (A) (A) (A) (A)
                 (A) (A) (A) (A) (A) (A) (A) (A) (A) (A) (A) (A)
                 (A) (A) (A) (A) (A) (A) (A) (A) (A) (A) (A) (A)
                 (A) (A) (A) (A) (A) (A) (A) (A) (A) (A) (A) (A)
                 (A) (A) (A) (A) (A) (A) (A) (A) (A) (A) (A) (A)
                 (A) (A) (A) (A) (A) (A) (A) (A) (A) (A) (A) (A)
                 (A) (A) (A) (A) (A) (A) (A) (A) (A) (A) (A) (A)
                 (A) (A) (A) (A) (A) (A) (A) (A) (A) (A) (A) (A)
                 (A) (A) (A) (A) (A) (A) (A) (A) (A) (A) (A) (A)
                 (A) (A) (A) (A) (A) (A) (A) (A) (A) (A) (A) (A)
                 (A) (A) (A) (A) (A) (A) (A) (A) (A) (A) (A) (A)
                 (A) (A) (A) (A) (A) (A) (A) (A) (A) (A) (A) (A)
                 (A) (A) (A) (A) (A) (A) (A) (A) (A) (A) (A) (A)
                 (A) (A) (A) (A) (A) (A) (A) (A) (A) (A) (A) (A)
                 (A) (A) (A) (A) (A) (A) (A) (A) (A) (A) (A) (A)
                 (A) (A) (A) (A) (A) (A) (A) (A) (A) (A) (A) (A)
                 (A) (A) (A) (A) (A) (A) (A) (A) (A) (A) (A)
 The electronic state is 1-A.
 Alpha  occ. eigenvalues --  -88.87085 -88.87085 -19.15803 -19.15803 -10.23220
 Alpha  occ. eigenvalues --  -10.23219 -10.22946 -10.22946 -10.20404 -10.20366
 Alpha  occ. eigenvalues --  -10.19557 -10.19557 -10.17728 -10.17728  -7.95642
 Alpha  occ. eigenvalues --   -7.95642  -5.91951  -5.91951  -5.91563  -5.91563
 Alpha  occ. eigenvalues --   -5.91212  -5.91212  -1.07364  -1.07291  -0.88792
 Alpha  occ. eigenvalues --   -0.87018  -0.77168  -0.75492  -0.74078  -0.71769
 Alpha  occ. eigenvalues --   -0.69446  -0.67351  -0.59703  -0.58299  -0.55295
 Alpha  occ. eigenvalues --   -0.55149  -0.53651  -0.48434  -0.47734  -0.47496
 Alpha  occ. eigenvalues --   -0.47280  -0.45751  -0.44468  -0.44167  -0.41423
 Alpha  occ. eigenvalues --   -0.40784  -0.40525  -0.37918  -0.37569  -0.36265
 Alpha  occ. eigenvalues --   -0.35257  -0.33241  -0.32721  -0.32596  -0.32579
 Alpha  occ. eigenvalues --   -0.27462  -0.23810  -0.23511  -0.18419
 Alpha virt. eigenvalues --   -0.04011  -0.00033   0.00369   0.00606   0.01018
 Alpha virt. eigenvalues --    0.01478   0.02169   0.02882   0.02973   0.03679
 Alpha virt. eigenvalues --    0.03931   0.05056   0.05185   0.05216   0.05740
 Alpha virt. eigenvalues --    0.06221   0.06285   0.07092   0.07859   0.08019
 Alpha virt. eigenvalues --    0.08259   0.08910   0.09284   0.09327   0.09533
 Alpha virt. eigenvalues --    0.11595   0.12063   0.12143   0.12258   0.12405
 Alpha virt. eigenvalues --    0.13181   0.13736   0.14076   0.14488   0.15448
 Alpha virt. eigenvalues --    0.15639   0.15942   0.16086   0.16328   0.17114
 Alpha virt. eigenvalues --    0.17770   0.17985   0.18555   0.18913   0.19016
 Alpha virt. eigenvalues --    0.19571   0.19759   0.20186   0.20509   0.20969
 Alpha virt. eigenvalues --    0.21007   0.21743   0.21977   0.22063   0.23148
 Alpha virt. eigenvalues --    0.23184   0.23681   0.24696   0.25126   0.25763
 Alpha virt. eigenvalues --    0.26420   0.26648   0.26885   0.27809   0.27811
 Alpha virt. eigenvalues --    0.28161   0.28609   0.30320   0.30353   0.30559
 Alpha virt. eigenvalues --    0.31820   0.33228   0.34983   0.35283   0.35760
 Alpha virt. eigenvalues --    0.35832   0.36136   0.36805   0.37202   0.39094
 Alpha virt. eigenvalues --    0.39272   0.43163   0.43190   0.43684   0.44491
 Alpha virt. eigenvalues --    0.45049   0.45232   0.46401   0.47309   0.49520
 Alpha virt. eigenvalues --    0.49726   0.50708   0.51021   0.53046   0.54262
 Alpha virt. eigenvalues --    0.55564   0.55951   0.56189   0.57108   0.57249
 Alpha virt. eigenvalues --    0.58266   0.58437   0.60853   0.61827   0.62134
 Alpha virt. eigenvalues --    0.62541   0.63382   0.65066   0.65259   0.65686
 Alpha virt. eigenvalues --    0.66402   0.67267   0.68522   0.70691   0.71779
 Alpha virt. eigenvalues --    0.72346   0.73138   0.74326   0.75599   0.75626
 Alpha virt. eigenvalues --    0.75726   0.76228   0.78417   0.78509   0.78770
 Alpha virt. eigenvalues --    0.79465   0.81831   0.82790   0.83052   0.83865
 Alpha virt. eigenvalues --    0.86286   0.86776   0.86781   0.90255   0.91641
 Alpha virt. eigenvalues --    0.92139   0.92640   0.95353   0.96574   0.97429
 Alpha virt. eigenvalues --    1.00115   1.00368   1.01155   1.01875   1.02092
 Alpha virt. eigenvalues --    1.02627   1.05143   1.05277   1.05597   1.07375
 Alpha virt. eigenvalues --    1.07841   1.08548   1.08559   1.08861   1.10864
 Alpha virt. eigenvalues --    1.12635   1.16488   1.18194   1.22386   1.25149
 Alpha virt. eigenvalues --    1.25622   1.26344   1.31272   1.32055   1.34346
 Alpha virt. eigenvalues --    1.36328   1.36577   1.40571   1.41058   1.42927
 Alpha virt. eigenvalues --    1.42971   1.44054   1.45644   1.46192   1.48424
 Alpha virt. eigenvalues --    1.53620   1.54111   1.55141   1.55390   1.56051
 Alpha virt. eigenvalues --    1.61079   1.61392   1.62114   1.63166   1.64487
 Alpha virt. eigenvalues --    1.64549   1.65043   1.67436   1.68726   1.69927
 Alpha virt. eigenvalues --    1.69938   1.70339   1.73856   1.76170   1.76545
 Alpha virt. eigenvalues --    1.77841   1.78741   1.79188   1.80566   1.81232
 Alpha virt. eigenvalues --    1.82320   1.84814   1.86820   1.87349   1.88251
 Alpha virt. eigenvalues --    1.91852   1.94848   1.95340   1.99882   2.01534
 Alpha virt. eigenvalues --    2.01900   2.02784   2.04088   2.05516   2.06918
 Alpha virt. eigenvalues --    2.07479   2.08156   2.09530   2.11321   2.12405
 Alpha virt. eigenvalues --    2.13644   2.13680   2.14293   2.16236   2.16620
 Alpha virt. eigenvalues --    2.19218   2.20494   2.21590   2.23334   2.40111
 Alpha virt. eigenvalues --    2.42351   2.43637   2.43786   2.46113   2.46468
 Alpha virt. eigenvalues --    2.47154   2.49792   2.50653   2.51776   2.52303
 Alpha virt. eigenvalues --    2.54600   2.55294   2.57658   2.61314   2.64795
 Alpha virt. eigenvalues --    2.66498   2.67537   2.69319   2.69913   2.73550
 Alpha virt. eigenvalues --    2.73928   2.76486   2.78022   2.78944   2.79272
 Alpha virt. eigenvalues --    2.84534   2.84979   2.86216   2.92503   2.96166
 Alpha virt. eigenvalues --    2.99271   3.00458   3.01393   3.04383   3.04575
 Alpha virt. eigenvalues --    3.08426   3.08855   3.14306   3.16452   3.21229
 Alpha virt. eigenvalues --    3.23804   3.23951   3.24560   3.30265   3.31412
 Alpha virt. eigenvalues --    3.34094   3.35348   3.41181   3.45659   3.47516
 Alpha virt. eigenvalues --    3.52284   3.56830   3.75554   3.77138   3.77266
 Alpha virt. eigenvalues --    3.82275   3.85041   4.01490   4.07481   4.09992
 Alpha virt. eigenvalues --    4.12409   4.14739   4.23180   4.30706   4.60515
 Alpha virt. eigenvalues --    5.01537   5.02478   5.42867   5.43312   5.76333
 Alpha virt. eigenvalues --    5.80962   8.02524   8.03374  17.29255  17.30817
 Alpha virt. eigenvalues --   17.48610  17.51067  17.54948  17.58853  23.52784
 Alpha virt. eigenvalues --   23.73032  23.82193  23.86012  23.90925  23.91906
 Alpha virt. eigenvalues --   24.04982  24.05170  24.16100  24.16565  49.96630
 Alpha virt. eigenvalues --   49.97789 189.19435 189.20612
          Condensed to atoms (all electrons):
               1          2          3          4          5          6
     1  C    9.199461   1.035350  -1.487149  -0.207149  -0.461179   0.010345
     2  C    1.035350   9.552821  -2.733852   0.114641   0.327908  -0.131590
     3  C   -1.487149  -2.733852  11.127858  -0.200119   0.056400   0.456880
     4  C   -0.207149   0.114641  -0.200119   6.044727   0.026751   0.014909
     5  S   -0.461179   0.327908   0.056400   0.026751  17.270019   0.013520
     6  H    0.010345  -0.131590   0.456880   0.014909   0.013520   0.533945
     7  H    0.030901  -0.073700   0.077164   0.326147  -0.016341  -0.005284
     8  C    0.135527  -1.284126  -0.595606   0.078766  -0.730154  -0.004158
     9  C   -1.284125  -0.626316   0.179244  -0.061229  -0.405920   0.001397
    10  S   -0.730154  -0.405920  -0.058312   0.056143   0.125900  -0.001625
    11  C   -0.595605   0.179244  -0.110412   0.017791  -0.058312   0.000033
    12  C    0.078767  -0.061229   0.017791  -0.009681   0.056143   0.000075
    13  H   -0.004158   0.001397   0.000033   0.000075  -0.001625   0.000000
    14  H    0.006986   0.006616   0.000287   0.000026  -0.000856   0.000000
    15  O   -0.187946   0.356554  -0.099952   0.045882   0.046068  -0.011879
    16  O   -0.254976  -0.048540  -0.006257   0.010610  -0.020630   0.000031
    17  C   -0.137571  -0.055967   0.003030   0.003136  -0.017105  -0.000011
    18  H   -0.002123   0.000828   0.000119  -0.000413  -0.002795   0.000000
    19  H    0.009293   0.000580  -0.000162   0.000887  -0.000178   0.000000
    20  H   -0.002221   0.000823   0.000121  -0.000415  -0.002785   0.000000
    21  C    0.072294   0.095396  -0.240468  -0.035810   0.059394  -0.002579
    22  H   -0.006692  -0.049363   0.052400   0.000833   0.000480  -0.000618
    23  H    0.000978   0.031098  -0.013579   0.000425  -0.000567   0.000256
    24  H   -0.006785  -0.049335   0.052547   0.000894   0.000478  -0.000617
               7          8          9         10         11         12
     1  C    0.030901   0.135527  -1.284125  -0.730154  -0.595605   0.078767
     2  C   -0.073700  -1.284126  -0.626316  -0.405920   0.179244  -0.061229
     3  C    0.077164  -0.595606   0.179244  -0.058312  -0.110412   0.017791
     4  C    0.326147   0.078766  -0.061229   0.056143   0.017791  -0.009681
     5  S   -0.016341  -0.730154  -0.405920   0.125900  -0.058312   0.056143
     6  H   -0.005284  -0.004158   0.001397  -0.001625   0.000033   0.000075
     7  H    0.492360   0.006986   0.006616  -0.000856   0.000287   0.000026
     8  C    0.006986   9.199462   1.035350  -0.461179  -1.487149  -0.207149
     9  C    0.006616   1.035350   9.552821   0.327908  -2.733852   0.114641
    10  S   -0.000856  -0.461179   0.327908  17.270020   0.056400   0.026751
    11  C    0.000287  -1.487149  -2.733852   0.056400  11.127858  -0.200120
    12  C    0.000026  -0.207149   0.114641   0.026751  -0.200120   6.044727
    13  H    0.000000   0.010345  -0.131590   0.013520   0.456880   0.014909
    14  H    0.000000   0.030901  -0.073700  -0.016341   0.077164   0.326147
    15  O   -0.000370  -0.254976  -0.048540  -0.020630  -0.006257   0.010610
    16  O   -0.000019  -0.187946   0.356554   0.046068  -0.099952   0.045882
    17  C   -0.000063   0.072294   0.095396   0.059394  -0.240468  -0.035810
    18  H    0.000000  -0.006696  -0.049362   0.000480   0.052406   0.000835
    19  H   -0.000001   0.000978   0.031098  -0.000567  -0.013579   0.000425
    20  H    0.000000  -0.006782  -0.049336   0.000478   0.052540   0.000892
    21  C    0.000694  -0.137571  -0.055967  -0.017105   0.003030   0.003136
    22  H    0.000035  -0.002119   0.000828  -0.002795   0.000119  -0.000413
    23  H   -0.000001   0.009293   0.000580  -0.000178  -0.000162   0.000887
    24  H    0.000035  -0.002224   0.000823  -0.002785   0.000121  -0.000415
              13         14         15         16         17         18
     1  C   -0.004158   0.006986  -0.187946  -0.254976  -0.137571  -0.002123
     2  C    0.001397   0.006616   0.356554  -0.048540  -0.055967   0.000828
     3  C    0.000033   0.000287  -0.099952  -0.006257   0.003030   0.000119
     4  C    0.000075   0.000026   0.045882   0.010610   0.003136  -0.000413
     5  S   -0.001625  -0.000856   0.046068  -0.020630  -0.017105  -0.002795
     6  H    0.000000   0.000000  -0.011879   0.000031  -0.000011   0.000000
     7  H    0.000000   0.000000  -0.000370  -0.000019  -0.000063   0.000000
     8  C    0.010345   0.030901  -0.254976  -0.187946   0.072294  -0.006696
     9  C   -0.131590  -0.073700  -0.048540   0.356554   0.095396  -0.049362
    10  S    0.013520  -0.016341  -0.020630   0.046068   0.059394   0.000480
    11  C    0.456880   0.077164  -0.006257  -0.099952  -0.240468   0.052406
    12  C    0.014909   0.326147   0.010610   0.045882  -0.035810   0.000835
    13  H    0.533945  -0.005284   0.000031  -0.011879  -0.002579  -0.000618
    14  H   -0.005284   0.492360  -0.000019  -0.000370   0.000694   0.000035
    15  O    0.000031  -0.000019   8.252643  -0.001370  -0.000719   0.000000
    16  O   -0.011879  -0.000370  -0.001370   8.252643   0.193417  -0.044343
    17  C   -0.002579   0.000694  -0.000719   0.193417   5.062479   0.418826
    18  H   -0.000618   0.000035   0.000000  -0.044343   0.418826   0.570128
    19  H    0.000256  -0.000001  -0.000002  -0.058492   0.399963  -0.028345
    20  H   -0.000617   0.000035  -0.000000  -0.044400   0.418795  -0.050535
    21  C   -0.000011  -0.000063   0.193417  -0.000719  -0.001113  -0.000000
    22  H    0.000000   0.000000  -0.044341   0.000000  -0.000000  -0.000000
    23  H    0.000000  -0.000001  -0.058492  -0.000002  -0.000000   0.000000
    24  H    0.000000   0.000000  -0.044403  -0.000000  -0.000000   0.000000
              19         20         21         22         23         24
     1  C    0.009293  -0.002221   0.072294  -0.006692   0.000978  -0.006785
     2  C    0.000580   0.000823   0.095396  -0.049363   0.031098  -0.049335
     3  C   -0.000162   0.000121  -0.240468   0.052400  -0.013579   0.052547
     4  C    0.000887  -0.000415  -0.035810   0.000833   0.000425   0.000894
     5  S   -0.000178  -0.002785   0.059394   0.000480  -0.000567   0.000478
     6  H    0.000000   0.000000  -0.002579  -0.000618   0.000256  -0.000617
     7  H   -0.000001   0.000000   0.000694   0.000035  -0.000001   0.000035
     8  C    0.000978  -0.006782  -0.137571  -0.002119   0.009293  -0.002224
     9  C    0.031098  -0.049336  -0.055967   0.000828   0.000580   0.000823
    10  S   -0.000567   0.000478  -0.017105  -0.002795  -0.000178  -0.002785
    11  C   -0.013579   0.052540   0.003030   0.000119  -0.000162   0.000121
    12  C    0.000425   0.000892   0.003136  -0.000413   0.000887  -0.000415
    13  H    0.000256  -0.000617  -0.000011   0.000000   0.000000   0.000000
    14  H   -0.000001   0.000035  -0.000063   0.000000  -0.000001   0.000000
    15  O   -0.000002  -0.000000   0.193417  -0.044341  -0.058492  -0.044403
    16  O   -0.058492  -0.044400  -0.000719   0.000000  -0.000002  -0.000000
    17  C    0.399963   0.418795  -0.001113  -0.000000  -0.000000  -0.000000
    18  H   -0.028345  -0.050535  -0.000000  -0.000000   0.000000   0.000000
    19  H    0.524518  -0.028345  -0.000000   0.000000  -0.000000   0.000000
    20  H   -0.028345   0.570191  -0.000000   0.000000   0.000000  -0.000000
    21  C   -0.000000  -0.000000   5.062479   0.418828   0.399963   0.418794
    22  H    0.000000   0.000000   0.418828   0.570125  -0.028345  -0.050535
    23  H   -0.000000   0.000000   0.399963  -0.028345   0.524518  -0.028345
    24  H    0.000000  -0.000000   0.418794  -0.050535  -0.028345   0.570194
 Mulliken charges:
               1
     1  C    0.787930
     2  C   -0.183317
     3  C   -0.478005
     4  C   -0.227827
     5  S   -0.264617
     6  H    0.126971
     7  H    0.155384
     8  C    0.787930
     9  C   -0.183317
    10  S   -0.264617
    11  C   -0.478005
    12  C   -0.227827
    13  H    0.126971
    14  H    0.155384
    15  O   -0.125313
    16  O   -0.125313
    17  C   -0.236016
    18  H    0.141573
    19  H    0.161675
    20  H    0.141561
    21  C   -0.236016
    22  H    0.141573
    23  H    0.161675
    24  H    0.141560
 Sum of Mulliken charges =  -0.00000
 Mulliken charges with hydrogens summed into heavy atoms:
               1
     1  C    0.787930
     2  C   -0.183317
     3  C   -0.351034
     4  C   -0.072443
     5  S   -0.264617
     8  C    0.787930
     9  C   -0.183317
    10  S   -0.264617
    11  C   -0.351034
    12  C   -0.072443
    15  O   -0.125313
    16  O   -0.125313
    17  C    0.208793
    21  C    0.208793
 Electronic spatial extent (au):  <R**2>=           3511.2191
 Charge=             -0.0000 electrons
 Dipole moment (field-independent basis, Debye):
    X=             -0.0000    Y=              0.0000    Z=              0.0012  Tot=              0.0012
 Quadrupole moment (field-independent basis, Debye-Ang):
   XX=            -71.2813   YY=            -90.3187   ZZ=           -102.0266
   XY=             -3.2563   XZ=             -0.0001   YZ=              0.0001
 Traceless Quadrupole moment (field-independent basis, Debye-Ang):
   XX=             16.5942   YY=             -2.4431   ZZ=            -14.1511
   XY=             -3.2563   XZ=             -0.0001   YZ=              0.0001
 Octapole moment (field-independent basis, Debye-Ang**2):
  XXX=             -0.0000  YYY=              0.0000  ZZZ=              0.0032  XYY=             -0.0000
  XXY=              0.0000  XXZ=              0.0140  XZZ=             -0.0000  YZZ=              0.0000
  YYZ=              0.0027  XYZ=             -0.0087
 Hexadecapole moment (field-independent basis, Debye-Ang**3):
 XXXX=          -2530.5308 YYYY=          -1596.2492 ZZZZ=           -137.0370 XXXY=           -123.0187
 XXXZ=              0.0002 YYYX=             -2.0021 YYYZ=              0.0000 ZZZX=              0.0000
 ZZZY=             -0.0000 XXYY=           -662.3257 XXZZ=           -534.9816 YYZZ=           -339.4479
 XXYZ=              0.0005 YYXZ=             -0.0003 ZZXY=            -31.1470
 N-N= 1.105803050592D+03 E-N=-5.359568633674D+03  KE= 1.330742586441D+03
 Calling FoFJK, ICntrl=      2127 FMM=F ISym2X=0 I1Cent= 0 IOpClX= 0 NMat=1 NMatS=1 NMatT=0.
 ***** Axes restored to original set *****
 -------------------------------------------------------------------
 Center     Atomic                   Forces (Hartrees/Bohr)
 Number     Number              X              Y              Z
 -------------------------------------------------------------------
      1        6          -0.000127670    0.000290009   -0.000005254
      2        6           0.000245204   -0.000064146    0.000003465
      3        6          -0.000241756   -0.000059380   -0.000000335
      4        6           0.000064772    0.000013826   -0.000003870
      5       16           0.000146026   -0.000089092    0.000005016
      6        1           0.000066417    0.000027435    0.000000437
      7        1          -0.000006279    0.000019076    0.000000308
      8        6           0.000127670   -0.000290009   -0.000005142
      9        6          -0.000245204    0.000064146    0.000003468
     10       16          -0.000146026    0.000089091    0.000004998
     11        6           0.000241757    0.000059380   -0.000000261
     12        6          -0.000064773   -0.000013826   -0.000003880
     13        1          -0.000066417   -0.000027435    0.000000397
     14        1           0.000006279   -0.000019076    0.000000295
     15        8           0.000015990    0.000023973    0.000000562
     16        8          -0.000015997   -0.000023971    0.000000514
     17        6           0.000005103   -0.000003180    0.000000232
     18        1           0.000027798    0.000040116    0.000104688
     19        1          -0.000000976   -0.000138922   -0.000000085
     20        1           0.000028134    0.000040854   -0.000105196
     21        6          -0.000005102    0.000003177   -0.000000581
     22        1          -0.000028030   -0.000040162    0.000105038
     23        1           0.000000976    0.000138922    0.000000024
     24        1          -0.000027896   -0.000040806   -0.000104838
 -------------------------------------------------------------------
 Cartesian Forces:  Max     0.000290009 RMS     0.000093236

 GradGradGradGradGradGradGradGradGradGradGradGradGradGradGradGradGradGrad
 Berny optimization.
 FormGI is forming the generalized inverse of G from B-inverse, IUseBI=4.
 Internal  Forces:  Max     0.000211810 RMS     0.000056494
 Search for a local minimum.
 Step number   1 out of a maximum of  121 on scan point     1 out of    16
 All quantities printed in internal units (Hartrees-Bohrs-Radians)
 Mixed Optimization -- En-DIIS/RFO-DIIS
 Second derivative matrix not updated -- first step.
 ITU=  0
     Eigenvalues ---    0.01407   0.01407   0.01511   0.01609   0.01609
     Eigenvalues ---    0.01688   0.01688   0.01987   0.01987   0.02100
     Eigenvalues ---    0.02100   0.02113   0.02113   0.02173   0.02173
     Eigenvalues ---    0.02275   0.02275   0.10067   0.10067   0.10655
     Eigenvalues ---    0.10655   0.16000   0.16000   0.16000   0.16000
     Eigenvalues ---    0.16000   0.16000   0.16000   0.16000   0.16000
     Eigenvalues ---    0.16000   0.22532   0.22584   0.24749   0.24777
     Eigenvalues ---    0.25000   0.25000   0.25000   0.25000   0.25000
     Eigenvalues ---    0.29140   0.29143   0.32099   0.32171   0.34228
     Eigenvalues ---    0.34228   0.34228   0.34228   0.34973   0.34973
     Eigenvalues ---    0.35945   0.35945   0.36108   0.36108   0.39085
     Eigenvalues ---    0.40679   0.40753   0.42229   0.42229   0.45483
     Eigenvalues ---    0.45570   0.50101   0.50101   0.52226   0.52226
     Eigenvalues --- 1000.000001000.000001000.000001000.000001000.00000
     Eigenvalues --- 1000.000001000.000001000.000001000.000001000.00000
     Eigenvalues --- 1000.000001000.000001000.000001000.000001000.00000
     Eigenvalues --- 1000.000001000.000001000.000001000.000001000.00000
     Eigenvalues --- 1000.000001000.000001000.000001000.000001000.00000
     Eigenvalues --- 1000.000001000.000001000.000001000.000001000.00000
     Eigenvalues --- 1000.000001000.000001000.000001000.000001000.00000
     Eigenvalues --- 1000.000001000.000001000.000001000.000001000.00000
     Eigenvalues --- 1000.000001000.000001000.000001000.000001000.00000
     Eigenvalues --- 1000.00000
 RFO step:  Lambda=-1.11944391D-06 EMin= 1.40683420D-02
 Linear search not attempted -- first point.
 Iteration  1 RMS(Cart)=  0.00046309 RMS(Int)=  0.00000005
 Iteration  2 RMS(Cart)=  0.00000008 RMS(Int)=  0.00000001
 Iteration  1 RMS(Cart)=  0.00000000 RMS(Int)=  0.00000000
 Variable       Old X    -DE/DX   Delta X   Delta X   Delta X     New X
                                 (Linear)    (Quad)   (Total)
    R1        2.62118  -0.00014   0.00000  -0.00029  -0.00029   2.62089
    R2        3.32335   0.00005   0.00000   0.00014   0.00014   3.32349
    R3        2.72816  -0.00021   0.00000  -0.00054  -0.00054   2.72762
    R4        2.69003   0.00008   0.00000   0.00019   0.00019   2.69022
    R5        2.57684   0.00009   0.00000   0.00018   0.00018   2.57701
    R6        2.58219   0.00006   0.00000   0.00013   0.00013   2.58232
    R7        2.04168  -0.00006   0.00000  -0.00017  -0.00017   2.04151
    R8        3.26175   0.00005   0.00000   0.00016   0.00016   3.26190
    R9        2.03912  -0.00001   0.00000  -0.00004  -0.00004   2.03908
   R10        2.62118  -0.00014   0.00000  -0.00030  -0.00030   2.62089
   R11        3.32335   0.00005   0.00000   0.00014   0.00014   3.32349
   R12        2.69003   0.00008   0.00000   0.00019   0.00019   2.69022
   R13        2.57684   0.00009   0.00000   0.00018   0.00018   2.57701
   R14        3.26175   0.00005   0.00000   0.00016   0.00016   3.26190
   R15        2.58219   0.00006   0.00000   0.00013   0.00013   2.58232
   R16        2.04168  -0.00006   0.00000  -0.00017  -0.00017   2.04151
   R17        2.03912  -0.00001   0.00000  -0.00004  -0.00004   2.03908
   R18        2.68632   0.00007   0.00000   0.00018   0.00018   2.68650
   R19        2.68632   0.00007   0.00000   0.00018   0.00018   2.68650
   R20        2.06947   0.00011   0.00000   0.00033   0.00033   2.06980
   R21        2.05719   0.00014   0.00000   0.00040   0.00040   2.05759
   R22        2.06947   0.00011   0.00000   0.00033   0.00033   2.06980
   R23        2.06947   0.00011   0.00000   0.00033   0.00033   2.06980
   R24        2.05719   0.00014   0.00000   0.00040   0.00040   2.05759
   R25        2.06947   0.00011   0.00000   0.00033   0.00033   2.06980
    A1        1.90639   0.00009   0.00000   0.00033   0.00033   1.90672
    A2        2.23296   0.00004   0.00000   0.00018   0.00018   2.23314
    A3        2.14384  -0.00013   0.00000  -0.00051  -0.00051   2.14333
    A4        1.99480  -0.00000   0.00000  -0.00003  -0.00003   1.99477
    A5        2.08497  -0.00001   0.00000   0.00000   0.00000   2.08497
    A6        2.20341   0.00001   0.00000   0.00003   0.00003   2.20344
    A7        1.95572  -0.00007   0.00000  -0.00027  -0.00027   1.95546
    A8        2.17384  -0.00000   0.00000  -0.00009  -0.00009   2.17375
    A9        2.15362   0.00007   0.00000   0.00036   0.00036   2.15398
   A10        1.96177   0.00006   0.00000   0.00031   0.00031   1.96208
   A11        2.23094  -0.00004   0.00000  -0.00025  -0.00025   2.23069
   A12        2.09048  -0.00001   0.00000  -0.00007  -0.00007   2.09041
   A13        1.60610  -0.00008   0.00000  -0.00035  -0.00035   1.60575
   A14        2.23296   0.00004   0.00000   0.00018   0.00018   2.23314
   A15        2.14384  -0.00013   0.00000  -0.00051  -0.00051   2.14333
   A16        1.90639   0.00009   0.00000   0.00033   0.00033   1.90672
   A17        1.99480  -0.00000   0.00000  -0.00002  -0.00002   1.99478
   A18        2.08497  -0.00001   0.00000  -0.00001  -0.00001   2.08496
   A19        2.20341   0.00001   0.00000   0.00004   0.00004   2.20345
   A20        1.60610  -0.00008   0.00000  -0.00035  -0.00035   1.60575
   A21        1.95572  -0.00007   0.00000  -0.00027  -0.00027   1.95546
   A22        2.17384  -0.00000   0.00000  -0.00009  -0.00009   2.17375
   A23        2.15362   0.00007   0.00000   0.00036   0.00036   2.15398
   A24        1.96177   0.00006   0.00000   0.00031   0.00031   1.96208
   A25        2.09048  -0.00001   0.00000  -0.00007  -0.00007   2.09041
   A26        2.23094  -0.00004   0.00000  -0.00025  -0.00025   2.23069
   A27        2.05933   0.00008   0.00000   0.00031   0.00031   2.05964
   A28        2.05933   0.00008   0.00000   0.00031   0.00031   2.05964
   A29        1.94159  -0.00003   0.00000  -0.00020  -0.00020   1.94140
   A30        1.84964   0.00001   0.00000   0.00005   0.00005   1.84969
   A31        1.94160  -0.00003   0.00000  -0.00020  -0.00020   1.94140
   A32        1.90836   0.00001   0.00000   0.00006   0.00006   1.90842
   A33        1.91300   0.00003   0.00000   0.00022   0.00022   1.91322
   A34        1.90835   0.00001   0.00000   0.00006   0.00006   1.90841
   A35        1.94159  -0.00003   0.00000  -0.00019  -0.00019   1.94140
   A36        1.84964   0.00001   0.00000   0.00005   0.00005   1.84969
   A37        1.94160  -0.00003   0.00000  -0.00020  -0.00020   1.94140
   A38        1.90836   0.00001   0.00000   0.00006   0.00006   1.90842
   A39        1.91300   0.00003   0.00000   0.00022   0.00022   1.91322
   A40        1.90835   0.00001   0.00000   0.00006   0.00006   1.90841
    D1        0.00007  -0.00000   0.00000  -0.00012  -0.00012  -0.00005
    D2       -3.14152  -0.00000   0.00000  -0.00006  -0.00006  -3.14158
    D3       -3.14157  -0.00000   0.00000  -0.00005  -0.00005   3.14157
    D4        0.00003   0.00000   0.00000   0.00002   0.00002   0.00004
    D5       -0.00007   0.00000   0.00000   0.00014   0.00014   0.00007
    D6        3.14156   0.00000   0.00000   0.00007   0.00007  -3.14155
    D7        3.14148  -0.00000   0.00000  -0.00003  -0.00003   3.14146
    D8       -0.00016   0.00000   0.00000   0.00006   0.00006  -0.00010
    D9       -0.00016   0.00000   0.00000   0.00006   0.00006  -0.00010
   D10        3.14138   0.00000   0.00000   0.00014   0.00014   3.14152
   D11       -0.00003   0.00000   0.00000   0.00003   0.00003  -0.00000
   D12        3.14157   0.00000   0.00000   0.00004   0.00004  -3.14157
   D13        3.14156  -0.00000   0.00000  -0.00004  -0.00004   3.14153
   D14       -0.00002  -0.00000   0.00000  -0.00003  -0.00003  -0.00004
   D15       -3.14122  -0.00000   0.00000  -0.00005  -0.00005  -3.14127
   D16        0.00037   0.00000   0.00000   0.00002   0.00002   0.00039
   D17       -0.00003   0.00000   0.00000   0.00008   0.00008   0.00005
   D18       -3.14157  -0.00000   0.00000  -0.00001  -0.00001  -3.14159
   D19        3.14155   0.00000   0.00000   0.00007   0.00007  -3.14156
   D20        0.00001  -0.00000   0.00000  -0.00003  -0.00003  -0.00002
   D21        0.00006  -0.00000   0.00000  -0.00013  -0.00013  -0.00007
   D22       -3.14158  -0.00000   0.00000  -0.00004  -0.00004   3.14157
   D23       -3.14156  -0.00000   0.00000  -0.00005  -0.00005   3.14157
   D24        0.00002   0.00000   0.00000   0.00002   0.00002   0.00004
   D25        0.00007  -0.00000   0.00000  -0.00012  -0.00012  -0.00005
   D26       -3.14152  -0.00000   0.00000  -0.00006  -0.00006  -3.14158
   D27        3.14156   0.00000   0.00000   0.00007   0.00007  -3.14156
   D28       -0.00007   0.00000   0.00000   0.00014   0.00014   0.00007
   D29       -0.00003   0.00000   0.00000   0.00003   0.00003  -0.00000
   D30        3.14157   0.00000   0.00000   0.00004   0.00004  -3.14157
   D31        3.14157  -0.00000   0.00000  -0.00004  -0.00004   3.14153
   D32       -0.00002  -0.00000   0.00000  -0.00003  -0.00003  -0.00004
   D33       -3.14125  -0.00000   0.00000  -0.00005  -0.00005  -3.14130
   D34        0.00034   0.00000   0.00000   0.00002   0.00002   0.00036
   D35        0.00006  -0.00000   0.00000  -0.00013  -0.00013  -0.00007
   D36       -3.14158  -0.00000   0.00000  -0.00004  -0.00004   3.14156
   D37       -0.00003   0.00000   0.00000   0.00008   0.00008   0.00005
   D38       -3.14157  -0.00000   0.00000  -0.00001  -0.00001  -3.14159
   D39        3.14156   0.00000   0.00000   0.00007   0.00007  -3.14156
   D40        0.00001  -0.00000   0.00000  -0.00003  -0.00003  -0.00001
   D41        1.06888   0.00000   0.00000   0.00003   0.00003   1.06891
   D42        3.14139   0.00000   0.00000   0.00003   0.00003   3.14141
   D43       -1.06931   0.00000   0.00000   0.00003   0.00003  -1.06928
   D44        1.06890   0.00000   0.00000   0.00003   0.00003   1.06893
   D45        3.14140   0.00000   0.00000   0.00003   0.00003   3.14143
   D46       -1.06929   0.00000   0.00000   0.00002   0.00002  -1.06926
         Item               Value     Threshold  Converged?
 Maximum Force            0.000212     0.000450     YES
 RMS     Force            0.000057     0.000300     YES
 Maximum Displacement     0.001637     0.001800     YES
 RMS     Displacement     0.000463     0.001200     YES
 Predicted change in Energy=-5.597223D-07
 Optimization completed.
    -- Stationary point found.
                           ----------------------------
                           !   Optimized Parameters   !
                           ! (Angstroms and Degrees)  !
 --------------------------                            --------------------------
 ! Name  Definition              Value          Derivative Info.                !
 --------------------------------------------------------------------------------
 ! R1    R(1,2)                  1.3871         -DE/DX =   -0.0001              !
 ! R2    R(1,5)                  1.7586         -DE/DX =    0.0                 !
 ! R3    R(1,8)                  1.4437         -DE/DX =   -0.0002              !
 ! R4    R(2,3)                  1.4235         -DE/DX =    0.0001              !
 ! R5    R(2,15)                 1.3636         -DE/DX =    0.0001              !
 ! R6    R(3,4)                  1.3664         -DE/DX =    0.0001              !
 ! R7    R(3,6)                  1.0804         -DE/DX =   -0.0001              !
 ! R8    R(4,5)                  1.726          -DE/DX =    0.0                 !
 ! R9    R(4,7)                  1.0791         -DE/DX =    0.0                 !
 ! R10   R(8,9)                  1.3871         -DE/DX =   -0.0001              !
 ! R11   R(8,10)                 1.7586         -DE/DX =    0.0                 !
 ! R12   R(9,11)                 1.4235         -DE/DX =    0.0001              !
 ! R13   R(9,16)                 1.3636         -DE/DX =    0.0001              !
 ! R14   R(10,12)                1.726          -DE/DX =    0.0                 !
 ! R15   R(11,12)                1.3664         -DE/DX =    0.0001              !
 ! R16   R(11,13)                1.0804         -DE/DX =   -0.0001              !
 ! R17   R(12,14)                1.0791         -DE/DX =    0.0                 !
 ! R18   R(15,21)                1.4215         -DE/DX =    0.0001              !
 ! R19   R(16,17)                1.4215         -DE/DX =    0.0001              !
 ! R20   R(17,18)                1.0951         -DE/DX =    0.0001              !
 ! R21   R(17,19)                1.0886         -DE/DX =    0.0001              !
 ! R22   R(17,20)                1.0951         -DE/DX =    0.0001              !
 ! R23   R(21,22)                1.0951         -DE/DX =    0.0001              !
 ! R24   R(21,23)                1.0886         -DE/DX =    0.0001              !
 ! R25   R(21,24)                1.0951         -DE/DX =    0.0001              !
 ! A1    A(2,1,5)              109.228          -DE/DX =    0.0001              !
 ! A2    A(2,1,8)              127.9393         -DE/DX =    0.0                 !
 ! A3    A(5,1,8)              122.8328         -DE/DX =   -0.0001              !
 ! A4    A(1,2,3)              114.2937         -DE/DX =    0.0                 !
 ! A5    A(1,2,15)             119.46           -DE/DX =    0.0                 !
 ! A6    A(3,2,15)             126.2463         -DE/DX =    0.0                 !
 ! A7    A(2,3,4)              112.0548         -DE/DX =   -0.0001              !
 ! A8    A(2,3,6)              124.5521         -DE/DX =    0.0                 !
 ! A9    A(4,3,6)              123.3931         -DE/DX =    0.0001              !
 ! A10   A(3,4,5)              112.4009         -DE/DX =    0.0001              !
 ! A11   A(3,4,7)              127.8234         -DE/DX =    0.0                 !
 ! A12   A(5,4,7)              119.7757         -DE/DX =    0.0                 !
 ! A13   A(1,5,4)               92.0227         -DE/DX =   -0.0001              !
 ! A14   A(1,8,9)              127.9393         -DE/DX =    0.0                 !
 ! A15   A(1,8,10)             122.8328         -DE/DX =   -0.0001              !
 ! A16   A(9,8,10)             109.228          -DE/DX =    0.0001              !
 ! A17   A(8,9,11)             114.2937         -DE/DX =    0.0                 !
 ! A18   A(8,9,16)             119.46           -DE/DX =    0.0                 !
 ! A19   A(11,9,16)            126.2463         -DE/DX =    0.0                 !
 ! A20   A(8,10,12)             92.0227         -DE/DX =   -0.0001              !
 ! A21   A(9,11,12)            112.0548         -DE/DX =   -0.0001              !
 ! A22   A(9,11,13)            124.5521         -DE/DX =    0.0                 !
 ! A23   A(12,11,13)           123.3931         -DE/DX =    0.0001              !
 ! A24   A(10,12,11)           112.4009         -DE/DX =    0.0001              !
 ! A25   A(10,12,14)           119.7757         -DE/DX =    0.0                 !
 ! A26   A(11,12,14)           127.8234         -DE/DX =    0.0                 !
 ! A27   A(2,15,21)            117.9908         -DE/DX =    0.0001              !
 ! A28   A(9,16,17)            117.9908         -DE/DX =    0.0001              !
 ! A29   A(16,17,18)           111.2449         -DE/DX =    0.0                 !
 ! A30   A(16,17,19)           105.9768         -DE/DX =    0.0                 !
 ! A31   A(16,17,20)           111.2452         -DE/DX =    0.0                 !
 ! A32   A(18,17,19)           109.3408         -DE/DX =    0.0                 !
 ! A33   A(18,17,20)           109.6069         -DE/DX =    0.0                 !
 ! A34   A(19,17,20)           109.3403         -DE/DX =    0.0                 !
 ! A35   A(15,21,22)           111.2449         -DE/DX =    0.0                 !
 ! A36   A(15,21,23)           105.9768         -DE/DX =    0.0                 !
 ! A37   A(15,21,24)           111.2452         -DE/DX =    0.0                 !
 ! A38   A(22,21,23)           109.3409         -DE/DX =    0.0                 !
 ! A39   A(22,21,24)           109.6069         -DE/DX =    0.0                 !
 ! A40   A(23,21,24)           109.3402         -DE/DX =    0.0                 !
 ! D1    D(5,1,2,3)              0.0042         -DE/DX =    0.0                 !
 ! D2    D(5,1,2,15)          -179.9959         -DE/DX =    0.0                 !
 ! D3    D(8,1,2,3)            180.0016         -DE/DX =    0.0                 !
 ! D4    D(8,1,2,15)             0.0015         -DE/DX =    0.0                 !
 ! D5    D(2,1,5,4)             -0.0042         -DE/DX =    0.0                 !
 ! D6    D(8,1,5,4)           -180.0017         -DE/DX =    0.0                 !
 ! D7    D(2,1,8,9)            179.9937         -DE/DX =    0.0                 !
 ! D8    D(2,1,8,10)            -0.0091         -DE/DX =    0.0                 !
 ! D9    D(5,1,8,9)             -0.0093         -DE/DX =    0.0                 !
 ! D10   D(5,1,8,10)           179.9879         -DE/DX =    0.0                 !
 ! D11   D(1,2,3,4)             -0.0018         -DE/DX =    0.0                 !
 ! D12   D(1,2,3,6)           -180.0012         -DE/DX =    0.0                 !
 ! D13   D(15,2,3,4)           179.9983         -DE/DX =    0.0                 !
 ! D14   D(15,2,3,6)            -0.0011         -DE/DX =    0.0                 !
 ! D15   D(1,2,15,21)         -179.9784         -DE/DX =    0.0                 !
 ! D16   D(3,2,15,21)            0.0215         -DE/DX =    0.0                 !
 ! D17   D(2,3,4,5)             -0.0015         -DE/DX =    0.0                 !
 ! D18   D(2,3,4,7)           -179.9988         -DE/DX =    0.0                 !
 ! D19   D(6,3,4,5)           -180.0022         -DE/DX =    0.0                 !
 ! D20   D(6,3,4,7)              0.0006         -DE/DX =    0.0                 !
 ! D21   D(3,4,5,1)              0.0033         -DE/DX =    0.0                 !
 ! D22   D(7,4,5,1)            180.0008         -DE/DX =    0.0                 !
 ! D23   D(1,8,9,11)           180.0017         -DE/DX =    0.0                 !
 ! D24   D(1,8,9,16)             0.0014         -DE/DX =    0.0                 !
 ! D25   D(10,8,9,11)            0.0041         -DE/DX =    0.0                 !
 ! D26   D(10,8,9,16)         -179.9961         -DE/DX =    0.0                 !
 ! D27   D(1,8,10,12)         -180.0018         -DE/DX =    0.0                 !
 ! D28   D(9,8,10,12)           -0.0042         -DE/DX =    0.0                 !
 ! D29   D(8,9,11,12)           -0.0018         -DE/DX =    0.0                 !
 ! D30   D(8,9,11,13)         -180.0012         -DE/DX =    0.0                 !
 ! D31   D(16,9,11,12)         179.9985         -DE/DX =    0.0                 !
 ! D32   D(16,9,11,13)          -0.001          -DE/DX =    0.0                 !
 ! D33   D(8,9,16,17)         -179.9802         -DE/DX =    0.0                 !
 ! D34   D(11,9,16,17)           0.0196         -DE/DX =    0.0                 !
 ! D35   D(8,10,12,11)           0.0033         -DE/DX =    0.0                 !
 ! D36   D(8,10,12,14)         180.0008         -DE/DX =    0.0                 !
 ! D37   D(9,11,12,10)          -0.0015         -DE/DX =    0.0                 !
 ! D38   D(9,11,12,14)        -179.9988         -DE/DX =    0.0                 !
 ! D39   D(13,11,12,10)       -180.0021         -DE/DX =    0.0                 !
 ! D40   D(13,11,12,14)          0.0007         -DE/DX =    0.0                 !
 ! D41   D(2,15,21,22)          61.2425         -DE/DX =    0.0                 !
 ! D42   D(2,15,21,23)         179.9882         -DE/DX =    0.0                 !
 ! D43   D(2,15,21,24)         -61.2668         -DE/DX =    0.0                 !
 ! D44   D(9,16,17,18)          61.2435         -DE/DX =    0.0                 !
 ! D45   D(9,16,17,19)         179.9891         -DE/DX =    0.0                 !
 ! D46   D(9,16,17,20)         -61.2658         -DE/DX =    0.0                 !
 --------------------------------------------------------------------------------
 Iteration  1 RMS(Cart)=  0.00171384 RMS(Int)=  0.00026625
 Iteration  2 RMS(Cart)=  0.00000180 RMS(Int)=  0.00026625
 Iteration  3 RMS(Cart)=  0.00000000 RMS(Int)=  0.00026625
 Iteration  1 RMS(Cart)=  0.00070798 RMS(Int)=  0.00011005
 Iteration  2 RMS(Cart)=  0.00029256 RMS(Int)=  0.00012267
 Iteration  3 RMS(Cart)=  0.00012092 RMS(Int)=  0.00013408
 Iteration  4 RMS(Cart)=  0.00004998 RMS(Int)=  0.00013957
 Iteration  5 RMS(Cart)=  0.00002066 RMS(Int)=  0.00014196
 Iteration  6 RMS(Cart)=  0.00000854 RMS(Int)=  0.00014297
 Iteration  7 RMS(Cart)=  0.00000353 RMS(Int)=  0.00014338
 Iteration  8 RMS(Cart)=  0.00000146 RMS(Int)=  0.00014356
 Iteration  9 RMS(Cart)=  0.00000060 RMS(Int)=  0.00014363
 GradGradGradGradGradGradGradGradGradGradGradGradGradGradGradGradGradGrad

                          Input orientation:                          
 ---------------------------------------------------------------------
 Center     Atomic      Atomic             Coordinates (Angstroms)
 Number     Number       Type             X           Y           Z
 ---------------------------------------------------------------------
      1          6           0       -0.592608   -0.408865   -0.000053
      2          6           0       -1.915922    0.006995    0.000019
      3          6           0       -2.862400   -1.056658   -0.000030
      4          6           0       -2.257922   -2.282131   -0.000138
      5         16           0       -0.535898   -2.166625   -0.000101
      6          1           0       -3.934348   -0.922421   -0.000006
      7          1           0       -2.729838   -3.252499   -0.000200
      8          6           0        0.595100    0.411342   -0.000052
      9          6           0        1.918388   -0.003919    0.000025
     10         16           0        0.539104    2.169165   -0.000106
     11          6           0        2.865683    1.058754   -0.000023
     12          6           0        2.261380    2.284378   -0.000138
     13          1           0        3.937560    0.923954    0.000005
     14          1           0        2.733462    3.254666   -0.000202
     15          8           0       -2.205600    1.339571    0.000051
     16          8           0        2.202773   -1.337634    0.000066
     17          6           0        3.569529   -1.728816    0.000514
     18          1           0        4.085739   -1.365832    0.895741
     19          1           0        3.569677   -2.817647    0.000640
     20          1           0        4.086267   -1.366047   -0.894497
     21          6           0       -3.573899    1.725324    0.000529
     22          1           0       -4.088646    1.360289    0.895765
     23          1           0       -3.578369    2.814146    0.000657
     24          1           0       -4.089211    1.360509   -0.894473
 ---------------------------------------------------------------------
                    Distance matrix (angstroms):
                    1          2          3          4          5
     1  C    0.000000
     2  C    1.387119   0.000000
     3  C    2.360421   1.423790   0.000000
     4  C    2.506471   2.314533   1.366447   0.000000
     5  S    1.758674   2.574702   2.577719   1.725893   0.000000
     6  H    3.380970   2.222129   1.080320   2.158522   3.619047
     7  H    3.557247   3.359578   2.199840   1.079037   2.447958
     8  C    1.443395   2.543369   3.756238   3.923586   2.815150
     9  C    2.543440   3.834326   4.895324   4.757291   3.271211
    10  S    2.815495   3.271411   4.687874   5.257128   4.467069
    11  C    3.756818   4.895911   6.106218   6.116604   4.687625
    12  C    3.924131   4.757764   6.116832   6.424725   5.257013
    13  H    4.722164   5.924869   7.082534   6.975886   5.437234
    14  H    4.948152   5.671344   7.064077   7.454531   6.330806
    15  O    2.378817   1.363698   2.484612   3.622080   3.883467
    16  O    2.945636   4.332629   5.072960   4.559592   2.861389
    17  C    4.366424   5.753539   6.466955   5.853661   4.128706
    18  H    4.858515   6.221488   7.012463   6.471804   4.775284
    19  H    4.809038   6.170121   6.668785   5.852152   4.156871
    20  H    4.858817   6.221871   7.012829   6.472080   4.775488
    21  C    3.666450   2.387790   2.871524   4.217996   4.937277
    22  H    4.019288   2.711917   2.854428   4.173897   5.085638
    23  H    4.393469   3.262488   3.936462   5.264563   5.836498
    24  H    4.019565   2.712066   2.854433   4.174000   5.085922
                    6          7          8          9         10
     6  H    0.000000
     7  H    2.622996   0.000000
     8  C    4.721739   4.947620   0.000000
     9  C    5.924370   5.670916   1.386915   0.000000
    10  S    5.437801   6.330911   1.758715   2.573853   0.000000
    11  C    7.082759   7.063764   2.361078   1.423601   2.577980
    12  C    6.976432   7.454480   2.506941   2.313859   1.726125
    13  H    8.085545   7.867463   3.381540   2.222162   3.619400
    14  H    7.868147   8.496520   3.557680   3.358976   2.448167
    15  O    2.846959   4.621898   2.950514   4.337308   2.867338
    16  O    6.151151   5.291254   2.375611   1.363698   3.881422
    17  C    7.547081   6.481022   3.664356   2.387789   4.937381
    18  H    8.082127   7.128417   4.018128   2.711923   5.086980
    19  H    7.739655   6.314506   4.390270   3.262487   5.835466
    20  H    8.082523   7.128658   4.018381   2.712059   5.087241
    21  C    2.672167   5.048877   4.371167   5.758081   4.136881
    22  H    2.457027   4.891516   4.862146   6.224778   4.782565
    23  H    3.753485   6.125699   4.815736   6.177041   4.167684
    24  H    2.456791   4.891571   4.862476   6.225194   4.782794
                   11         12         13         14         15
    11  C    0.000000
    12  C    1.366505   0.000000
    13  H    1.080320   2.158780   0.000000
    14  H    2.199889   1.079037   2.623369   0.000000
    15  O    5.079052   4.565805   6.157204   5.297351   0.000000
    16  O    2.486388   3.622486   2.850310   4.622861   5.157634
    17  C    2.875056   4.221016   2.678178   5.053127   6.539657
    18  H    2.858242   4.177908   2.463213   4.896974   6.906694
    19  H    3.939808   5.267096   3.759643   6.129619   7.115918
    20  H    2.858246   4.178001   2.462997   4.897022   6.907111
    21  C    6.473988   5.861998   7.554085   6.490123   1.421635
    22  H    7.018265   6.479151   8.087815   7.136706   2.085328
    23  H    6.678863   5.863730   7.749969   6.327186   2.014663
    24  H    7.018664   6.479458   8.088246   7.136976   2.085330
                   16         17         18         19         20
    16  O    0.000000
    17  C    1.421634   0.000000
    18  H    2.085327   1.095291   0.000000
    19  H    2.014662   1.088831   1.781936   0.000000
    20  H    2.085329   1.095292   1.790238   1.781931   0.000000
    21  C    6.538474   7.934711   8.308231   8.465769   8.308777
    22  H    6.903841   8.306123   8.616978   8.769624   8.801542
    23  H    7.117506   8.469413   8.775645   9.100091   8.776216
    24  H    6.904292   8.306698   8.801569   8.770221   8.618152
                   21         22         23         24
    21  C    0.000000
    22  H    1.095291   0.000000
    23  H    1.088831   1.781937   0.000000
    24  H    1.095292   1.790238   1.781931   0.000000
 Stoichiometry    C10H10O2S2
 Framework group  C1[X(C10H10O2S2)]
 Deg. of freedom    66
 Full point group                 C1      NOp   1
 Largest Abelian subgroup         C1      NOp   1
 Largest concise Abelian subgroup C1      NOp   1
                         Standard orientation:                         
 ---------------------------------------------------------------------
 Center     Atomic      Atomic             Coordinates (Angstroms)
 Number     Number       Type             X           Y           Z
 ---------------------------------------------------------------------
      1          6           0       -0.592735   -0.410188   -0.000095
      2          6           0       -1.916478    0.004304   -0.000023
      3          6           0       -2.861855   -1.060327   -0.000072
      4          6           0       -2.256110   -2.285175   -0.000180
      5         16           0       -0.534207   -2.167888   -0.000143
      6          1           0       -3.933941   -0.927199   -0.000049
      7          1           0       -2.727023   -3.256031   -0.000242
      8          6           0        0.594124    0.411247   -0.000094
      9          6           0        1.917841   -0.002644   -0.000017
     10         16           0        0.536311    2.169012   -0.000148
     11          6           0        2.864037    1.061007   -0.000065
     12          6           0        2.258466    2.286006   -0.000180
     13          1           0        3.936053    0.927317   -0.000037
     14          1           0        2.729545    3.256781   -0.000244
     15          8           0       -2.207534    1.336579    0.000009
     16          8           0        2.203606   -1.336065    0.000024
     17          6           0        3.570765   -1.725833    0.000472
     18          1           0        4.086600   -1.362315    0.895699
     19          1           0        3.572039   -2.814663    0.000598
     20          1           0        4.087128   -1.362530   -0.894539
     21          6           0       -3.576231    1.720917    0.000486
     22          1           0       -4.090600    1.355350    0.895723
     23          1           0       -3.581828    2.809734    0.000615
     24          1           0       -4.091166    1.355569   -0.894515
 ---------------------------------------------------------------------
 Rotational constants (GHZ):           0.7964929           0.4862044           0.3030790
 Standard basis: 6-311+G(d,p) (5D, 7F)
 There are   398 symmetry adapted cartesian basis functions of A   symmetry.
 There are   384 symmetry adapted basis functions of A   symmetry.
   384 basis functions,   612 primitive gaussians,   398 cartesian basis functions
    59 alpha electrons       59 beta electrons
       nuclear repulsion energy      1105.7162937983 Hartrees.
 NAtoms=   24 NActive=   24 NUniq=   24 SFac= 1.00D+00 NAtFMM=   60 NAOKFM=F Big=F
 Integral buffers will be    131072 words long.
 Raffenetti 2 integral format.
 Two-electron integral symmetry is turned on.
 One-electron integrals computed using PRISM.
 NBasis=   384 RedAO= T EigKep=  1.03D-06  NBF=   384
 NBsUse=   382 1.00D-06 EigRej=  3.64D-07 NBFU=   382
 Initial guess from the checkpoint file:  "gT2_Oanglescan.chk"
 B after Tr=     0.000000   -0.000000   -0.000000
         Rot=    1.000000   -0.000000   -0.000000   -0.000464 Ang=  -0.05 deg.
 ExpMin= 4.05D-02 ExpMax= 9.34D+04 ExpMxC= 3.17D+03 IAcc=2 IRadAn=         4 AccDes= 0.00D+00
 Harris functional with IExCor=  402 and IRadAn=       4 diagonalized for initial guess.
 HarFok:  IExCor=  402 AccDes= 0.00D+00 IRadAn=         4 IDoV= 1 UseB2=F ITyADJ=14
 ICtDFT=  3500011 ScaDFX=  1.000000  1.000000  1.000000  1.000000
 FoFCou: FMM=F IPFlag=           0 FMFlag=      100000 FMFlg1=           0
         NFxFlg=           0 DoJE=T BraDBF=F KetDBF=T FulRan=T
         wScrn=  0.000000 ICntrl=       500 IOpCl=  0 I1Cent=   200000004 NGrid=           0
         NMat0=    1 NMatS0=      1 NMatT0=    0 NMatD0=    1 NMtDS0=    0 NMtDT0=    0
 Petite list used in FoFCou.
 Requested convergence on RMS density matrix=1.00D-08 within 128 cycles.
 Requested convergence on MAX density matrix=1.00D-06.
 Requested convergence on             energy=1.00D-06.
 No special actions if energy rises.
 SCF Done:  E(RB3LYP) =  -1334.05172383     A.U. after    9 cycles
            NFock=  9  Conv=0.81D-08     -V/T= 2.0025
 Calling FoFJK, ICntrl=      2127 FMM=F ISym2X=0 I1Cent= 0 IOpClX= 0 NMat=1 NMatS=1 NMatT=0.
 ***** Axes restored to original set *****
[...]
                 (A) (A) (A) (A) (A) (A) (A) (A) (A) (A) (A) (A)
                 (A) (A) (A) (A) (A) (A) (A) (A) (A) (A) (A) (A)
                 (A) (A) (A) (A) (A) (A) (A) (A) (A) (A) (A) (A)
                 (A) (A) (A) (A) (A) (A) (A) (A) (A) (A) (A) (A)
                 (A) (A) (A) (A) (A) (A) (A) (A) (A) (A) (A) (A)
                 (A) (A) (A) (A) (A) (A) (A) (A) (A) (A) (A) (A)
                 (A) (A) (A) (A) (A) (A) (A) (A) (A) (A) (A) (A)
                 (A) (A) (A) (A) (A) (A) (A) (A) (A) (A) (A) (A)
                 (A) (A) (A) (A) (A) (A) (A) (A) (A) (A) (A) (A)
                 (A) (A) (A) (A) (A) (A) (A) (A) (A) (A) (A) (A)
                 (A) (A) (A) (A) (A) (A) (A) (A) (A) (A) (A) (A)
                 (A) (A) (A) (A) (A) (A) (A) (A) (A) (A) (A) (A)
                 (A) (A) (A) (A) (A) (A) (A) (A) (A) (A) (A) (A)
                 (A) (A) (A) (A) (A) (A) (A) (A) (A) (A) (A) (A)
                 (A) (A) (A) (A) (A) (A) (A) (A) (A) (A) (A) (A)
                 (A) (A) (A) (A) (A) (A) (A) (A) (A) (A) (A) (A)
                 (A) (A) (A) (A) (A) (A) (A) (A) (A) (A) (A) (A)
                 (A) (A) (A) (A) (A) (A) (A) (A) (A) (A) (A) (A)
                 (A) (A) (A) (A) (A) (A) (A) (A) (A) (A) (A) (A)
                 (A) (A) (A) (A) (A) (A) (A) (A) (A) (A) (A) (A)
                 (A) (A) (A) (A) (A) (A) (A) (A) (A) (A) (A) (A)
                 (A) (A) (A) (A) (A) (A) (A) (A) (A) (A) (A)
 The electronic state is 1-A.
 Alpha  occ. eigenvalues --  -88.87103 -88.87094 -19.15854 -19.15793 -10.23315
 Alpha  occ. eigenvalues --  -10.23220 -10.23032 -10.22953 -10.20477 -10.20372
 Alpha  occ. eigenvalues --  -10.19604 -10.19494 -10.17756 -10.17578  -7.95667
 Alpha  occ. eigenvalues --   -7.95658  -5.91979  -5.91967  -5.91589  -5.91580
 Alpha  occ. eigenvalues --   -5.91231  -5.91228  -1.07416  -1.07299  -0.88829
 Alpha  occ. eigenvalues --   -0.87013  -0.77136  -0.75527  -0.74097  -0.71737
 Alpha  occ. eigenvalues --   -0.69534  -0.67434  -0.59674  -0.58307  -0.55268
 Alpha  occ. eigenvalues --   -0.55215  -0.53741  -0.48373  -0.47765  -0.47525
 Alpha  occ. eigenvalues --   -0.47294  -0.45830  -0.44433  -0.44147  -0.41526
 Alpha  occ. eigenvalues --   -0.40731  -0.40538  -0.37920  -0.37616  -0.36241
 Alpha  occ. eigenvalues --   -0.35067  -0.33265  -0.32718  -0.32672  -0.32644
 Alpha  occ. eigenvalues --   -0.27473  -0.23810  -0.23486  -0.18472
 Alpha virt. eigenvalues --   -0.03960  -0.00051   0.00352   0.00607   0.01014
 Alpha virt. eigenvalues --    0.01364   0.02148   0.02896   0.02976   0.03648
 Alpha virt. eigenvalues --    0.03940   0.05045   0.05122   0.05240   0.05739
 Alpha virt. eigenvalues --    0.06225   0.06285   0.07085   0.07833   0.08046
 Alpha virt. eigenvalues --    0.08205   0.08875   0.09246   0.09333   0.09524
 Alpha virt. eigenvalues --    0.11611   0.12097   0.12163   0.12226   0.12399
 Alpha virt. eigenvalues --    0.13181   0.13696   0.14040   0.14499   0.15477
 Alpha virt. eigenvalues --    0.15611   0.15960   0.16191   0.16262   0.17091
 Alpha virt. eigenvalues --    0.17755   0.18042   0.18532   0.18912   0.19148
 Alpha virt. eigenvalues --    0.19610   0.19773   0.20126   0.20507   0.20932
 Alpha virt. eigenvalues --    0.20991   0.21749   0.21907   0.22086   0.23132
 Alpha virt. eigenvalues --    0.23221   0.23742   0.24692   0.25095   0.25661
 Alpha virt. eigenvalues --    0.26442   0.26666   0.26855   0.27760   0.27861
 Alpha virt. eigenvalues --    0.28228   0.28720   0.30350   0.30392   0.30820
 Alpha virt. eigenvalues --    0.31597   0.33160   0.34976   0.35219   0.35694
 Alpha virt. eigenvalues --    0.35828   0.36234   0.36690   0.37208   0.38978
 Alpha virt. eigenvalues --    0.39192   0.42944   0.43123   0.43683   0.44559
 Alpha virt. eigenvalues --    0.44715   0.45250   0.46210   0.46963   0.49679
 Alpha virt. eigenvalues --    0.49834   0.50881   0.51211   0.52946   0.54220
 Alpha virt. eigenvalues --    0.55574   0.55931   0.56032   0.57080   0.57238
 Alpha virt. eigenvalues --    0.58177   0.58514   0.60829   0.61808   0.62132
 Alpha virt. eigenvalues --    0.62569   0.63360   0.65071   0.65226   0.65691
 Alpha virt. eigenvalues --    0.66433   0.67019   0.68580   0.70717   0.71726
 Alpha virt. eigenvalues --    0.72239   0.73079   0.74551   0.75486   0.75566
 Alpha virt. eigenvalues --    0.75709   0.76260   0.78162   0.78483   0.78686
 Alpha virt. eigenvalues --    0.79555   0.82062   0.82692   0.83067   0.83944
 Alpha virt. eigenvalues --    0.86363   0.86718   0.86828   0.90180   0.91526
 Alpha virt. eigenvalues --    0.91983   0.92550   0.95664   0.96543   0.97355
 Alpha virt. eigenvalues --    0.99992   1.00239   1.01101   1.01824   1.02408
 Alpha virt. eigenvalues --    1.02632   1.04788   1.05389   1.05666   1.07354
 Alpha virt. eigenvalues --    1.07995   1.08298   1.08492   1.08854   1.10796
 Alpha virt. eigenvalues --    1.12216   1.16208   1.17962   1.22279   1.25607
 Alpha virt. eigenvalues --    1.25762   1.26710   1.31364   1.32030   1.34436
 Alpha virt. eigenvalues --    1.36346   1.36632   1.40582   1.40977   1.42869
 Alpha virt. eigenvalues --    1.42949   1.44044   1.45290   1.46179   1.48352
 Alpha virt. eigenvalues --    1.53582   1.54019   1.54991   1.55422   1.55978
 Alpha virt. eigenvalues --    1.61109   1.61210   1.61884   1.63082   1.64407
 Alpha virt. eigenvalues --    1.64508   1.65511   1.67704   1.68715   1.69876
 Alpha virt. eigenvalues --    1.69926   1.70156   1.73777   1.76192   1.76379
 Alpha virt. eigenvalues --    1.77836   1.78579   1.79052   1.80617   1.81155
 Alpha virt. eigenvalues --    1.82414   1.84841   1.86597   1.87674   1.88431
 Alpha virt. eigenvalues --    1.92131   1.94842   1.95536   1.99901   2.01548
 Alpha virt. eigenvalues --    2.01619   2.02792   2.03816   2.05299   2.06446
 Alpha virt. eigenvalues --    2.07322   2.07987   2.09813   2.11325   2.12336
 Alpha virt. eigenvalues --    2.13421   2.13722   2.14237   2.16133   2.16551
 Alpha virt. eigenvalues --    2.19415   2.20588   2.21281   2.23191   2.40036
 Alpha virt. eigenvalues --    2.42347   2.43519   2.43825   2.45994   2.46425
 Alpha virt. eigenvalues --    2.47117   2.50090   2.50590   2.52139   2.52260
 Alpha virt. eigenvalues --    2.53933   2.55313   2.57324   2.61596   2.64947
 Alpha virt. eigenvalues --    2.66461   2.67712   2.69422   2.69888   2.73449
 Alpha virt. eigenvalues --    2.73889   2.76395   2.78299   2.78937   2.79608
 Alpha virt. eigenvalues --    2.84547   2.85031   2.86345   2.92377   2.96115
 Alpha virt. eigenvalues --    2.99324   3.00277   3.01426   3.04418   3.04738
 Alpha virt. eigenvalues --    3.08599   3.09678   3.14420   3.16169   3.21319
 Alpha virt. eigenvalues --    3.23764   3.23807   3.24555   3.30520   3.31463
 Alpha virt. eigenvalues --    3.34285   3.36111   3.40941   3.45121   3.47374
 Alpha virt. eigenvalues --    3.52395   3.56821   3.75813   3.77100   3.77225
 Alpha virt. eigenvalues --    3.82133   3.85009   4.00812   4.07024   4.09331
 Alpha virt. eigenvalues --    4.12094   4.15319   4.23580   4.30599   4.60667
 Alpha virt. eigenvalues --    5.01621   5.02472   5.42140   5.43083   5.76588
 Alpha virt. eigenvalues --    5.81546   8.02418   8.03201  17.29240  17.30796
 Alpha virt. eigenvalues --   17.48557  17.51080  17.54808  17.58858  23.52741
 Alpha virt. eigenvalues --   23.73085  23.81693  23.85336  23.90864  23.91815
 Alpha virt. eigenvalues --   24.05017  24.05438  24.16203  24.16821  49.96840
 Alpha virt. eigenvalues --   49.97677 189.19304 189.20403
          Condensed to atoms (all electrons):
               1          2          3          4          5          6
     1  C    9.063662   1.115596  -1.633328  -0.242637  -0.497108   0.006792
     2  C    1.115596   9.694337  -2.615117   0.015810   0.216523  -0.131817
     3  C   -1.633328  -2.615117  11.525518  -0.134945   0.136343   0.463010
     4  C   -0.242637   0.015810  -0.134945   6.176628  -0.010637   0.016385
     5  S   -0.497108   0.216523   0.136343  -0.010637  17.256453   0.013735
     6  H    0.006792  -0.131817   0.463010   0.016385   0.013735   0.537237
     7  H    0.031151  -0.072343   0.079606   0.323063  -0.016812  -0.005487
     8  C    0.291404  -1.333780  -1.016765   0.047081  -0.666581  -0.007586
     9  C   -1.067415  -0.665133   0.052528  -0.069447  -0.341497   0.001101
    10  S   -0.689426  -0.383096  -0.083900   0.064011   0.120113  -0.001749
    11  C   -0.699961   0.116080  -0.124080   0.013713  -0.060257   0.000015
    12  C    0.117003  -0.052203   0.018019  -0.009772   0.061045   0.000066
    13  H   -0.003641   0.001577   0.000038   0.000081  -0.001657   0.000000
    14  H    0.006992   0.006895   0.000311   0.000031  -0.000880   0.000000
    15  O   -0.197579   0.374582  -0.073003   0.048868   0.041967  -0.013992
    16  O   -0.243034  -0.043710  -0.005781   0.011366  -0.022094   0.000031
    17  C   -0.129490  -0.053687   0.001754   0.003734  -0.015207  -0.000010
    18  H   -0.002368   0.000788   0.000116  -0.000412  -0.002729   0.000000
    19  H    0.009393   0.000575  -0.000152   0.000868  -0.000226   0.000000
    20  H   -0.002275   0.000806   0.000117  -0.000412  -0.002739   0.000000
    21  C    0.053158   0.073260  -0.205250  -0.047489   0.058444  -0.002717
    22  H   -0.009316  -0.056115   0.061308   0.001444   0.000566  -0.000833
    23  H    0.003901   0.035169  -0.021234   0.000201  -0.000634   0.000368
    24  H   -0.009299  -0.055927   0.061141   0.001441   0.000563  -0.000833
               7          8          9         10         11         12
     1  C    0.031151   0.291404  -1.067415  -0.689426  -0.699961   0.117003
     2  C   -0.072343  -1.333780  -0.665133  -0.383096   0.116080  -0.052203
     3  C    0.079606  -1.016765   0.052528  -0.083900  -0.124080   0.018019
     4  C    0.323063   0.047081  -0.069447   0.064011   0.013713  -0.009772
     5  S   -0.016812  -0.666581  -0.341497   0.120113  -0.060257   0.061045
     6  H   -0.005487  -0.007586   0.001101  -0.001749   0.000015   0.000066
     7  H    0.493702   0.006722   0.006483  -0.000947   0.000294   0.000027
     8  C    0.006722   9.378385   1.120272  -0.450183  -1.506050  -0.192325
     9  C    0.006483   1.120272   9.292229   0.278509  -2.583874   0.063211
    10  S   -0.000947  -0.450183   0.278509  17.281490   0.082999   0.006545
    11  C    0.000294  -1.506050  -2.583874   0.082999  11.151475  -0.215140
    12  C    0.000027  -0.192325   0.063211   0.006545  -0.215140   6.055004
    13  H    0.000000   0.011074  -0.132737   0.013064   0.455785   0.016567
    14  H    0.000000   0.029662  -0.072992  -0.015616   0.076808   0.325838
    15  O   -0.000399  -0.272163  -0.044874  -0.025611  -0.003870   0.009471
    16  O   -0.000024  -0.186665   0.339314   0.046194  -0.096025   0.044177
    17  C   -0.000069   0.074295   0.078468   0.058382  -0.229356  -0.038119
    18  H    0.000000  -0.006692  -0.049603   0.000550   0.052620   0.000810
    19  H   -0.000001   0.000906   0.031462  -0.000581  -0.014019   0.000460
    20  H    0.000000  -0.006669  -0.049756   0.000554   0.052666   0.000791
    21  C    0.000784  -0.124731  -0.046790  -0.017827   0.002359   0.003939
    22  H    0.000038  -0.004126   0.000644  -0.003061   0.000104  -0.000380
    23  H   -0.000001   0.011091   0.000768   0.000842  -0.000061   0.000742
    24  H    0.000038  -0.004182   0.000628  -0.003050   0.000103  -0.000379
              13         14         15         16         17         18
     1  C   -0.003641   0.006992  -0.197579  -0.243034  -0.129490  -0.002368
     2  C    0.001577   0.006895   0.374582  -0.043710  -0.053687   0.000788
     3  C    0.000038   0.000311  -0.073003  -0.005781   0.001754   0.000116
     4  C    0.000081   0.000031   0.048868   0.011366   0.003734  -0.000412
     5  S   -0.001657  -0.000880   0.041967  -0.022094  -0.015207  -0.002729
     6  H    0.000000   0.000000  -0.013992   0.000031  -0.000010   0.000000
     7  H    0.000000   0.000000  -0.000399  -0.000024  -0.000069   0.000000
     8  C    0.011074   0.029662  -0.272163  -0.186665   0.074295  -0.006692
     9  C   -0.132737  -0.072992  -0.044874   0.339314   0.078468  -0.049603
    10  S    0.013064  -0.015616  -0.025611   0.046194   0.058382   0.000550
    11  C    0.455785   0.076808  -0.003870  -0.096025  -0.229356   0.052620
    12  C    0.016567   0.325838   0.009471   0.044177  -0.038119   0.000810
    13  H    0.533951  -0.005279   0.000022  -0.011880  -0.003010  -0.000612
    14  H   -0.005279   0.492308  -0.000028  -0.000358   0.000729   0.000035
    15  O    0.000022  -0.000028   8.234298  -0.001314  -0.000690   0.000000
    16  O   -0.011880  -0.000358  -0.001314   8.250997   0.192488  -0.044198
    17  C   -0.003010   0.000729  -0.000690   0.192488   5.059171   0.418802
    18  H   -0.000612   0.000035   0.000000  -0.044198   0.418802   0.570247
    19  H    0.000258  -0.000001  -0.000002  -0.058565   0.400095  -0.028330
    20  H   -0.000611   0.000035   0.000000  -0.044194   0.418807  -0.050574
    21  C   -0.000009  -0.000051   0.198166  -0.000726  -0.001071   0.000000
    22  H    0.000000   0.000000  -0.042335   0.000000  -0.000001  -0.000000
    23  H    0.000000  -0.000001  -0.060868  -0.000002   0.000000   0.000000
    24  H    0.000000   0.000000  -0.042306   0.000000  -0.000001   0.000000
              19         20         21         22         23         24
     1  C    0.009393  -0.002275   0.053158  -0.009316   0.003901  -0.009299
     2  C    0.000575   0.000806   0.073260  -0.056115   0.035169  -0.055927
     3  C   -0.000152   0.000117  -0.205250   0.061308  -0.021234   0.061141
     4  C    0.000868  -0.000412  -0.047489   0.001444   0.000201   0.001441
     5  S   -0.000226  -0.002739   0.058444   0.000566  -0.000634   0.000563
     6  H    0.000000   0.000000  -0.002717  -0.000833   0.000368  -0.000833
     7  H   -0.000001   0.000000   0.000784   0.000038  -0.000001   0.000038
     8  C    0.000906  -0.006669  -0.124731  -0.004126   0.011091  -0.004182
     9  C    0.031462  -0.049756  -0.046790   0.000644   0.000768   0.000628
    10  S   -0.000581   0.000554  -0.017827  -0.003061   0.000842  -0.003050
    11  C   -0.014019   0.052666   0.002359   0.000104  -0.000061   0.000103
    12  C    0.000460   0.000791   0.003939  -0.000380   0.000742  -0.000379
    13  H    0.000258  -0.000611  -0.000009   0.000000   0.000000   0.000000
    14  H   -0.000001   0.000035  -0.000051   0.000000  -0.000001   0.000000
    15  O   -0.000002   0.000000   0.198166  -0.042335  -0.060868  -0.042306
    16  O   -0.058565  -0.044194  -0.000726   0.000000  -0.000002   0.000000
    17  C    0.400095   0.418807  -0.001071  -0.000001   0.000000  -0.000001
    18  H   -0.028330  -0.050574   0.000000  -0.000000   0.000000   0.000000
    19  H    0.524576  -0.028330  -0.000001   0.000000  -0.000000   0.000000
    20  H   -0.028330   0.570241   0.000000   0.000000   0.000000  -0.000000
    21  C   -0.000001   0.000000   5.060825   0.419383   0.398936   0.419396
    22  H    0.000000   0.000000   0.419383   0.569289  -0.028288  -0.050614
    23  H   -0.000000   0.000000   0.398936  -0.028288   0.524377  -0.028288
    24  H    0.000000  -0.000000   0.419396  -0.050614  -0.028288   0.569260
 Mulliken charges:
               1
     1  C    0.727827
     2  C   -0.189070
     3  C   -0.486253
     4  C   -0.208972
     5  S   -0.266694
     6  H    0.126286
     7  H    0.154173
     8  C    0.807604
     9  C   -0.141501
    10  S   -0.278207
    11  C   -0.472329
    12  C   -0.215396
    13  H    0.127020
    14  H    0.155563
    15  O   -0.128341
    16  O   -0.125995
    17  C   -0.236016
    18  H    0.141550
    19  H    0.161614
    20  H    0.141543
    21  C   -0.241987
    22  H    0.142292
    23  H    0.162982
    24  H    0.142308
 Sum of Mulliken charges =  -0.00000
 Mulliken charges with hydrogens summed into heavy atoms:
               1
     1  C    0.727827
     2  C   -0.189070
     3  C   -0.359967
     4  C   -0.054799
     5  S   -0.266694
     8  C    0.807604
     9  C   -0.141501
    10  S   -0.278207
    11  C   -0.345309
    12  C   -0.059832
    15  O   -0.128341
    16  O   -0.125995
    17  C    0.208690
    21  C    0.205595
 Electronic spatial extent (au):  <R**2>=           3528.3655
 Charge=             -0.0000 electrons
 Dipole moment (field-independent basis, Debye):
    X=             -0.0007    Y=             -0.0477    Z=             -0.0003  Tot=              0.0477
 Quadrupole moment (field-independent basis, Debye-Ang):
   XX=            -70.9523   YY=            -90.4847   ZZ=           -102.0139
   XY=             -3.0670   XZ=              0.0013   YZ=             -0.0001
 Traceless Quadrupole moment (field-independent basis, Debye-Ang):
   XX=             16.8646   YY=             -2.6677   ZZ=            -14.1969
   XY=             -3.0670   XZ=              0.0013   YZ=             -0.0001
 Octapole moment (field-independent basis, Debye-Ang**2):
  XXX=             -1.5841  YYY=             -0.6849  ZZZ=             -0.0011  XYY=              0.4894
  XXY=              0.3921  XXZ=             -0.0029  XZZ=             -0.1931  YZZ=             -0.0601
  YYZ=             -0.0007  XYZ=              0.0025
 Hexadecapole moment (field-independent basis, Debye-Ang**3):
 XXXX=          -2549.9790 YYYY=          -1583.6443 ZZZZ=           -137.0014 XXXY=           -127.0693
 XXXZ=              0.0359 YYYX=             -0.1730 YYYZ=              0.0531 ZZZX=              0.0269
 ZZZY=              0.0550 XXYY=           -666.6652 XXZZ=           -540.2183 YYZZ=           -337.2741
 XXYZ=              0.0305 YYXZ=              0.0228 ZZXY=            -31.0091
 N-N= 1.104424751519D+03 E-N=-5.356790373010D+03  KE= 1.330739890878D+03
 1\1\GINC-CX1-141-15-3\Scan\RB3LYP\6-311+G(d,p)\C10H10O2S2\AP513\15-Jul
 -2019\0\\# opt=modredundant b3lyp/6-311+g(d,p) geom=connectivity\\Titl
 e Card Required\\0,1\C,-0.5846273768,-0.3989136609,0.0002834928\C,-1.8
 983941698,0.043039515,0.0002996893\C,-2.8486443853,-1.0257094194,0.000
 2637382\C,-2.2593593289,-2.256163901,0.0001728365\S,-0.5373758478,-2.1
 543752741,0.0005917345\H,-3.9199528154,-0.8877439171,0.0001925812\H,-2
 .7410918439,-3.2216822391,0.0000591481\C,0.6123607996,0.4110146003,0.0
 001692416\C,1.9335013654,-0.0085730003,0.0001256483\S,0.5616472295,2.1
 687929892,-0.0001577276\C,2.8843846005,1.0517112431,0.0001662224\C,2.2
 845954749,2.2792571897,0.0003147324\H,3.9558278237,0.913530505,0.00022
 57486\H,2.7594912459,3.2481238622,0.0004597691\O,-2.2419456706,1.36035
 55581,0.0002687439\O,2.2141151693,-1.3432746968,0.0001339182\C,3.57984
 57024,-1.7380237025,0.0000511871\H,4.0973869565,-1.3766040521,0.895155
 4173\H,3.5770948935,-2.8268505827,0.0000592572\H,4.097280219,-1.376615
 6093,-0.895119212\C,-3.620822694,1.7022673143,0.0001019127\H,-4.124809
 286,1.3230418413,0.8953230778\H,-3.6558907079,2.7904770512,0.000025661
 6\H,-4.1246173538,1.3229183859,-0.8951748192\\Version=ES64L-G16RevA.03
 \State=1-A\HF=-1334.0517273,-1334.0517241,-1334.051713,-1334.0516942,-
 1334.051668,-1334.0516343,-1334.0515932,-1334.0515446,-1334.0514886,-1
 334.0514253,-1334.0513545,-1334.0512764,-1334.0511909,-1334.0510981,-1
 334.050998,-1334.0508905\RMSD=5.434e-09,5.772e-09,9.700e-09,9.763e-09,
 3.543e-09,9.418e-09,3.482e-09,8.768e-09,3.696e-09,8.672e-09,9.668e-09,
 8.588e-09,9.157e-09,9.396e-09,8.303e-09,4.067e-09\PG=C01 [X(C10H10O2S2
 )]\\@


 CLIMB THE MOUNTAINS AND GET THEIR GOOD TIDINGS.
 NATURE'S PEACE WILL FLOW INTO YOU AS SUNSHINE FLOWS INTO TREES.
 THE WINDS WILL BLOW THEIR OWN FRESHNESS INTO YOU, 
 AND CARES WILL DROP OFF LIKE AUTUMN LEAVES.

                                         -- JOHN MUIR
 Job cpu time:       0 days  6 hours 57 minutes  9.1 seconds.
 Elapsed time:       0 days  0 hours 52 minutes 16.7 seconds.
 File lengths (MBytes):  RWF=     95 Int=      0 D2E=      0 Chk=     14 Scr=      1
 Normal termination of Gaussian 16 at Mon Jul 15 14:39:16 2019.
