 Entering Gaussian System, Link 0=g16
 Input=OBT_50.gjf
 Output=OBT_50.log
 Initial command:
 /apps/gaussian/g16-a03/l1.exe "/tmp/pbs.1042530[23].pbs/Gau-27040.inp" -scrdir="/tmp/pbs.1042530[23].pbs/"
 Entering Link 1 = /apps/gaussian/g16-a03/l1.exe PID=     27041.
  
 Copyright (c) 1988,1990,1992,1993,1995,1998,2003,2009,2016,
            Gaussian, Inc.  All Rights Reserved.
  
 This is part of the Gaussian(R) 16 program.  It is based on
 the Gaussian(R) 09 system (copyright 2009, Gaussian, Inc.),
 the Gaussian(R) 03 system (copyright 2003, Gaussian, Inc.),
 the Gaussian(R) 98 system (copyright 1998, Gaussian, Inc.),
 the Gaussian(R) 94 system (copyright 1995, Gaussian, Inc.),
 the Gaussian 92(TM) system (copyright 1992, Gaussian, Inc.),
 the Gaussian 90(TM) system (copyright 1990, Gaussian, Inc.),
 the Gaussian 88(TM) system (copyright 1988, Gaussian, Inc.),
 the Gaussian 86(TM) system (copyright 1986, Carnegie Mellon
 University), and the Gaussian 82(TM) system (copyright 1983,
 Carnegie Mellon University). Gaussian is a federally registered
 trademark of Gaussian, Inc.
  
 This software contains proprietary and confidential information,
 including trade secrets, belonging to Gaussian, Inc.
  
 This software is provided under written license and may be
 used, copied, transmitted, or stored only in accord with that
 written license.
  
 The following legend is applicable only to US Government
 contracts under FAR:
  
                    RESTRICTED RIGHTS LEGEND
  
 Use, reproduction and disclosure by the US Government is
 subject to restrictions as set forth in subparagraphs (a)
 and (c) of the Commercial Computer Software - Restricted
 Rights clause in FAR 52.227-19.
  
 Gaussian, Inc.
 340 Quinnipiac St., Bldg. 40, Wallingford CT 06492
  
  
 ---------------------------------------------------------------
 Warning -- This program may not be used in any manner that
 competes with the business of Gaussian, Inc. or will provide
 assistance to any competitor of Gaussian, Inc.  The licensee
 of this program is prohibited from giving any competitor of
 Gaussian, Inc. access to this program.  By using this program,
 the user acknowledges that Gaussian, Inc. is engaged in the
 business of creating and licensing software in the field of
 computational chemistry and represents and warrants to the
 licensee that it is not a competitor of Gaussian, Inc. and that
 it will not use this program in any manner prohibited above.
 ---------------------------------------------------------------
  

 Cite this work as:
 Gaussian 16, Revision A.03,
 M. J. Frisch, G. W. Trucks, H. B. Schlegel, G. E. Scuseria, 
 M. A. Robb, J. R. Cheeseman, G. Scalmani, V. Barone, 
 G. A. Petersson, H. Nakatsuji, X. Li, M. Caricato, A. V. Marenich, 
 J. Bloino, B. G. Janesko, R. Gomperts, B. Mennucci, H. P. Hratchian, 
 J. V. Ortiz, A. F. Izmaylov, J. L. Sonnenberg, D. Williams-Young, 
 F. Ding, F. Lipparini, F. Egidi, J. Goings, B. Peng, A. Petrone, 
 T. Henderson, D. Ranasinghe, V. G. Zakrzewski, J. Gao, N. Rega, 
 G. Zheng, W. Liang, M. Hada, M. Ehara, K. Toyota, R. Fukuda, 
 J. Hasegawa, M. Ishida, T. Nakajima, Y. Honda, O. Kitao, H. Nakai, 
 T. Vreven, K. Throssell, J. A. Montgomery, Jr., J. E. Peralta, 
 F. Ogliaro, M. J. Bearpark, J. J. Heyd, E. N. Brothers, K. N. Kudin, 
 V. N. Staroverov, T. A. Keith, R. Kobayashi, J. Normand, 
 K. Raghavachari, A. P. Rendell, J. C. Burant, S. S. Iyengar, 
 J. Tomasi, M. Cossi, J. M. Millam, M. Klene, C. Adamo, R. Cammi, 
 J. W. Ochterski, R. L. Martin, K. Morokuma, O. Farkas, 
 J. B. Foresman, and D. J. Fox, Gaussian, Inc., Wallingford CT, 2016.
 
 ******************************************
 Gaussian 16:  ES64L-G16RevA.03 25-Dec-2016
                 6-Feb-2020 
 ******************************************
 %mem=10GB
 %nprocshared=4
 Will use up to    4 processors via shared memory.
 %chk=gT2_innerdihscan.chk
 --------------------------------------------------------
 # opt=modredundant wb97xd/6-311+g(d,p) geom=connectivity
 --------------------------------------------------------
 1/18=120,19=15,26=3,38=1,57=2/1,3;
 2/9=110,12=2,17=6,18=5,40=1/2;
 3/5=4,6=6,7=111,11=2,25=1,30=1,71=1,74=-58/1,2,3;
 4//1;
 5/5=2,38=5/2;
 6/7=2,8=2,9=2,10=2,28=1/1;
 7//1,2,3,16;
 1/18=20,19=15,26=3/3(2);
 2/9=110/2;
 99//99;
 2/9=110/2;
 3/5=4,6=6,7=111,11=2,25=1,30=1,71=1,74=-58/1,2,3;
 4/5=5,16=3,69=1/1;
 5/5=2,38=5/2;
 7//1,2,3,16;
 1/18=20,19=15,26=3/3(-5);
 2/9=110/2;
 6/7=2,8=2,9=2,10=2,19=2,28=1/1;
 99/9=1/99;
 -------------------
 Title Card Required
 -------------------
 Symbolic Z-matrix:
 Charge =  0 Multiplicity = 1
 C                    -0.59366  -0.41063  -0.00009 
 C                    -1.85905  -0.08036  -0.46235 
 C                    -2.8236   -1.1176   -0.32041 
 C                    -2.291    -2.23886   0.25079 
 S                    -0.61596  -2.05456   0.62428 
 H                    -3.85728  -1.03895  -0.62471 
 H                    -2.79082  -3.16859   0.47473 
 C                     0.59366   0.41063  -0.00009 
 C                     1.85901   0.08042  -0.4625 
 S                     0.61602   2.05447   0.62449 
 C                     2.82357   1.11764  -0.32051 
 C                     2.29103   2.23883   0.25088 
 H                     3.85723   1.03903  -0.62491 
 H                     2.79086   3.16853   0.4749 
 O                    -2.07711   1.1561   -0.99435 
 O                     2.07702  -1.15598  -0.99468 
 C                     3.38558  -1.46138  -1.45856 
 H                     4.11707  -1.40967  -0.64522 
 H                     3.3389   -2.48097  -1.8372 
 H                     3.68718  -0.78757  -2.26745 
 C                    -3.38572   1.46158  -1.45804 
 H                    -4.11711   1.40976  -0.64462 
 H                    -3.33908   2.48122  -1.83654 
 H                    -3.68741   0.78788  -2.26699 
 
 The following ModRedundant input section has been read:
 D       5       1       8       9 F                                           
 

 GradGradGradGradGradGradGradGradGradGradGradGradGradGradGradGradGradGrad
 Berny optimization.
 Initialization pass.
                           ----------------------------
                           !    Initial Parameters    !
                           ! (Angstroms and Degrees)  !
 --------------------------                            --------------------------
 ! Name  Definition              Value          Derivative Info.                !
 --------------------------------------------------------------------------------
 ! R1    R(1,2)                  1.3871         estimate D2E/DX2                !
 ! R2    R(1,5)                  1.7586         estimate D2E/DX2                !
 ! R3    R(1,8)                  1.4437         estimate D2E/DX2                !
 ! R4    R(2,3)                  1.4235         estimate D2E/DX2                !
 ! R5    R(2,15)                 1.3636         estimate D2E/DX2                !
 ! R6    R(3,4)                  1.3664         estimate D2E/DX2                !
 ! R7    R(3,6)                  1.0804         estimate D2E/DX2                !
 ! R8    R(4,5)                  1.726          estimate D2E/DX2                !
 ! R9    R(4,7)                  1.0791         estimate D2E/DX2                !
 ! R10   R(8,9)                  1.3871         estimate D2E/DX2                !
 ! R11   R(8,10)                 1.7586         estimate D2E/DX2                !
 ! R12   R(9,11)                 1.4235         estimate D2E/DX2                !
 ! R13   R(9,16)                 1.3636         estimate D2E/DX2                !
 ! R14   R(10,12)                1.726          estimate D2E/DX2                !
 ! R15   R(11,12)                1.3664         estimate D2E/DX2                !
 ! R16   R(11,13)                1.0804         estimate D2E/DX2                !
 ! R17   R(12,14)                1.0791         estimate D2E/DX2                !
 ! R18   R(15,21)                1.4215         estimate D2E/DX2                !
 ! R19   R(16,17)                1.4215         estimate D2E/DX2                !
 ! R20   R(17,18)                1.0951         estimate D2E/DX2                !
 ! R21   R(17,19)                1.0886         estimate D2E/DX2                !
 ! R22   R(17,20)                1.0951         estimate D2E/DX2                !
 ! R23   R(21,22)                1.0951         estimate D2E/DX2                !
 ! R24   R(21,23)                1.0886         estimate D2E/DX2                !
 ! R25   R(21,24)                1.0951         estimate D2E/DX2                !
 ! A1    A(2,1,5)              109.228          estimate D2E/DX2                !
 ! A2    A(2,1,8)              127.9393         estimate D2E/DX2                !
 ! A3    A(5,1,8)              122.8328         estimate D2E/DX2                !
 ! A4    A(1,2,3)              114.2937         estimate D2E/DX2                !
 ! A5    A(1,2,15)             119.46           estimate D2E/DX2                !
 ! A6    A(3,2,15)             126.2463         estimate D2E/DX2                !
 ! A7    A(2,3,4)              112.0548         estimate D2E/DX2                !
 ! A8    A(2,3,6)              124.5521         estimate D2E/DX2                !
 ! A9    A(4,3,6)              123.3931         estimate D2E/DX2                !
 ! A10   A(3,4,5)              112.4009         estimate D2E/DX2                !
 ! A11   A(3,4,7)              127.8234         estimate D2E/DX2                !
 ! A12   A(5,4,7)              119.7757         estimate D2E/DX2                !
 ! A13   A(1,5,4)               92.0227         estimate D2E/DX2                !
 ! A14   A(1,8,9)              127.9393         estimate D2E/DX2                !
 ! A15   A(1,8,10)             122.8328         estimate D2E/DX2                !
 ! A16   A(9,8,10)             109.228          estimate D2E/DX2                !
 ! A17   A(8,9,11)             114.2937         estimate D2E/DX2                !
 ! A18   A(8,9,16)             119.46           estimate D2E/DX2                !
 ! A19   A(11,9,16)            126.2463         estimate D2E/DX2                !
 ! A20   A(8,10,12)             92.0227         estimate D2E/DX2                !
 ! A21   A(9,11,12)            112.0548         estimate D2E/DX2                !
 ! A22   A(9,11,13)            124.5521         estimate D2E/DX2                !
 ! A23   A(12,11,13)           123.3931         estimate D2E/DX2                !
 ! A24   A(10,12,11)           112.4009         estimate D2E/DX2                !
 ! A25   A(10,12,14)           119.7757         estimate D2E/DX2                !
 ! A26   A(11,12,14)           127.8234         estimate D2E/DX2                !
 ! A27   A(2,15,21)            117.9908         estimate D2E/DX2                !
 ! A28   A(9,16,17)            117.9908         estimate D2E/DX2                !
 ! A29   A(16,17,18)           111.2449         estimate D2E/DX2                !
 ! A30   A(16,17,19)           105.9768         estimate D2E/DX2                !
 ! A31   A(16,17,20)           111.2452         estimate D2E/DX2                !
 ! A32   A(18,17,19)           109.3408         estimate D2E/DX2                !
 ! A33   A(18,17,20)           109.6069         estimate D2E/DX2                !
 ! A34   A(19,17,20)           109.3403         estimate D2E/DX2                !
 ! A35   A(15,21,22)           111.2449         estimate D2E/DX2                !
 ! A36   A(15,21,23)           105.9768         estimate D2E/DX2                !
 ! A37   A(15,21,24)           111.2452         estimate D2E/DX2                !
 ! A38   A(22,21,23)           109.3409         estimate D2E/DX2                !
 ! A39   A(22,21,24)           109.6069         estimate D2E/DX2                !
 ! A40   A(23,21,24)           109.3402         estimate D2E/DX2                !
 ! D1    D(5,1,2,3)              0.0042         estimate D2E/DX2                !
 ! D2    D(5,1,2,15)          -179.9959         estimate D2E/DX2                !
 ! D3    D(8,1,2,3)           -179.9984         estimate D2E/DX2                !
 ! D4    D(8,1,2,15)             0.0015         estimate D2E/DX2                !
 ! D5    D(2,1,5,4)             -0.0042         estimate D2E/DX2                !
 ! D6    D(8,1,5,4)            179.9983         estimate D2E/DX2                !
 ! D7    D(2,1,8,9)           -129.9971         estimate D2E/DX2                !
 ! D8    D(2,1,8,10)            50.0002         estimate D2E/DX2                !
 ! D9    D(5,1,8,9)             50.0            Frozen                          !
 ! D10   D(5,1,8,10)          -130.0028         estimate D2E/DX2                !
 ! D11   D(1,2,3,4)             -0.0018         estimate D2E/DX2                !
 ! D12   D(1,2,3,6)            179.9988         estimate D2E/DX2                !
 ! D13   D(15,2,3,4)           179.9983         estimate D2E/DX2                !
 ! D14   D(15,2,3,6)            -0.0011         estimate D2E/DX2                !
 ! D15   D(1,2,15,21)         -179.9784         estimate D2E/DX2                !
 ! D16   D(3,2,15,21)            0.0215         estimate D2E/DX2                !
 ! D17   D(2,3,4,5)             -0.0015         estimate D2E/DX2                !
 ! D18   D(2,3,4,7)           -179.9988         estimate D2E/DX2                !
 ! D19   D(6,3,4,5)            179.9978         estimate D2E/DX2                !
 ! D20   D(6,3,4,7)              0.0006         estimate D2E/DX2                !
 ! D21   D(3,4,5,1)              0.0033         estimate D2E/DX2                !
 ! D22   D(7,4,5,1)           -179.9992         estimate D2E/DX2                !
 ! D23   D(1,8,9,11)          -179.9983         estimate D2E/DX2                !
 ! D24   D(1,8,9,16)             0.0014         estimate D2E/DX2                !
 ! D25   D(10,8,9,11)            0.0041         estimate D2E/DX2                !
 ! D26   D(10,8,9,16)         -179.9961         estimate D2E/DX2                !
 ! D27   D(1,8,10,12)          179.9982         estimate D2E/DX2                !
 ! D28   D(9,8,10,12)           -0.0042         estimate D2E/DX2                !
 ! D29   D(8,9,11,12)           -0.0018         estimate D2E/DX2                !
 ! D30   D(8,9,11,13)          179.9988         estimate D2E/DX2                !
 ! D31   D(16,9,11,12)         179.9985         estimate D2E/DX2                !
 ! D32   D(16,9,11,13)          -0.001          estimate D2E/DX2                !
 ! D33   D(8,9,16,17)         -179.9802         estimate D2E/DX2                !
 ! D34   D(11,9,16,17)           0.0196         estimate D2E/DX2                !
 ! D35   D(8,10,12,11)           0.0033         estimate D2E/DX2                !
 ! D36   D(8,10,12,14)        -179.9992         estimate D2E/DX2                !
 ! D37   D(9,11,12,10)          -0.0015         estimate D2E/DX2                !
 ! D38   D(9,11,12,14)        -179.9988         estimate D2E/DX2                !
 ! D39   D(13,11,12,10)        179.9979         estimate D2E/DX2                !
 ! D40   D(13,11,12,14)          0.0007         estimate D2E/DX2                !
 ! D41   D(2,15,21,22)          61.2425         estimate D2E/DX2                !
 ! D42   D(2,15,21,23)         179.9882         estimate D2E/DX2                !
 ! D43   D(2,15,21,24)         -61.2668         estimate D2E/DX2                !
 ! D44   D(9,16,17,18)          61.2435         estimate D2E/DX2                !
 ! D45   D(9,16,17,19)         179.9891         estimate D2E/DX2                !
 ! D46   D(9,16,17,20)         -61.2658         estimate D2E/DX2                !
 --------------------------------------------------------------------------------
 Trust Radius=3.00D-01 FncErr=1.00D-07 GrdErr=1.00D-06 EigMax=2.50D+02 EigMin=1.00D-04
 Number of steps in this run=    121 maximum allowed number of steps=    144.
 GradGradGradGradGradGradGradGradGradGradGradGradGradGradGradGradGradGrad

                          Input orientation:                          
 ---------------------------------------------------------------------
 Center     Atomic      Atomic             Coordinates (Angstroms)
 Number     Number       Type             X           Y           Z
 ---------------------------------------------------------------------
      1          6           0       -0.593663   -0.410632   -0.000087
      2          6           0       -1.859048   -0.080359   -0.462351
      3          6           0       -2.823595   -1.117597   -0.320408
      4          6           0       -2.291002   -2.238860    0.250789
      5         16           0       -0.615963   -2.054556    0.624282
      6          1           0       -3.857281   -1.038947   -0.624706
      7          1           0       -2.790820   -3.168590    0.474731
      8          6           0        0.593663    0.410632   -0.000087
      9          6           0        1.859007    0.080418   -0.462505
     10         16           0        0.616019    2.054474    0.624494
     11          6           0        2.823567    1.117637   -0.320513
     12          6           0        2.291025    2.238826    0.250877
     13          1           0        3.857227    1.039026   -0.624912
     14          1           0        2.790864    3.168526    0.474896
     15          8           0       -2.077112    1.156104   -0.994347
     16          8           0        2.077024   -1.155977   -0.994678
     17          6           0        3.385578   -1.461383   -1.458564
     18          1           0        4.117067   -1.409668   -0.645218
     19          1           0        3.338902   -2.480968   -1.837197
     20          1           0        3.687180   -0.787569   -2.267448
     21          6           0       -3.385716    1.461583   -1.458044
     22          1           0       -4.117113    1.409760   -0.644622
     23          1           0       -3.339076    2.481220   -1.836542
     24          1           0       -3.687414    0.787882   -2.266988
 ---------------------------------------------------------------------
                    Distance matrix (angstroms):
                    1          2          3          4          5
     1  C    0.000000
     2  C    1.387071   0.000000
     3  C    2.361144   1.423503   0.000000
     4  C    2.507253   2.313931   1.366438   0.000000
     5  S    1.758641   2.573613   2.577590   1.726042   0.000000
     6  H    3.381735   2.222203   1.080412   2.158591   3.619058
     7  H    3.557989   3.359090   2.199975   1.079058   2.448151
     8  C    1.443682   2.543728   3.757092   3.924798   2.816058
     9  C    2.543728   3.721529   4.835514   4.807329   3.444517
    10  S    2.816058   3.444518   4.773450   5.198379   4.289745
    11  C    3.757092   4.835514   6.073443   6.144207   4.773449
    12  C    3.924798   4.807330   6.144207   6.406610   5.198379
    13  H    4.722535   5.827113   7.026886   7.022258   5.580337
    14  H    4.948839   5.749380   7.108130   7.423976   6.237738
    15  O    2.375676   1.363603   2.486191   3.622415   3.881141
    16  O    2.945729   4.114971   4.946936   4.669419   3.268127
    17  C    4.366417   5.514143   6.321980   5.979124   4.549993
    18  H    4.858523   6.124905   6.954395   6.523323   4.942579
    19  H    4.808985   5.888278   6.491210   6.009503   4.677784
    20  H    4.858871   5.875302   6.803682   6.647287   5.337078
    21  C    3.664204   2.387406   2.874433   4.220401   4.936684
    22  H    4.017954   2.711556   2.857593   4.177185   5.086222
    23  H    4.390064   3.261989   3.939018   5.266361   5.834746
    24  H    4.018280   2.711730   2.857658   4.177360   5.086522
                    6          7          8          9         10
     6  H    0.000000
     7  H    2.623258   0.000000
     8  C    4.722535   4.948839   0.000000
     9  C    5.827112   5.749379   1.387071   0.000000
    10  S    5.580338   6.237739   1.758641   2.573613   0.000000
    11  C    7.026886   7.108129   2.361144   1.423503   2.577590
    12  C    7.022259   7.423975   2.507253   2.313931   1.726042
    13  H    7.989468   7.944166   3.381735   2.222203   3.619058
    14  H    7.944167   8.444776   3.557989   3.359090   2.448151
    15  O    2.850243   4.622829   2.945729   4.114971   3.268129
    16  O    5.946978   5.468608   2.375676   1.363603   3.881141
    17  C    7.302930   6.693286   3.664204   2.387406   4.936684
    18  H    7.982988   7.215747   4.017968   2.711564   5.086236
    19  H    7.438724   6.587210   4.390064   3.261989   5.834746
    20  H    7.725328   7.426527   4.018266   2.711723   5.086509
    21  C    2.677587   5.052526   4.366417   5.514149   4.549986
    22  H    2.462534   4.896253   4.858508   6.124894   4.942556
    23  H    3.758810   6.128859   4.808985   5.888284   4.677776
    24  H    2.462366   4.896384   4.858887   5.875326   5.337084
                   11         12         13         14         15
    11  C    0.000000
    12  C    1.366438   0.000000
    13  H    1.080412   2.158591   0.000000
    14  H    2.199975   1.079058   2.623258   0.000000
    15  O    4.946937   4.669421   5.946979   5.468611   0.000000
    16  O    2.486192   3.622415   2.850243   4.622829   4.754215
    17  C    2.874433   4.220401   2.677587   5.052526   6.075173
    18  H    2.857595   4.177191   2.462526   4.896258   6.713638
    19  H    3.939018   5.266361   3.758810   6.128859   6.578138
    20  H    2.857655   4.177353   2.462375   4.896379   6.214959
    21  C    6.321984   5.979123   7.302937   6.693285   1.421541
    22  H    6.954382   6.523305   7.982978   7.215728   2.085247
    23  H    6.491215   6.009502   7.438733   6.587207   2.014393
    24  H    6.803704   6.647302   7.725354   7.426539   2.085252
                   16         17         18         19         20
    16  O    0.000000
    17  C    1.421541   0.000000
    18  H    2.085248   1.095118   0.000000
    19  H    2.014393   1.088621   1.781583   0.000000
    20  H    2.085251   1.095118   1.789816   1.781577   0.000000
    21  C    6.075184   7.375240   8.074437   7.804356   7.465902
    22  H    6.713634   8.074426   8.703500   8.494244   8.268544
    23  H    6.578151   7.804355   8.494253   8.319778   7.761375
    24  H    6.214991   7.465921   8.268573   7.761394   7.541001
                   21         22         23         24
    21  C    0.000000
    22  H    1.095117   0.000000
    23  H    1.088621   1.781584   0.000000
    24  H    1.095118   1.789816   1.781576   0.000000
 Stoichiometry    C10H10O2S2
 Framework group  C1[X(C10H10O2S2)]
 Deg. of freedom    66
 Full point group                 C1      NOp   1
 Largest Abelian subgroup         C1      NOp   1
 Largest concise Abelian subgroup C1      NOp   1
                         Standard orientation:                         
 ---------------------------------------------------------------------
 Center     Atomic      Atomic             Coordinates (Angstroms)
 Number     Number       Type             X           Y           Z
 ---------------------------------------------------------------------
      1          6           0       -0.647741    0.318568   -0.250889
      2          6           0       -1.850550   -0.194784    0.211375
      3          6           0       -2.957575    0.688794    0.069432
      4          6           0       -2.596240    1.876364   -0.501765
      5         16           0       -0.912340    1.941211   -0.875258
      6          1           0       -3.968344    0.458495    0.373731
      7          1           0       -3.227760    2.722176   -0.725707
      8          6           0        0.647759   -0.318531   -0.250889
      9          6           0        1.850536    0.194756    0.211529
     10         16           0        0.912402   -1.941085   -0.875470
     11          6           0        2.957571   -0.688801    0.069537
     12          6           0        2.596276   -1.876291   -0.501853
     13          1           0        3.968320   -0.458545    0.373936
     14          1           0        3.227812   -2.722071   -0.725872
     15          8           0       -1.883800   -1.449889    0.743371
     16          8           0        1.883750    1.449787    0.743702
     17          6           0        3.132925    1.944914    1.207589
     18          1           0        3.864039    2.001688    0.394242
     19          1           0        2.936331    2.946454    1.586221
     20          1           0        3.530640    1.322972    2.016472
     21          6           0       -3.133014   -1.945095    1.207068
     22          1           0       -3.864053   -2.001749    0.393647
     23          1           0       -2.936448   -2.946692    1.585566
     24          1           0       -3.530808   -1.323280    2.016012
 ---------------------------------------------------------------------
 Rotational constants (GHZ):           0.7578881           0.4521678           0.3293866
 Standard basis: 6-311+G(d,p) (5D, 7F)
 There are   398 symmetry adapted cartesian basis functions of A   symmetry.
 There are   384 symmetry adapted basis functions of A   symmetry.
   384 basis functions,   612 primitive gaussians,   398 cartesian basis functions
    59 alpha electrons       59 beta electrons
       nuclear repulsion energy      1099.2336054548 Hartrees.
 NAtoms=   24 NActive=   24 NUniq=   24 SFac= 1.00D+00 NAtFMM=   60 NAOKFM=F Big=F
 Integral buffers will be    131072 words long.
 Raffenetti 2 integral format.
 Two-electron integral symmetry is turned on.
 Nuclear repulsion after empirical dispersion term =     1099.2202597042 Hartrees.
 One-electron integrals computed using PRISM.
 NBasis=   384 RedAO= T EigKep=  1.29D-06  NBF=   384
 NBsUse=   383 1.00D-06 EigRej=  7.71D-07 NBFU=   383
 ExpMin= 4.05D-02 ExpMax= 9.34D+04 ExpMxC= 3.17D+03 IAcc=3 IRadAn=         5 AccDes= 0.00D+00
 Harris functional with IExCor= 4639 and IRadAn=       5 diagonalized for initial guess.
 HarFok:  IExCor= 4639 AccDes= 0.00D+00 IRadAn=         5 IDoV= 1 UseB2=F ITyADJ=14
 ICtDFT=  3500011 ScaDFX=  1.000000  1.000000  1.000000  1.000000
 FoFCou: FMM=F IPFlag=           0 FMFlag=      100000 FMFlg1=           0
         NFxFlg=           0 DoJE=T BraDBF=F KetDBF=T FulRan=T
         wScrn=  0.000000 ICntrl=       500 IOpCl=  0 I1Cent=   200000004 NGrid=           0
         NMat0=    1 NMatS0=      1 NMatT0=    0 NMatD0=    1 NMtDS0=    0 NMtDT0=    0
 Petite list used in FoFCou.
 Requested convergence on RMS density matrix=1.00D-08 within 128 cycles.
 Requested convergence on MAX density matrix=1.00D-06.
 Requested convergence on             energy=1.00D-06.
 No special actions if energy rises.
 SCF Done:  E(RwB97XD) =  -1333.82337856     A.U. after   17 cycles
            NFock= 17  Conv=0.54D-08     -V/T= 2.0025

 **********************************************************************

            Population analysis using the SCF density.

 **********************************************************************

 Orbital symmetries:
       Occupied  (A) (A) (A) (A) (A) (A) (A) (A) (A) (A) (A) (A)
                 (A) (A) (A) (A) (A) (A) (A) (A) (A) (A) (A) (A)
                 (A) (A) (A) (A) (A) (A) (A) (A) (A) (A) (A) (A)
                 (A) (A) (A) (A) (A) (A) (A) (A) (A) (A) (A) (A)
                 (A) (A) (A) (A) (A) (A) (A) (A) (A) (A) (A)
       Virtual   (A) (A) (A) (A) (A) (A) (A) (A) (A) (A) (A) (A)
                 (A) (A) (A) (A) (A) (A) (A) (A) (A) (A) (A) (A)
                 (A) (A) (A) (A) (A) (A) (A) (A) (A) (A) (A) (A)
                 (A) (A) (A) (A) (A) (A) (A) (A) (A) (A) (A) (A)
                 (A) (A) (A) (A) (A) (A) (A) (A) (A) (A) (A) (A)
                 (A) (A) (A) (A) (A) (A) (A) (A) (A) (A) (A) (A)
                 (A) (A) (A) (A) (A) (A) (A) (A) (A) (A) (A) (A)
                 (A) (A) (A) (A) (A) (A) (A) (A) (A) (A) (A) (A)
                 (A) (A) (A) (A) (A) (A) (A) (A) (A) (A) (A) (A)
                 (A) (A) (A) (A) (A) (A) (A) (A) (A) (A) (A) (A)
                 (A) (A) (A) (A) (A) (A) (A) (A) (A) (A) (A) (A)
                 (A) (A) (A) (A) (A) (A) (A) (A) (A) (A) (A) (A)
                 (A) (A) (A) (A) (A) (A) (A) (A) (A) (A) (A) (A)
                 (A) (A) (A) (A) (A) (A) (A) (A) (A) (A) (A) (A)
                 (A) (A) (A) (A) (A) (A) (A) (A) (A) (A) (A) (A)
                 (A) (A) (A) (A) (A) (A) (A) (A) (A) (A) (A) (A)
                 (A) (A) (A) (A) (A) (A) (A) (A) (A) (A) (A) (A)
                 (A) (A) (A) (A) (A) (A) (A) (A) (A) (A) (A) (A)
                 (A) (A) (A) (A) (A) (A) (A) (A) (A) (A) (A) (A)
                 (A) (A) (A) (A) (A) (A) (A) (A) (A) (A) (A) (A)
                 (A) (A) (A) (A) (A) (A) (A) (A) (A) (A) (A) (A)
                 (A) (A) (A) (A) (A) (A) (A) (A) (A) (A) (A) (A)
                 (A) (A) (A) (A) (A) (A) (A) (A) (A) (A) (A) (A)
                 (A) (A) (A) (A) (A) (A) (A) (A) (A) (A) (A) (A)
                 (A) (A) (A) (A) (A) (A) (A) (A) (A) (A) (A) (A)
                 (A) (A) (A) (A) (A) (A) (A) (A) (A) (A) (A) (A)
                 (A) (A) (A) (A) (A) (A) (A) (A) (A) (A) (A) (A)
 The electronic state is 1-A.
 Alpha  occ. eigenvalues --  -89.03968 -89.03968 -19.27776 -19.27775 -10.34786
 Alpha  occ. eigenvalues --  -10.34786 -10.33815 -10.33815 -10.31525 -10.31525
 Alpha  occ. eigenvalues --  -10.31463 -10.31425 -10.29135 -10.29134  -8.07956
 Alpha  occ. eigenvalues --   -8.07955  -6.02793  -6.02793  -6.02417  -6.02417
 Alpha  occ. eigenvalues --   -6.02053  -6.02053  -1.16985  -1.16902  -0.98805
 Alpha  occ. eigenvalues --   -0.97075  -0.86924  -0.84787  -0.83797  -0.81509
 Alpha  occ. eigenvalues --   -0.78720  -0.76738  -0.69043  -0.66838  -0.64335
 Alpha  occ. eigenvalues --   -0.63701  -0.62756  -0.57248  -0.56114  -0.55945
 Alpha  occ. eigenvalues --   -0.55163  -0.54084  -0.52717  -0.52530  -0.49488
 Alpha  occ. eigenvalues --   -0.49299  -0.48531  -0.46481  -0.45723  -0.43135
 Alpha  occ. eigenvalues --   -0.42422  -0.41874  -0.41708  -0.40968  -0.40675
 Alpha  occ. eigenvalues --   -0.33621  -0.31483  -0.30088  -0.26347
 Alpha virt. eigenvalues --    0.02838   0.06066   0.06258   0.06363   0.07089
 Alpha virt. eigenvalues --    0.07498   0.08036   0.08673   0.08988   0.09162
 Alpha virt. eigenvalues --    0.09180   0.10668   0.11219   0.11435   0.11925
 Alpha virt. eigenvalues --    0.12054   0.12163   0.12411   0.13682   0.13989
 Alpha virt. eigenvalues --    0.13990   0.14347   0.14351   0.15012   0.15490
 Alpha virt. eigenvalues --    0.16835   0.17443   0.17714   0.18549   0.18843
 Alpha virt. eigenvalues --    0.19135   0.19864   0.20161   0.20687   0.20849
 Alpha virt. eigenvalues --    0.21053   0.21960   0.22346   0.22765   0.23229
 Alpha virt. eigenvalues --    0.23272   0.23974   0.24877   0.25194   0.25478
 Alpha virt. eigenvalues --    0.25582   0.25686   0.26222   0.26483   0.27322
 Alpha virt. eigenvalues --    0.27464   0.27722   0.28155   0.28339   0.28816
 Alpha virt. eigenvalues --    0.28925   0.29855   0.30231   0.30464   0.31568
 Alpha virt. eigenvalues --    0.32133   0.33323   0.33359   0.33894   0.34529
 Alpha virt. eigenvalues --    0.34621   0.34928   0.35896   0.36797   0.36982
 Alpha virt. eigenvalues --    0.37793   0.38888   0.39922   0.39957   0.41336
 Alpha virt. eigenvalues --    0.41682   0.42756   0.43583   0.44827   0.45242
 Alpha virt. eigenvalues --    0.45960   0.46834   0.47101   0.48677   0.48946
 Alpha virt. eigenvalues --    0.51109   0.52735   0.53088   0.54493   0.55080
 Alpha virt. eigenvalues --    0.55838   0.55979   0.56661   0.58051   0.58752
 Alpha virt. eigenvalues --    0.61086   0.63230   0.64012   0.64497   0.64521
 Alpha virt. eigenvalues --    0.66203   0.67129   0.69620   0.70351   0.70847
 Alpha virt. eigenvalues --    0.71021   0.71635   0.72423   0.73541   0.73878
 Alpha virt. eigenvalues --    0.74229   0.75178   0.75983   0.77344   0.78635
 Alpha virt. eigenvalues --    0.79660   0.80642   0.81437   0.82761   0.82962
 Alpha virt. eigenvalues --    0.84047   0.85369   0.85782   0.86535   0.86869
 Alpha virt. eigenvalues --    0.87067   0.87605   0.88616   0.88817   0.92397
 Alpha virt. eigenvalues --    0.92502   0.93873   0.94215   0.94870   0.96960
 Alpha virt. eigenvalues --    0.97305   0.98478   1.01339   1.02323   1.04049
 Alpha virt. eigenvalues --    1.05644   1.06930   1.07512   1.08665   1.09086
 Alpha virt. eigenvalues --    1.09220   1.09908   1.10825   1.12109   1.13762
 Alpha virt. eigenvalues --    1.13852   1.14811   1.17230   1.17667   1.18871
 Alpha virt. eigenvalues --    1.20054   1.21873   1.26166   1.26376   1.29841
 Alpha virt. eigenvalues --    1.30754   1.32456   1.38479   1.39642   1.41084
 Alpha virt. eigenvalues --    1.45242   1.45266   1.46292   1.46805   1.49582
 Alpha virt. eigenvalues --    1.50558   1.52080   1.52166   1.54752   1.56309
 Alpha virt. eigenvalues --    1.57418   1.62081   1.63539   1.63644   1.64182
 Alpha virt. eigenvalues --    1.68586   1.69228   1.70752   1.71186   1.71777
 Alpha virt. eigenvalues --    1.72234   1.72485   1.74912   1.75017   1.77880
 Alpha virt. eigenvalues --    1.78608   1.78959   1.79680   1.81015   1.83674
 Alpha virt. eigenvalues --    1.86057   1.86475   1.86662   1.87876   1.89402
 Alpha virt. eigenvalues --    1.90217   1.91657   1.91952   1.93598   1.93910
 Alpha virt. eigenvalues --    1.97776   2.00492   2.03006   2.04767   2.06773
 Alpha virt. eigenvalues --    2.07690   2.09594   2.10622   2.11622   2.12670
 Alpha virt. eigenvalues --    2.14319   2.14880   2.16176   2.17208   2.18127
 Alpha virt. eigenvalues --    2.21393   2.21587   2.23159   2.23443   2.24842
 Alpha virt. eigenvalues --    2.26619   2.28634   2.29076   2.29886   2.36807
 Alpha virt. eigenvalues --    2.43008   2.50814   2.52382   2.53387   2.53840
 Alpha virt. eigenvalues --    2.55952   2.57846   2.58086   2.59507   2.60625
 Alpha virt. eigenvalues --    2.62443   2.63851   2.64468   2.64600   2.69343
 Alpha virt. eigenvalues --    2.72740   2.76313   2.77360   2.81615   2.82247
 Alpha virt. eigenvalues --    2.82469   2.84234   2.87067   2.87647   2.88043
 Alpha virt. eigenvalues --    2.90707   2.94591   2.94772   2.98607   3.03701
 Alpha virt. eigenvalues --    3.09229   3.09621   3.10646   3.10703   3.14307
 Alpha virt. eigenvalues --    3.14372   3.17651   3.18313   3.24027   3.24605
 Alpha virt. eigenvalues --    3.28689   3.33927   3.33978   3.36593   3.40339
 Alpha virt. eigenvalues --    3.40540   3.42269   3.44230   3.50086   3.55723
 Alpha virt. eigenvalues --    3.57030   3.61335   3.66642   3.84590   3.87503
 Alpha virt. eigenvalues --    3.87595   3.92410   3.95140   4.10183   4.17318
 Alpha virt. eigenvalues --    4.20295   4.20612   4.25561   4.32482   4.39494
 Alpha virt. eigenvalues --    4.60111   5.14862   5.15345   5.53124   5.54739
 Alpha virt. eigenvalues --    5.87236   5.90630   8.12372   8.14145  17.44798
 Alpha virt. eigenvalues --   17.45545  17.62436  17.64589  17.65699  17.67161
 Alpha virt. eigenvalues --   23.65435  23.85421  23.95565  23.98051  24.04486
 Alpha virt. eigenvalues --   24.04818  24.16741  24.20180  24.28821  24.29040
 Alpha virt. eigenvalues --   50.10236  50.11188 189.37417 189.39977
          Condensed to atoms (all electrons):
               1          2          3          4          5          6
     1  C   26.471989 -19.770434   1.689532  -2.162681  -1.387224  -0.047274
     2  C  -19.770434  31.456181  -4.652180   2.307492   0.385183  -0.031535
     3  C    1.689532  -4.652180  10.121468  -0.680503  -0.069125   0.428352
     4  C   -2.162681   2.307492  -0.680503   6.599111  -0.182321   0.014308
     5  S   -1.387224   0.385183  -0.069125  -0.182321  17.947482   0.009624
     6  H   -0.047274  -0.031535   0.428352   0.014308   0.009624   0.495450
     7  H    0.007881  -0.003334   0.025641   0.371741  -0.029524  -0.003604
     8  C    4.065152  -3.108527  -0.195650  -0.134934   0.078450  -0.007426
     9  C   -3.108305   0.206585  -0.030019   0.132142  -0.531758  -0.003869
    10  S    0.078458  -0.531760  -0.120472  -0.036325   0.099076  -0.000425
    11  C   -0.195642  -0.030081   0.002064  -0.009622  -0.120471   0.000097
    12  C   -0.134929   0.132155  -0.009621   0.006842  -0.036325  -0.000062
    13  H   -0.007425  -0.003869   0.000097  -0.000062  -0.000425   0.000000
    14  H   -0.004817  -0.002234  -0.000049   0.000042   0.000101   0.000000
    15  O   -0.249301   0.384948  -0.063688  -0.015082   0.051294  -0.009059
    16  O   -0.000228  -0.149472   0.009621  -0.004708  -0.007595   0.000009
    17  C   -0.025381  -0.030227  -0.005591   0.004069  -0.004098  -0.000022
    18  H   -0.002129   0.001433  -0.000277   0.000562  -0.003761   0.000000
    19  H    0.006473   0.002734   0.000496  -0.000198  -0.000669  -0.000000
    20  H   -0.004598  -0.003379  -0.000403  -0.000175   0.001020  -0.000000
    21  C   -0.497768   0.548013  -0.363200  -0.040469   0.096399   0.001281
    22  H   -0.045443   0.011902   0.017217   0.011189  -0.003255  -0.000080
    23  H   -0.001054   0.031894  -0.006164   0.003838  -0.002337   0.000193
    24  H    0.009075  -0.052317   0.043624  -0.008619   0.003504  -0.000096
               7          8          9         10         11         12
     1  C    0.007881   4.065152  -3.108305   0.078458  -0.195642  -0.134929
     2  C   -0.003334  -3.108527   0.206585  -0.531760  -0.030081   0.132155
     3  C    0.025641  -0.195650  -0.030019  -0.120472   0.002064  -0.009621
     4  C    0.371741  -0.134934   0.132142  -0.036325  -0.009622   0.006842
     5  S   -0.029524   0.078450  -0.531758   0.099076  -0.120471  -0.036325
     6  H   -0.003604  -0.007426  -0.003869  -0.000425   0.000097  -0.000062
     7  H    0.450631  -0.004817  -0.002233   0.000101  -0.000049   0.000042
     8  C   -0.004817  26.472017 -19.770326  -1.387184   1.689582  -2.162684
     9  C   -0.002233 -19.770326  31.455900   0.385136  -4.652240   2.307495
    10  S    0.000101  -1.387184   0.385136  17.947485  -0.069117  -0.182329
    11  C   -0.000049   1.689582  -4.652240  -0.069117  10.121553  -0.680520
    12  C    0.000042  -2.162684   2.307495  -0.182329  -0.680520   6.599121
    13  H    0.000000  -0.047274  -0.031536   0.009624   0.428353   0.014308
    14  H    0.000000   0.007880  -0.003334  -0.029524   0.025641   0.371741
    15  O   -0.000183  -0.000225  -0.149475  -0.007595   0.009621  -0.004708
    16  O   -0.000039  -0.249303   0.384954   0.051294  -0.063691  -0.015083
    17  C   -0.000039  -0.497757   0.548003   0.096398  -0.363208  -0.040469
    18  H   -0.000000  -0.045453   0.011904  -0.003256   0.017223   0.011192
    19  H   -0.000000  -0.001052   0.031893  -0.002337  -0.006164   0.003838
    20  H    0.000000   0.009084  -0.052321   0.003504   0.043621  -0.008621
    21  C    0.000830  -0.025386  -0.030230  -0.004099  -0.005591   0.004069
    22  H    0.000024  -0.002129   0.001433  -0.003761  -0.000277   0.000562
    23  H   -0.000000   0.006473   0.002734  -0.000669   0.000496  -0.000198
    24  H    0.000019  -0.004598  -0.003378   0.001020  -0.000403  -0.000175
              13         14         15         16         17         18
     1  C   -0.007425  -0.004817  -0.249301  -0.000228  -0.025381  -0.002129
     2  C   -0.003869  -0.002234   0.384948  -0.149472  -0.030227   0.001433
     3  C    0.000097  -0.000049  -0.063688   0.009621  -0.005591  -0.000277
     4  C   -0.000062   0.000042  -0.015082  -0.004708   0.004069   0.000562
     5  S   -0.000425   0.000101   0.051294  -0.007595  -0.004098  -0.003761
     6  H    0.000000   0.000000  -0.009059   0.000009  -0.000022   0.000000
     7  H    0.000000   0.000000  -0.000183  -0.000039  -0.000039  -0.000000
     8  C   -0.047274   0.007880  -0.000225  -0.249303  -0.497757  -0.045453
     9  C   -0.031536  -0.003334  -0.149475   0.384954   0.548003   0.011904
    10  S    0.009624  -0.029524  -0.007595   0.051294   0.096398  -0.003256
    11  C    0.428353   0.025641   0.009621  -0.063691  -0.363208   0.017223
    12  C    0.014308   0.371741  -0.004708  -0.015083  -0.040469   0.011192
    13  H    0.495450  -0.003604   0.000009  -0.009059   0.001281  -0.000080
    14  H   -0.003604   0.450631  -0.000039  -0.000183   0.000830   0.000024
    15  O    0.000009  -0.000039   8.145355  -0.001013  -0.000555   0.000005
    16  O   -0.009059  -0.000183  -0.001013   8.145352   0.175383  -0.037954
    17  C    0.001281   0.000830  -0.000555   0.175383   5.218770   0.418760
    18  H   -0.000080   0.000024   0.000005  -0.037954   0.418760   0.543843
    19  H    0.000193  -0.000000  -0.000007  -0.065035   0.402648  -0.023449
    20  H   -0.000096   0.000019   0.000003  -0.036896   0.415613  -0.047984
    21  C   -0.000022  -0.000039   0.175382  -0.000555  -0.000663  -0.000000
    22  H    0.000000  -0.000000  -0.037953   0.000005  -0.000000   0.000000
    23  H   -0.000000  -0.000000  -0.065035  -0.000007  -0.000005   0.000000
    24  H   -0.000000   0.000000  -0.036897   0.000003  -0.000005   0.000000
              19         20         21         22         23         24
     1  C    0.006473  -0.004598  -0.497768  -0.045443  -0.001054   0.009075
     2  C    0.002734  -0.003379   0.548013   0.011902   0.031894  -0.052317
     3  C    0.000496  -0.000403  -0.363200   0.017217  -0.006164   0.043624
     4  C   -0.000198  -0.000175  -0.040469   0.011189   0.003838  -0.008619
     5  S   -0.000669   0.001020   0.096399  -0.003255  -0.002337   0.003504
     6  H   -0.000000  -0.000000   0.001281  -0.000080   0.000193  -0.000096
     7  H   -0.000000   0.000000   0.000830   0.000024  -0.000000   0.000019
     8  C   -0.001052   0.009084  -0.025386  -0.002129   0.006473  -0.004598
     9  C    0.031893  -0.052321  -0.030230   0.001433   0.002734  -0.003378
    10  S   -0.002337   0.003504  -0.004099  -0.003761  -0.000669   0.001020
    11  C   -0.006164   0.043621  -0.005591  -0.000277   0.000496  -0.000403
    12  C    0.003838  -0.008621   0.004069   0.000562  -0.000198  -0.000175
    13  H    0.000193  -0.000096  -0.000022   0.000000  -0.000000  -0.000000
    14  H   -0.000000   0.000019  -0.000039  -0.000000  -0.000000   0.000000
    15  O   -0.000007   0.000003   0.175382  -0.037953  -0.065035  -0.036897
    16  O   -0.065035  -0.036896  -0.000555   0.000005  -0.000007   0.000003
    17  C    0.402648   0.415613  -0.000663  -0.000000  -0.000005  -0.000005
    18  H   -0.023449  -0.047984  -0.000000   0.000000   0.000000   0.000000
    19  H    0.497142  -0.021981  -0.000005   0.000000   0.000000   0.000000
    20  H   -0.021981   0.546853  -0.000005   0.000000   0.000000  -0.000000
    21  C   -0.000005  -0.000005   5.218771   0.418761   0.402649   0.415612
    22  H    0.000000   0.000000   0.418761   0.543841  -0.023449  -0.047984
    23  H    0.000000   0.000000   0.402649  -0.023449   0.497142  -0.021981
    24  H    0.000000  -0.000000   0.415612  -0.047984  -0.021981   0.546854
 Mulliken charges:
               1
     1  C    1.316075
     2  C   -1.099171
     3  C   -0.141170
     4  C   -0.175639
     5  S   -0.293244
     6  H    0.154139
     7  H    0.186912
     8  C    1.316086
     9  C   -1.099155
    10  S   -0.293243
    11  C   -0.141172
    12  C   -0.175641
    13  H    0.154139
    14  H    0.186912
    15  O   -0.125801
    16  O   -0.125800
    17  C   -0.313734
    18  H    0.159397
    19  H    0.175480
    20  H    0.156743
    21  C   -0.313736
    22  H    0.159398
    23  H    0.175480
    24  H    0.156743
 Sum of Mulliken charges =  -0.00000
 Mulliken charges with hydrogens summed into heavy atoms:
               1
     1  C    1.316075
     2  C   -1.099171
     3  C    0.012969
     4  C    0.011273
     5  S   -0.293244
     8  C    1.316086
     9  C   -1.099155
    10  S   -0.293243
    11  C    0.012967
    12  C    0.011271
    15  O   -0.125801
    16  O   -0.125800
    17  C    0.177886
    21  C    0.177885
 Electronic spatial extent (au):  <R**2>=           3482.0481
 Charge=             -0.0000 electrons
 Dipole moment (field-independent basis, Debye):
    X=             -0.0000    Y=             -0.0001    Z=              1.2465  Tot=              1.2465
 Quadrupole moment (field-independent basis, Debye-Ang):
   XX=            -71.8179   YY=            -89.8146   ZZ=            -98.4340
   XY=              2.7853   XZ=              0.0012   YZ=              0.0008
 Traceless Quadrupole moment (field-independent basis, Debye-Ang):
   XX=             14.8710   YY=             -3.1258   ZZ=            -11.7452
   XY=              2.7853   XZ=              0.0012   YZ=              0.0008
 Octapole moment (field-independent basis, Debye-Ang**2):
  XXX=             -0.0026  YYY=             -0.0004  ZZZ=             16.0326  XYY=             -0.0030
  XXY=             -0.0032  XXZ=             24.5672  XZZ=              0.0041  YZZ=              0.0005
  YYZ=              1.3262  XYZ=             19.0334
 Hexadecapole moment (field-independent basis, Debye-Ang**3):
 XXXX=          -2462.2583 YYYY=          -1400.9007 ZZZZ=           -450.2056 XXXY=             61.8553
 XXXZ=             -0.0267 YYYX=             13.4187 YYYZ=             -0.0332 ZZZX=             -0.0333
 ZZZY=             -0.0315 XXYY=           -587.5716 XXZZ=           -533.9612 YYZZ=           -312.3959
 XXYZ=             -0.0040 YYXZ=             -0.0138 ZZXY=             35.2777
 N-N= 1.099220259704D+03 E-N=-5.346308959134D+03  KE= 1.330488030182D+03
 Calling FoFJK, ICntrl=      2127 FMM=F ISym2X=0 I1Cent= 0 IOpClX= 0 NMat=1 NMatS=1 NMatT=0.
 ***** Axes restored to original set *****
 -------------------------------------------------------------------
 Center     Atomic                   Forces (Hartrees/Bohr)
 Number     Number              X              Y              Z
 -------------------------------------------------------------------
      1        6          -0.016773326   -0.009147823   -0.001726442
      2        6           0.008918522    0.007039884    0.000661035
      3        6           0.002171566   -0.003755017    0.002666406
      4        6           0.005615220    0.004885000   -0.000033399
      5       16          -0.005864149    0.008596338   -0.004475352
      6        1          -0.000197859   -0.000245576   -0.000131178
      7        1          -0.000302565   -0.000211834   -0.000583613
      8        6           0.016773241    0.009147966   -0.001726592
      9        6          -0.008918501   -0.007039938    0.000660893
     10       16           0.005863687   -0.008595743   -0.004476994
     11        6          -0.002171345    0.003754669    0.002667138
     12        6          -0.005615169   -0.004884989   -0.000033558
     13        1           0.000197834    0.000245651   -0.000131191
     14        1           0.000302507    0.000211918   -0.000583626
     15        8          -0.003517925   -0.004304328    0.000642640
     16        8           0.003517944    0.004304320    0.000642716
     17        6          -0.005784694    0.003178382    0.002784779
     18        1           0.000160585    0.000076003    0.000291856
     19        1          -0.000311760    0.000134132    0.000107388
     20        1           0.000000164    0.000242272   -0.000202889
     21        6           0.005785165   -0.003179089    0.002782919
     22        1          -0.000160855   -0.000076018    0.000292165
     23        1           0.000311749   -0.000134098    0.000107440
     24        1          -0.000000037   -0.000242083   -0.000202540
 -------------------------------------------------------------------
 Cartesian Forces:  Max     0.016773326 RMS     0.004686718

 GradGradGradGradGradGradGradGradGradGradGradGradGradGradGradGradGradGrad
 Berny optimization.
 FormGI is forming the generalized inverse of G from B-inverse, IUseBI=4.
 Internal  Forces:  Max     0.011818668 RMS     0.003035139
 Search for a local minimum.
 Step number   1 out of a maximum of  121
 All quantities printed in internal units (Hartrees-Bohrs-Radians)
 Mixed Optimization -- RFO/linear search
 Second derivative matrix not updated -- first step.
 ITU=  0
     Eigenvalues ---    0.01407   0.01407   0.01605   0.01609   0.01613
     Eigenvalues ---    0.01688   0.01979   0.01987   0.02100   0.02100
     Eigenvalues ---    0.02112   0.02113   0.02173   0.02173   0.02275
     Eigenvalues ---    0.02275   0.10067   0.10067   0.10655   0.10655
     Eigenvalues ---    0.16000   0.16000   0.16000   0.16000   0.16000
     Eigenvalues ---    0.16000   0.16000   0.16000   0.16000   0.16000
     Eigenvalues ---    0.22532   0.22532   0.24749   0.24749   0.25000
     Eigenvalues ---    0.25000   0.25000   0.25000   0.25000   0.25000
     Eigenvalues ---    0.29143   0.29143   0.32171   0.32171   0.34228
     Eigenvalues ---    0.34228   0.34228   0.34228   0.34973   0.34973
     Eigenvalues ---    0.35945   0.35945   0.36108   0.36108   0.39085
     Eigenvalues ---    0.40753   0.40753   0.42229   0.42229   0.45570
     Eigenvalues ---    0.45570   0.50101   0.50101   0.52226   0.52226
     Eigenvalues --- 1000.000001000.000001000.000001000.000001000.00000
     Eigenvalues --- 1000.000001000.000001000.000001000.000001000.00000
     Eigenvalues --- 1000.000001000.000001000.000001000.000001000.00000
     Eigenvalues --- 1000.000001000.000001000.000001000.000001000.00000
     Eigenvalues --- 1000.000001000.000001000.000001000.000001000.00000
     Eigenvalues --- 1000.000001000.000001000.000001000.000001000.00000
     Eigenvalues --- 1000.000001000.000001000.000001000.000001000.00000
     Eigenvalues --- 1000.000001000.000001000.000001000.000001000.00000
     Eigenvalues --- 1000.000001000.000001000.000001000.000001000.00000
     Eigenvalues --- 1000.00000
 RFO step:  Lambda=-2.78592875D-03 EMin= 1.40683422D-02
 Linear search not attempted -- first point.
 Iteration  1 RMS(Cart)=  0.03011976 RMS(Int)=  0.00026638
 Iteration  2 RMS(Cart)=  0.00063851 RMS(Int)=  0.00004996
 Iteration  3 RMS(Cart)=  0.00000009 RMS(Int)=  0.00004996
 Iteration  1 RMS(Cart)=  0.00000968 RMS(Int)=  0.00000299
 Iteration  2 RMS(Cart)=  0.00000524 RMS(Int)=  0.00000334
 Iteration  3 RMS(Cart)=  0.00000284 RMS(Int)=  0.00000377
 Iteration  4 RMS(Cart)=  0.00000154 RMS(Int)=  0.00000405
 Iteration  5 RMS(Cart)=  0.00000083 RMS(Int)=  0.00000422
 Variable       Old X    -DE/DX   Delta X   Delta X   Delta X     New X
                                 (Linear)    (Quad)   (Total)
    R1        2.62118  -0.01182   0.00000  -0.02503  -0.02500   2.59619
    R2        3.32335  -0.00928   0.00000  -0.03131  -0.03127   3.29208
    R3        2.72816   0.00374   0.00000   0.00950   0.00950   2.73766
    R4        2.69003  -0.00019   0.00000  -0.00060  -0.00061   2.68942
    R5        2.57684  -0.00899   0.00000  -0.01713  -0.01713   2.55971
    R6        2.58219  -0.00543   0.00000  -0.01011  -0.01015   2.57204
    R7        2.04168   0.00021   0.00000   0.00058   0.00058   2.04226
    R8        3.26175  -0.00761   0.00000  -0.02231  -0.02234   3.23941
    R9        2.03912   0.00020   0.00000   0.00055   0.00055   2.03968
   R10        2.62118  -0.01182   0.00000  -0.02503  -0.02502   2.59617
   R11        3.32335  -0.00928   0.00000  -0.03131  -0.03129   3.29206
   R12        2.69003  -0.00019   0.00000  -0.00060  -0.00061   2.68942
   R13        2.57684  -0.00899   0.00000  -0.01713  -0.01713   2.55971
   R14        3.26175  -0.00761   0.00000  -0.02231  -0.02232   3.23942
   R15        2.58219  -0.00543   0.00000  -0.01011  -0.01013   2.57206
   R16        2.04168   0.00021   0.00000   0.00058   0.00058   2.04226
   R17        2.03912   0.00020   0.00000   0.00055   0.00055   2.03968
   R18        2.68632  -0.00722   0.00000  -0.01698  -0.01698   2.66934
   R19        2.68632  -0.00722   0.00000  -0.01698  -0.01698   2.66934
   R20        2.06947   0.00033   0.00000   0.00095   0.00095   2.07042
   R21        2.05719  -0.00015   0.00000  -0.00042  -0.00042   2.05677
   R22        2.06947   0.00030   0.00000   0.00086   0.00086   2.07034
   R23        2.06947   0.00033   0.00000   0.00095   0.00095   2.07042
   R24        2.05719  -0.00015   0.00000  -0.00042  -0.00042   2.05677
   R25        2.06947   0.00030   0.00000   0.00086   0.00086   2.07034
    A1        1.90639   0.00246   0.00000   0.00851   0.00840   1.91479
    A2        2.23296   0.00041   0.00000   0.00225   0.00205   2.23502
    A3        2.14384  -0.00288   0.00000  -0.01076  -0.01095   2.13289
    A4        1.99480  -0.00131   0.00000  -0.00622  -0.00621   1.98859
    A5        2.08497   0.00219   0.00000   0.00920   0.00919   2.09416
    A6        2.20341  -0.00089   0.00000  -0.00298  -0.00299   2.20042
    A7        1.95572  -0.00061   0.00000  -0.00218  -0.00226   1.95346
    A8        2.17384   0.00053   0.00000   0.00247   0.00249   2.17633
    A9        2.15362   0.00008   0.00000  -0.00029  -0.00027   2.15335
   A10        1.96177  -0.00077   0.00000  -0.00179  -0.00187   1.95990
   A11        2.23094  -0.00002   0.00000  -0.00158  -0.00155   2.22939
   A12        2.09048   0.00079   0.00000   0.00337   0.00341   2.09389
   A13        1.60610   0.00022   0.00000   0.00168   0.00169   1.60778
   A14        2.23296   0.00041   0.00000   0.00225   0.00221   2.23517
   A15        2.14384  -0.00288   0.00000  -0.01076  -0.01080   2.13303
   A16        1.90639   0.00246   0.00000   0.00851   0.00851   1.91490
   A17        1.99480  -0.00131   0.00000  -0.00622  -0.00623   1.98857
   A18        2.08497   0.00219   0.00000   0.00920   0.00920   2.09417
   A19        2.20341  -0.00089   0.00000  -0.00298  -0.00298   2.20043
   A20        1.60610   0.00022   0.00000   0.00168   0.00169   1.60779
   A21        1.95572  -0.00061   0.00000  -0.00219  -0.00224   1.95348
   A22        2.17384   0.00053   0.00000   0.00247   0.00247   2.17631
   A23        2.15362   0.00008   0.00000  -0.00029  -0.00029   2.15333
   A24        1.96177  -0.00077   0.00000  -0.00179  -0.00183   1.95993
   A25        2.09048   0.00079   0.00000   0.00337   0.00339   2.09387
   A26        2.23094  -0.00002   0.00000  -0.00158  -0.00157   2.22937
   A27        2.05933  -0.00569   0.00000  -0.02250  -0.02250   2.03683
   A28        2.05933  -0.00569   0.00000  -0.02250  -0.02250   2.03683
   A29        1.94159  -0.00002   0.00000  -0.00006  -0.00006   1.94153
   A30        1.84964  -0.00045   0.00000  -0.00287  -0.00287   1.84677
   A31        1.94160  -0.00006   0.00000  -0.00035  -0.00035   1.94124
   A32        1.90836   0.00023   0.00000   0.00137   0.00137   1.90972
   A33        1.91300   0.00011   0.00000   0.00082   0.00082   1.91382
   A34        1.90835   0.00020   0.00000   0.00105   0.00105   1.90940
   A35        1.94159  -0.00002   0.00000  -0.00006  -0.00006   1.94153
   A36        1.84964  -0.00045   0.00000  -0.00287  -0.00287   1.84677
   A37        1.94160  -0.00006   0.00000  -0.00035  -0.00035   1.94124
   A38        1.90836   0.00023   0.00000   0.00137   0.00137   1.90972
   A39        1.91300   0.00011   0.00000   0.00082   0.00082   1.91382
   A40        1.90835   0.00020   0.00000   0.00105   0.00105   1.90940
    D1        0.00007  -0.00022   0.00000  -0.01656  -0.01660  -0.01652
    D2       -3.14152  -0.00015   0.00000  -0.01221  -0.01227   3.12939
    D3       -3.14157   0.00024   0.00000   0.01672   0.01691  -3.12466
    D4        0.00003   0.00031   0.00000   0.02107   0.02123   0.02126
    D5       -0.00007   0.00029   0.00000   0.01939   0.01950   0.01943
    D6        3.14156  -0.00014   0.00000  -0.01185  -0.01168   3.12988
    D7       -2.26888  -0.00097   0.00000  -0.03740  -0.03728  -2.30616
    D8        0.87267  -0.00046   0.00000  -0.02221  -0.02217   0.85050
    D9        0.87266  -0.00046   0.00000   0.00000  -0.00000   0.87266
   D10       -2.26898   0.00005   0.00000   0.01519   0.01511  -2.25386
   D11       -0.00003  -0.00000   0.00000   0.00349   0.00348   0.00345
   D12        3.14157   0.00023   0.00000   0.01339   0.01336  -3.12825
   D13        3.14156  -0.00008   0.00000  -0.00121  -0.00115   3.14041
   D14       -0.00002   0.00015   0.00000   0.00869   0.00872   0.00870
   D15       -3.14122  -0.00004   0.00000  -0.00248  -0.00247   3.13950
   D16        0.00037   0.00004   0.00000   0.00244   0.00242   0.00280
   D17       -0.00003   0.00023   0.00000   0.01182   0.01176   0.01174
   D18       -3.14157   0.00035   0.00000   0.01460   0.01458  -3.12699
   D19        3.14155   0.00000   0.00000   0.00206   0.00204  -3.13959
   D20        0.00001   0.00012   0.00000   0.00484   0.00486   0.00487
   D21        0.00006  -0.00030   0.00000  -0.01813  -0.01809  -0.01804
   D22       -3.14158  -0.00041   0.00000  -0.02067  -0.02067   3.12094
   D23       -3.14156   0.00024   0.00000   0.00515   0.00522  -3.13635
   D24        0.00003   0.00031   0.00000   0.00882   0.00888   0.00890
   D25        0.00007  -0.00022   0.00000  -0.00837  -0.00837  -0.00830
   D26       -3.14152  -0.00015   0.00000  -0.00470  -0.00471   3.13695
   D27        3.14156  -0.00014   0.00000  -0.00075  -0.00066   3.14090
   D28       -0.00007   0.00029   0.00000   0.01193   0.01198   0.01191
   D29       -0.00003  -0.00000   0.00000  -0.00115  -0.00116  -0.00120
   D30        3.14157   0.00023   0.00000   0.01066   0.01064  -3.13098
   D31        3.14157  -0.00008   0.00000  -0.00511  -0.00509   3.13648
   D32       -0.00002   0.00015   0.00000   0.00669   0.00671   0.00670
   D33       -3.14125  -0.00004   0.00000  -0.00209  -0.00209   3.13985
   D34        0.00034   0.00004   0.00000   0.00205   0.00205   0.00239
   D35        0.00006  -0.00030   0.00000  -0.01304  -0.01301  -0.01296
   D36       -3.14158  -0.00041   0.00000  -0.01822  -0.01823   3.12338
   D37       -0.00003   0.00023   0.00000   0.01049   0.01046   0.01043
   D38       -3.14157   0.00035   0.00000   0.01619   0.01617  -3.12540
   D39        3.14156   0.00000   0.00000  -0.00115  -0.00116   3.14039
   D40        0.00001   0.00012   0.00000   0.00454   0.00455   0.00456
   D41        1.06888   0.00003   0.00000   0.00039   0.00039   1.06927
   D42        3.14139   0.00002   0.00000   0.00028   0.00027  -3.14152
   D43       -1.06931  -0.00005   0.00000  -0.00038  -0.00038  -1.06968
   D44        1.06890   0.00003   0.00000   0.00039   0.00039   1.06929
   D45        3.14140   0.00002   0.00000   0.00028   0.00027  -3.14151
   D46       -1.06929  -0.00005   0.00000  -0.00038  -0.00038  -1.06967
         Item               Value     Threshold  Converged?
 Maximum Force            0.011819     0.000450     NO 
 RMS     Force            0.003048     0.000300     NO 
 Maximum Displacement     0.083674     0.001800     NO 
 RMS     Displacement     0.030053     0.001200     NO 
 Predicted change in Energy=-1.412581D-03
 GradGradGradGradGradGradGradGradGradGradGradGradGradGradGradGradGradGrad

                          Input orientation:                          
 ---------------------------------------------------------------------
 Center     Atomic      Atomic             Coordinates (Angstroms)
 Number     Number       Type             X           Y           Z
 ---------------------------------------------------------------------
      1          6           0       -0.599399   -0.410428   -0.040244
      2          6           0       -1.854837   -0.063742   -0.477432
      3          6           0       -2.824977   -1.093468   -0.322728
      4          6           0       -2.292087   -2.213826    0.237024
      5         16           0       -0.626314   -2.031131    0.598103
      6          1           0       -3.861123   -1.011964   -0.618882
      7          1           0       -2.792346   -3.144824    0.456072
      8          6           0        0.600355    0.401555   -0.035218
      9          6           0        1.856095    0.060145   -0.475645
     10         16           0        0.619310    2.026562    0.592359
     11          6           0        2.822579    1.093497   -0.322233
     12          6           0        2.285328    2.213311    0.234460
     13          1           0        3.858906    1.015427   -0.618683
     14          1           0        2.781914    3.146929    0.450694
     15          8           0       -2.073288    1.165519   -1.002766
     16          8           0        2.078271   -1.168047   -1.001915
     17          6           0        3.394156   -1.444597   -1.434675
     18          1           0        4.106025   -1.384785   -0.603984
     19          1           0        3.371999   -2.462385   -1.819677
     20          1           0        3.701203   -0.760100   -2.233092
     21          6           0       -3.389005    1.447444   -1.432558
     22          1           0       -4.099298    1.390124   -0.600344
     23          1           0       -3.363656    2.465286   -1.817219
     24          1           0       -3.700492    0.764479   -2.230568
 ---------------------------------------------------------------------
                    Distance matrix (angstroms):
                    1          2          3          4          5
     1  C    0.000000
     2  C    1.373844   0.000000
     3  C    2.345109   1.423180   0.000000
     4  C    2.488838   2.307488   1.361065   0.000000
     5  S    1.742093   2.556690   2.561496   1.714222   0.000000
     6  H    3.366825   2.223582   1.080717   2.153816   3.603297
     7  H    3.540094   3.353121   2.194461   1.079351   2.439709
     8  C    1.448707   2.537720   3.748421   3.909036   2.797101
     9  C    2.537807   3.713000   4.823551   4.783959   3.418878
    10  S    2.797206   3.411045   4.736569   5.155909   4.244584
    11  C    3.748499   4.820945   6.056213   6.116451   4.743963
    12  C    3.909108   4.778360   6.112321   6.368068   5.159960
    13  H    4.716369   5.816478   7.014935   6.999645   5.556913
    14  H    4.932453   5.715705   7.072226   7.384365   6.200811
    15  O    2.362712   1.354540   2.475987   3.606235   3.856824
    16  O    2.944269   4.118727   4.950626   4.661401   3.258796
    17  C    4.354587   5.511352   6.327506   5.976593   4.543170
    18  H    4.838202   6.106804   6.942821   6.506186   4.925222
    19  H    4.811332   5.905500   6.520530   6.031060   4.692350
    20  H    4.840045   5.868291   6.808205   6.643367   5.325279
    21  C    3.629342   2.355763   2.829502   4.170807   4.884315
    22  H    3.975549   2.677021   2.805208   4.117724   5.020247
    23  H    4.366748   3.235359   3.897231   5.221328   5.791769
    24  H    3.974255   2.676916   2.803274   4.116178   5.026668
                    6          7          8          9         10
     6  H    0.000000
     7  H    2.616660   0.000000
     8  C    4.716300   4.932402   0.000000
     9  C    5.818635   5.722581   1.373834   0.000000
    10  S    5.547435   6.196871   1.742085   2.556768   0.000000
    11  C    7.013761   7.077889   2.345089   1.423181   2.561539
    12  C    6.993530   7.385222   2.488839   2.307512   1.714230
    13  H    7.981802   7.918456   3.366812   2.223572   3.603331
    14  H    7.910141   8.405865   3.540111   3.353130   2.439702
    15  O    2.843441   4.606986   2.944173   4.115793   3.245905
    16  O    5.953779   5.454932   2.362708   1.354541   3.856917
    17  C    7.313807   6.688685   3.629337   2.355764   4.884423
    18  H    7.975881   7.197845   3.975454   2.677029   5.022520
    19  H    7.474202   6.606354   4.366745   3.235359   5.791879
    20  H    7.736788   7.421906   3.974337   2.676910   5.024611
    21  C    2.633182   5.001185   4.354473   5.509206   4.527942
    22  H    2.413937   4.836310   4.835636   6.103368   4.908448
    23  H    3.711435   6.080097   4.811226   5.901722   4.675742
    24  H    2.403972   4.829639   4.842371   5.869540   5.312482
                   11         12         13         14         15
    11  C    0.000000
    12  C    1.361076   0.000000
    13  H    1.080717   2.153816   0.000000
    14  H    2.194460   1.079351   2.616635   0.000000
    15  O    4.943463   4.650390   5.946508   5.441646   0.000000
    16  O    2.475994   3.606255   2.843429   4.606974   4.762455
    17  C    2.829514   4.170828   2.633165   5.001157   6.073895
    18  H    2.805085   4.118765   2.412946   4.837567   6.696789
    19  H    3.897242   5.221347   3.711421   6.080065   6.593950
    20  H    2.803423   4.115177   2.404929   4.828320   6.210190
    21  C    6.319959   5.963519   7.306246   6.671965   1.412556
    22  H    6.933810   6.491378   7.967041   7.179285   2.077766
    23  H    6.510476   6.015305   7.463509   6.586053   2.004439
    24  H    6.804444   6.633666   7.733410   7.408564   2.077529
                   16         17         18         19         20
    16  O    0.000000
    17  C    1.412556   0.000000
    18  H    2.077766   1.095620   0.000000
    19  H    2.004439   1.088397   1.782674   0.000000
    20  H    2.077529   1.095575   1.791119   1.782431   0.000000
    21  C    6.075965   7.373953   8.055031   7.819705   7.468946
    22  H    6.698348   8.055036   8.661840   8.494050   8.254523
    23  H    6.593967   7.816748   8.490649   8.345717   7.777422
    24  H    6.215975   7.473118   8.258742   7.784704   7.557078
                   21         22         23         24
    21  C    0.000000
    22  H    1.095620   0.000000
    23  H    1.088397   1.782674   0.000000
    24  H    1.095575   1.791119   1.782431   0.000000
 Stoichiometry    C10H10O2S2
 Framework group  C1[X(C10H10O2S2)]
 Deg. of freedom    66
 Full point group                 C1      NOp   1
 Largest Abelian subgroup         C1      NOp   1
 Largest concise Abelian subgroup C1      NOp   1
                         Standard orientation:                         
 ---------------------------------------------------------------------
 Center     Atomic      Atomic             Coordinates (Angstroms)
 Number     Number       Type             X           Y           Z
 ---------------------------------------------------------------------
      1          6           0       -0.649404    0.323456   -0.221983
      2          6           0       -1.845040   -0.192769    0.215526
      3          6           0       -2.947467    0.694199    0.062609
      4          6           0       -2.573835    1.877716   -0.496126
      5         16           0       -0.899019    1.925818   -0.858392
      6          1           0       -3.962395    0.470904    0.359271
      7          1           0       -3.197323    2.731466   -0.713777
      8          6           0        0.650454   -0.316136   -0.228671
      9          6           0        1.847764    0.193943    0.211428
     10         16           0        0.891840   -1.922469   -0.858185
     11          6           0        2.946839   -0.696782    0.056228
     12          6           0        2.567986   -1.879136   -0.501479
     13          1           0        3.962857   -0.477512    0.352166
     14          1           0        3.187873   -2.735509   -0.719110
     15          8           0       -1.892286   -1.440955    0.739529
     16          8           0        1.899625    1.440431    0.739025
     17          6           0        3.165409    1.894529    1.171345
     18          1           0        3.878134    1.933916    0.340168
     19          1           0        3.004029    2.899217    1.557566
     20          1           0        3.564105    1.257789    1.968770
     21          6           0       -3.156527   -1.901298    1.169754
     22          1           0       -3.868581   -1.941116    0.338023
     23          1           0       -2.991408   -2.906444    1.553193
     24          1           0       -3.558229   -1.268432    1.968755
 ---------------------------------------------------------------------
 Rotational constants (GHZ):           0.7757278           0.4545054           0.3316702
 Standard basis: 6-311+G(d,p) (5D, 7F)
 There are   398 symmetry adapted cartesian basis functions of A   symmetry.
 There are   384 symmetry adapted basis functions of A   symmetry.
   384 basis functions,   612 primitive gaussians,   398 cartesian basis functions
    59 alpha electrons       59 beta electrons
       nuclear repulsion energy      1105.5128664216 Hartrees.
 NAtoms=   24 NActive=   24 NUniq=   24 SFac= 1.00D+00 NAtFMM=   60 NAOKFM=F Big=F
 Integral buffers will be    131072 words long.
 Raffenetti 2 integral format.
 Two-electron integral symmetry is turned on.
 Nuclear repulsion after empirical dispersion term =     1105.4994533343 Hartrees.
 One-electron integrals computed using PRISM.
 NBasis=   384 RedAO= T EigKep=  1.11D-06  NBF=   384
 NBsUse=   383 1.00D-06 EigRej=  8.04D-07 NBFU=   383
 Initial guess from the checkpoint file:  "gT2_innerdihscan.chk"
 B after Tr=    -0.000000    0.000000   -0.000000
         Rot=    0.999992   -0.000349   -0.000447    0.003874 Ang=  -0.45 deg.
 ExpMin= 4.05D-02 ExpMax= 9.34D+04 ExpMxC= 3.17D+03 IAcc=2 IRadAn=         4 AccDes= 0.00D+00
 Harris functional with IExCor= 4639 and IRadAn=       4 diagonalized for initial guess.
 HarFok:  IExCor= 4639 AccDes= 0.00D+00 IRadAn=         4 IDoV= 1 UseB2=F ITyADJ=14
 ICtDFT=  3500011 ScaDFX=  1.000000  1.000000  1.000000  1.000000
 FoFCou: FMM=F IPFlag=           0 FMFlag=      100000 FMFlg1=           0
         NFxFlg=           0 DoJE=T BraDBF=F KetDBF=T FulRan=T
         wScrn=  0.000000 ICntrl=       500 IOpCl=  0 I1Cent=   200000004 NGrid=           0
         NMat0=    1 NMatS0=      1 NMatT0=    0 NMatD0=    1 NMtDS0=    0 NMtDT0=    0
 Petite list used in FoFCou.
 Requested convergence on RMS density matrix=1.00D-08 within 128 cycles.
 Requested convergence on MAX density matrix=1.00D-06.
 Requested convergence on             energy=1.00D-06.
 No special actions if energy rises.
 SCF Done:  E(RwB97XD) =  -1333.82478294     A.U. after   14 cycles
            NFock= 14  Conv=0.54D-08     -V/T= 2.0023
 Calling FoFJK, ICntrl=      2127 FMM=F ISym2X=0 I1Cent= 0 IOpClX= 0 NMat=1 NMatS=1 NMatT=0.
 ***** Axes restored to original set *****
 -------------------------------------------------------------------
 Center     Atomic                   Forces (Hartrees/Bohr)
 Number     Number              X              Y              Z
 -------------------------------------------------------------------
      1        6          -0.003113883   -0.004576287    0.002128251
      2        6           0.002068239    0.003295297   -0.000727728
      3        6          -0.001650906   -0.001088398   -0.000252795
      4        6           0.001790303   -0.000569380    0.001874612
      5       16          -0.000198939    0.001408270   -0.002050501
      6        1           0.000218699   -0.000404350    0.000068902
      7        1          -0.000312773    0.000104446   -0.000172531
      8        6           0.002914891    0.004939671    0.000874429
      9        6          -0.001935190   -0.003496702   -0.000325735
     10       16           0.000377306   -0.001605274   -0.001572016
     11        6           0.001641988    0.001116332   -0.000330130
     12        6          -0.001888880    0.000611593    0.001644553
     13        1          -0.000206074    0.000385884    0.000114394
     14        1           0.000322167   -0.000121511   -0.000119416
     15        8          -0.001953274   -0.001059586   -0.000136626
     16        8           0.001916329    0.001066205   -0.000070019
     17        6          -0.001980675   -0.000955220    0.000107519
     18        1           0.000339996   -0.000165831   -0.000136151
     19        1           0.000735547   -0.000156136   -0.000246343
     20        1           0.000350490   -0.000199955   -0.000188446
     21        6           0.001988283    0.000942195    0.000083320
     22        1          -0.000336359    0.000158801   -0.000132274
     23        1          -0.000735520    0.000159531   -0.000244494
     24        1          -0.000351768    0.000210403   -0.000190775
 -------------------------------------------------------------------
 Cartesian Forces:  Max     0.004939671 RMS     0.001471192

 GradGradGradGradGradGradGradGradGradGradGradGradGradGradGradGradGradGrad
 Berny optimization.
 Using GEDIIS/GDIIS optimizer.
 FormGI is forming the generalized inverse of G from B-inverse, IUseBI=4.
 Internal  Forces:  Max     0.003777084 RMS     0.000885728
 Search for a local minimum.
 Step number   2 out of a maximum of  121
 All quantities printed in internal units (Hartrees-Bohrs-Radians)
 Mixed Optimization -- En-DIIS/RFO-DIIS
 Update second derivatives using D2CorX and points    1    2
 DE= -1.40D-03 DEPred=-1.41D-03 R= 9.94D-01
 TightC=F SS=  1.41D+00  RLast= 1.19D-01 DXNew= 5.0454D-01 3.5567D-01
 Trust test= 9.94D-01 RLast= 1.19D-01 DXMaxT set to 3.56D-01
 ITU=  1  0
 Use linear search instead of GDIIS.
     Eigenvalues ---    0.01407   0.01407   0.01594   0.01607   0.01641
     Eigenvalues ---    0.01722   0.01979   0.01988   0.02097   0.02100
     Eigenvalues ---    0.02110   0.02114   0.02173   0.02173   0.02274
     Eigenvalues ---    0.02275   0.10070   0.10070   0.10672   0.10672
     Eigenvalues ---    0.15798   0.15999   0.15999   0.16000   0.16000
     Eigenvalues ---    0.16000   0.16000   0.16000   0.16000   0.16054
     Eigenvalues ---    0.21879   0.22533   0.22558   0.24751   0.24918
     Eigenvalues ---    0.24991   0.24999   0.25000   0.25000   0.25998
     Eigenvalues ---    0.28778   0.29135   0.31562   0.32162   0.34224
     Eigenvalues ---    0.34228   0.34228   0.34228   0.34973   0.34979
     Eigenvalues ---    0.35945   0.35952   0.36108   0.36108   0.38477
     Eigenvalues ---    0.40741   0.40797   0.42229   0.42819   0.45536
     Eigenvalues ---    0.46474   0.50096   0.51161   0.52226   0.56543
     Eigenvalues --- 1000.000001000.000001000.000001000.000001000.00000
     Eigenvalues --- 1000.000001000.000001000.000001000.000001000.00000
     Eigenvalues --- 1000.000001000.000001000.000001000.000001000.00000
     Eigenvalues --- 1000.000001000.000001000.000001000.000001000.00000
     Eigenvalues --- 1000.000001000.000001000.000001000.000001000.00000
     Eigenvalues --- 1000.000001000.000001000.000001000.000001000.00000
     Eigenvalues --- 1000.000001000.000001000.000001000.000001000.00000
     Eigenvalues --- 1000.000001000.000001000.000001000.000001000.00000
     Eigenvalues --- 1000.000001000.000001000.000001000.000001000.00000
     Eigenvalues --- 1000.00000
 RFO step:  Lambda=-4.07399677D-04 EMin= 1.40680749D-02
 Quartic linear search produced a step of -0.00628.
 Iteration  1 RMS(Cart)=  0.01962262 RMS(Int)=  0.00016975
 Iteration  2 RMS(Cart)=  0.00023063 RMS(Int)=  0.00002793
 Iteration  3 RMS(Cart)=  0.00000002 RMS(Int)=  0.00002793
 Iteration  1 RMS(Cart)=  0.00000365 RMS(Int)=  0.00000113
 Iteration  2 RMS(Cart)=  0.00000198 RMS(Int)=  0.00000126
 Iteration  3 RMS(Cart)=  0.00000107 RMS(Int)=  0.00000142
 Iteration  4 RMS(Cart)=  0.00000058 RMS(Int)=  0.00000153
 Variable       Old X    -DE/DX   Delta X   Delta X   Delta X     New X
                                 (Linear)    (Quad)   (Total)
    R1        2.59619   0.00089   0.00016  -0.00191  -0.00175   2.59444
    R2        3.29208  -0.00193   0.00020  -0.01157  -0.01138   3.28070
    R3        2.73766   0.00293  -0.00006   0.00891   0.00885   2.74651
    R4        2.68942   0.00229   0.00000   0.00560   0.00561   2.69503
    R5        2.55971   0.00084   0.00011  -0.00104  -0.00093   2.55878
    R6        2.57204   0.00106   0.00006   0.00055   0.00061   2.57265
    R7        2.04226  -0.00026  -0.00000  -0.00062  -0.00063   2.04163
    R8        3.23941  -0.00120   0.00014  -0.00730  -0.00717   3.23224
    R9        2.03968   0.00002  -0.00000   0.00014   0.00014   2.03981
   R10        2.59617   0.00087   0.00016  -0.00198  -0.00182   2.59435
   R11        3.29206  -0.00196   0.00020  -0.01168  -0.01149   3.28057
   R12        2.68942   0.00226   0.00000   0.00554   0.00555   2.69497
   R13        2.55971   0.00081   0.00011  -0.00110  -0.00100   2.55872
   R14        3.23942  -0.00121   0.00014  -0.00733  -0.00720   3.23223
   R15        2.57206   0.00105   0.00006   0.00056   0.00062   2.57268
   R16        2.04226  -0.00026  -0.00000  -0.00062  -0.00062   2.04164
   R17        2.03968   0.00002  -0.00000   0.00014   0.00013   2.03981
   R18        2.66934  -0.00009   0.00011  -0.00282  -0.00272   2.66663
   R19        2.66934  -0.00009   0.00011  -0.00282  -0.00272   2.66663
   R20        2.07042   0.00011  -0.00001   0.00046   0.00045   2.07088
   R21        2.05677   0.00022   0.00000   0.00056   0.00056   2.05733
   R22        2.07034   0.00011  -0.00001   0.00045   0.00045   2.07078
   R23        2.07042   0.00011  -0.00001   0.00046   0.00046   2.07088
   R24        2.05677   0.00022   0.00000   0.00056   0.00056   2.05733
   R25        2.07034   0.00011  -0.00001   0.00044   0.00044   2.07077
    A1        1.91479   0.00134  -0.00005   0.00656   0.00645   1.92124
    A2        2.23502  -0.00015  -0.00001  -0.00033  -0.00032   2.23470
    A3        2.13289  -0.00119   0.00007  -0.00644  -0.00635   2.12654
    A4        1.98859  -0.00175   0.00004  -0.00716  -0.00717   1.98142
    A5        2.09416   0.00068  -0.00006   0.00376   0.00372   2.09789
    A6        2.20042   0.00107   0.00002   0.00342   0.00346   2.20388
    A7        1.95346  -0.00011   0.00001   0.00003  -0.00001   1.95345
    A8        2.17633   0.00043  -0.00002   0.00252   0.00252   2.17885
    A9        2.15335  -0.00032   0.00000  -0.00250  -0.00248   2.15087
   A10        1.95990   0.00015   0.00001   0.00041   0.00029   1.96019
   A11        2.22939  -0.00045   0.00001  -0.00296  -0.00299   2.22640
   A12        2.09389   0.00030  -0.00002   0.00249   0.00242   2.09631
   A13        1.60778   0.00038  -0.00001   0.00076   0.00065   1.60843
   A14        2.23517  -0.00031  -0.00001  -0.00084  -0.00083   2.23434
   A15        2.13303  -0.00104   0.00007  -0.00576  -0.00567   2.12736
   A16        1.91490   0.00135  -0.00005   0.00662   0.00652   1.92142
   A17        1.98857  -0.00174   0.00004  -0.00719  -0.00719   1.98138
   A18        2.09417   0.00063  -0.00006   0.00358   0.00353   2.09771
   A19        2.20043   0.00112   0.00002   0.00363   0.00366   2.20410
   A20        1.60779   0.00036  -0.00001   0.00056   0.00047   1.60825
   A21        1.95348  -0.00014   0.00001  -0.00013  -0.00016   1.95332
   A22        2.17631   0.00044  -0.00002   0.00261   0.00260   2.17892
   A23        2.15333  -0.00030   0.00000  -0.00241  -0.00240   2.15093
   A24        1.95993   0.00018   0.00001   0.00051   0.00042   1.96036
   A25        2.09387   0.00028  -0.00002   0.00240   0.00235   2.09622
   A26        2.22937  -0.00046   0.00001  -0.00299  -0.00301   2.22637
   A27        2.03683   0.00378   0.00014   0.01152   0.01166   2.04849
   A28        2.03683   0.00377   0.00014   0.01149   0.01163   2.04847
   A29        1.94153   0.00030   0.00000   0.00188   0.00187   1.94340
   A30        1.84677   0.00095   0.00002   0.00544   0.00545   1.85222
   A31        1.94124   0.00036   0.00000   0.00217   0.00217   1.94341
   A32        1.90972  -0.00060  -0.00001  -0.00347  -0.00349   1.90624
   A33        1.91382  -0.00038  -0.00001  -0.00224  -0.00225   1.91157
   A34        1.90940  -0.00063  -0.00001  -0.00375  -0.00376   1.90563
   A35        1.94153   0.00029   0.00000   0.00181   0.00181   1.94334
   A36        1.84677   0.00095   0.00002   0.00544   0.00546   1.85223
   A37        1.94124   0.00037   0.00000   0.00223   0.00223   1.94347
   A38        1.90972  -0.00059  -0.00001  -0.00344  -0.00345   1.90627
   A39        1.91382  -0.00038  -0.00001  -0.00224  -0.00225   1.91157
   A40        1.90940  -0.00064  -0.00001  -0.00378  -0.00380   1.90560
    D1       -0.01652   0.00035   0.00010   0.01374   0.01382  -0.00270
    D2        3.12939   0.00028   0.00008   0.00871   0.00878   3.13817
    D3       -3.12466   0.00019  -0.00011   0.02085   0.02074  -3.10391
[...]
                 (A) (A) (A) (A) (A) (A) (A) (A) (A) (A) (A)
       Virtual   (A) (A) (A) (A) (A) (A) (A) (A) (A) (A) (A) (A)
                 (A) (A) (A) (A) (A) (A) (A) (A) (A) (A) (A) (A)
                 (A) (A) (A) (A) (A) (A) (A) (A) (A) (A) (A) (A)
                 (A) (A) (A) (A) (A) (A) (A) (A) (A) (A) (A) (A)
                 (A) (A) (A) (A) (A) (A) (A) (A) (A) (A) (A) (A)
                 (A) (A) (A) (A) (A) (A) (A) (A) (A) (A) (A) (A)
                 (A) (A) (A) (A) (A) (A) (A) (A) (A) (A) (A) (A)
                 (A) (A) (A) (A) (A) (A) (A) (A) (A) (A) (A) (A)
                 (A) (A) (A) (A) (A) (A) (A) (A) (A) (A) (A) (A)
                 (A) (A) (A) (A) (A) (A) (A) (A) (A) (A) (A) (A)
                 (A) (A) (A) (A) (A) (A) (A) (A) (A) (A) (A) (A)
                 (A) (A) (A) (A) (A) (A) (A) (A) (A) (A) (A) (A)
                 (A) (A) (A) (A) (A) (A) (A) (A) (A) (A) (A) (A)
                 (A) (A) (A) (A) (A) (A) (A) (A) (A) (A) (A) (A)
                 (A) (A) (A) (A) (A) (A) (A) (A) (A) (A) (A) (A)
                 (A) (A) (A) (A) (A) (A) (A) (A) (A) (A) (A) (A)
                 (A) (A) (A) (A) (A) (A) (A) (A) (A) (A) (A) (A)
                 (A) (A) (A) (A) (A) (A) (A) (A) (A) (A) (A) (A)
                 (A) (A) (A) (A) (A) (A) (A) (A) (A) (A) (A) (A)
                 (A) (A) (A) (A) (A) (A) (A) (A) (A) (A) (A) (A)
                 (A) (A) (A) (A) (A) (A) (A) (A) (A) (A) (A) (A)
                 (A) (A) (A) (A) (A) (A) (A) (A) (A) (A) (A) (A)
                 (A) (A) (A) (A) (A) (A) (A) (A) (A) (A) (A) (A)
                 (A) (A) (A) (A) (A) (A) (A) (A) (A) (A) (A) (A)
                 (A) (A) (A) (A) (A) (A) (A) (A) (A) (A) (A) (A)
                 (A) (A) (A) (A) (A) (A) (A) (A) (A) (A) (A) (A)
                 (A) (A) (A) (A) (A) (A) (A) (A) (A) (A) (A) (A)
 The electronic state is 1-A.
 Alpha  occ. eigenvalues --  -89.03862 -89.03855 -19.27869 -19.27866 -10.34575
 Alpha  occ. eigenvalues --  -10.34570 -10.33747 -10.33743 -10.31272 -10.31269
 Alpha  occ. eigenvalues --  -10.31192 -10.31155 -10.28981 -10.28979  -8.07922
 Alpha  occ. eigenvalues --   -8.07915  -6.02754  -6.02747  -6.02372  -6.02365
 Alpha  occ. eigenvalues --   -6.02022  -6.02015  -1.17672  -1.17592  -0.99357
 Alpha  occ. eigenvalues --   -0.97590  -0.87039  -0.85057  -0.83952  -0.81646
 Alpha  occ. eigenvalues --   -0.78783  -0.76914  -0.68878  -0.66981  -0.64479
 Alpha  occ. eigenvalues --   -0.64018  -0.63040  -0.57410  -0.56400  -0.56213
 Alpha  occ. eigenvalues --   -0.55335  -0.54211  -0.52777  -0.52561  -0.49551
 Alpha  occ. eigenvalues --   -0.49417  -0.48377  -0.46655  -0.45941  -0.43265
 Alpha  occ. eigenvalues --   -0.42493  -0.41920  -0.41810  -0.41130  -0.40810
 Alpha  occ. eigenvalues --   -0.33737  -0.31461  -0.30041  -0.26529
 Alpha virt. eigenvalues --    0.03204   0.06062   0.06331   0.06659   0.07096
 Alpha virt. eigenvalues --    0.07552   0.08094   0.08731   0.09094   0.09173
 Alpha virt. eigenvalues --    0.09232   0.10717   0.11269   0.11439   0.12020
 Alpha virt. eigenvalues --    0.12068   0.12340   0.12495   0.13807   0.14063
 Alpha virt. eigenvalues --    0.14089   0.14332   0.14458   0.15074   0.15554
 Alpha virt. eigenvalues --    0.17018   0.17416   0.17782   0.18640   0.18935
 Alpha virt. eigenvalues --    0.19202   0.19931   0.20201   0.20820   0.20992
 Alpha virt. eigenvalues --    0.21195   0.22274   0.22463   0.22971   0.23374
 Alpha virt. eigenvalues --    0.23390   0.24084   0.24790   0.25265   0.25592
 Alpha virt. eigenvalues --    0.25611   0.25667   0.26417   0.26582   0.27301
 Alpha virt. eigenvalues --    0.27471   0.27771   0.28230   0.28289   0.28820
 Alpha virt. eigenvalues --    0.28928   0.30013   0.30387   0.30673   0.31831
 Alpha virt. eigenvalues --    0.32257   0.33339   0.33424   0.34091   0.34376
 Alpha virt. eigenvalues --    0.34800   0.35245   0.36153   0.37081   0.37467
 Alpha virt. eigenvalues --    0.37994   0.38901   0.39754   0.39961   0.41034
 Alpha virt. eigenvalues --    0.41619   0.42957   0.44011   0.44849   0.45188
 Alpha virt. eigenvalues --    0.46198   0.47170   0.47269   0.48602   0.48973
 Alpha virt. eigenvalues --    0.51216   0.52800   0.53429   0.54652   0.55453
 Alpha virt. eigenvalues --    0.56089   0.56262   0.57075   0.58248   0.59022
 Alpha virt. eigenvalues --    0.61109   0.63592   0.64465   0.64686   0.64914
 Alpha virt. eigenvalues --    0.66405   0.67280   0.69672   0.70446   0.70805
 Alpha virt. eigenvalues --    0.71155   0.71592   0.72586   0.73580   0.73814
 Alpha virt. eigenvalues --    0.74372   0.75220   0.76200   0.77411   0.79036
 Alpha virt. eigenvalues --    0.79827   0.80791   0.81641   0.82813   0.82936
 Alpha virt. eigenvalues --    0.83640   0.85327   0.85568   0.86560   0.86700
 Alpha virt. eigenvalues --    0.87267   0.87689   0.88613   0.88933   0.92640
 Alpha virt. eigenvalues --    0.92729   0.94325   0.94398   0.95298   0.96760
 Alpha virt. eigenvalues --    0.97423   0.98684   1.01382   1.02361   1.04662
 Alpha virt. eigenvalues --    1.06177   1.07052   1.07664   1.08626   1.09344
 Alpha virt. eigenvalues --    1.09675   1.10057   1.11270   1.12358   1.13729
 Alpha virt. eigenvalues --    1.13968   1.15006   1.17298   1.18473   1.19189
 Alpha virt. eigenvalues --    1.19968   1.21741   1.26513   1.27000   1.30052
 Alpha virt. eigenvalues --    1.30663   1.32748   1.38079   1.39689   1.41450
 Alpha virt. eigenvalues --    1.45628   1.45795   1.46443   1.46675   1.49567
 Alpha virt. eigenvalues --    1.49957   1.52227   1.52295   1.54924   1.56429
 Alpha virt. eigenvalues --    1.58198   1.61981   1.63720   1.63880   1.64319
 Alpha virt. eigenvalues --    1.69166   1.69611   1.70748   1.71270   1.72077
 Alpha virt. eigenvalues --    1.72511   1.72846   1.75255   1.75498   1.78332
 Alpha virt. eigenvalues --    1.78570   1.79137   1.79962   1.81554   1.83859
 Alpha virt. eigenvalues --    1.86174   1.87122   1.87367   1.88789   1.89934
 Alpha virt. eigenvalues --    1.90663   1.92089   1.92273   1.93996   1.94089
 Alpha virt. eigenvalues --    1.98846   2.00792   2.03801   2.04840   2.06747
 Alpha virt. eigenvalues --    2.08018   2.09842   2.10858   2.11559   2.12775
 Alpha virt. eigenvalues --    2.14382   2.15374   2.16703   2.17647   2.18555
 Alpha virt. eigenvalues --    2.21586   2.21806   2.23357   2.23651   2.25340
 Alpha virt. eigenvalues --    2.27408   2.28757   2.29631   2.30251   2.36745
 Alpha virt. eigenvalues --    2.44172   2.51073   2.52484   2.53685   2.54278
 Alpha virt. eigenvalues --    2.56407   2.57811   2.58439   2.60185   2.61306
 Alpha virt. eigenvalues --    2.62716   2.63896   2.65252   2.65556   2.70053
 Alpha virt. eigenvalues --    2.73331   2.76786   2.77768   2.81965   2.82379
 Alpha virt. eigenvalues --    2.82722   2.84418   2.87601   2.88055   2.88165
 Alpha virt. eigenvalues --    2.91060   2.95762   2.95963   2.98997   3.03829
 Alpha virt. eigenvalues --    3.10468   3.10963   3.11083   3.11472   3.15296
 Alpha virt. eigenvalues --    3.15375   3.18531   3.19136   3.25401   3.25951
 Alpha virt. eigenvalues --    3.29789   3.34878   3.35074   3.38078   3.42079
 Alpha virt. eigenvalues --    3.42103   3.43508   3.45236   3.51623   3.56970
 Alpha virt. eigenvalues --    3.58187   3.62253   3.66826   3.85896   3.87623
 Alpha virt. eigenvalues --    3.87743   3.92863   3.96295   4.10171   4.17386
 Alpha virt. eigenvalues --    4.20713   4.21123   4.26009   4.33214   4.39909
 Alpha virt. eigenvalues --    4.61008   5.14760   5.15326   5.54449   5.55865
 Alpha virt. eigenvalues --    5.88867   5.92383   8.13846   8.15753  17.44943
 Alpha virt. eigenvalues --   17.45623  17.63210  17.65722  17.66427  17.68092
 Alpha virt. eigenvalues --   23.66116  23.85765  23.95391  23.96862  24.04762
 Alpha virt. eigenvalues --   24.05129  24.19520  24.24453  24.30050  24.30263
 Alpha virt. eigenvalues --   50.10909  50.11687 189.38994 189.41735
          Condensed to atoms (all electrons):
               1          2          3          4          5          6
     1  C   34.958642 -20.978643   0.885496  -1.476405  -1.608602  -0.058971
     2  C  -20.978643  28.293015  -3.381818   1.385045   0.460811  -0.021424
     3  C    0.885496  -3.381818   9.483439  -0.386221  -0.094159   0.426293
     4  C   -1.476405   1.385045  -0.386221   6.372294  -0.162485   0.015782
     5  S   -1.608602   0.460811  -0.094159  -0.162485  17.871529   0.009742
     6  H   -0.058971  -0.021424   0.426293   0.015782   0.009742   0.496322
     7  H    0.010987  -0.001734   0.022942   0.372240  -0.029664  -0.003770
     8  C    2.574286   2.183870  -0.589386   0.245380  -0.228790  -0.006183
     9  C   -9.189716  -1.513950   0.349252  -0.150031   0.042170  -0.003761
    10  S    0.348528  -0.482700  -0.165698  -0.017299   0.065483  -0.000535
    11  C    0.701434   0.017125  -0.024636   0.004569  -0.207637   0.000040
    12  C   -0.765379   0.118757   0.012632  -0.003876   0.004488  -0.000043
    13  H   -0.006243  -0.005056   0.000109  -0.000066  -0.000243   0.000000
    14  H   -0.002306  -0.003144  -0.000063   0.000048   0.000188   0.000000
    15  O   -0.235469   0.406098  -0.071508  -0.009828   0.052573  -0.009119
    16  O    0.007439  -0.132162   0.006568  -0.002750  -0.004613   0.000013
    17  C   -0.157604  -0.056015  -0.001569  -0.000028   0.012483  -0.000019
    18  H   -0.010970   0.002599  -0.000287   0.000538  -0.003797   0.000000
    19  H    0.006202   0.002812   0.000454  -0.000179  -0.000665  -0.000000
    20  H    0.000011  -0.005078  -0.000356  -0.000193   0.001001  -0.000000
    21  C   -0.510069   0.458204  -0.318573  -0.060975   0.102166   0.001578
    22  H   -0.019344  -0.007057   0.016427   0.007373  -0.003292  -0.000206
    23  H   -0.004068   0.034971  -0.005855   0.004035  -0.002475   0.000227
    24  H   -0.007933  -0.040472   0.044936  -0.006936   0.003342  -0.000174
               7          8          9         10         11         12
     1  C    0.010987   2.574286  -9.189716   0.348528   0.701434  -0.765379
     2  C   -0.001734   2.183870  -1.513950  -0.482700   0.017125   0.118757
     3  C    0.022942  -0.589386   0.349252  -0.165698  -0.024636   0.012632
     4  C    0.372240   0.245380  -0.150031  -0.017299   0.004569  -0.003876
     5  S   -0.029664  -0.228790   0.042170   0.065483  -0.207637   0.004488
     6  H   -0.003770  -0.006183  -0.003761  -0.000535   0.000040  -0.000043
     7  H    0.452947  -0.006033  -0.003620   0.000268  -0.000026   0.000033
     8  C   -0.006033  24.643360 -21.426080  -1.280094   2.853035  -2.748272
     9  C   -0.003620 -21.426080  41.327138  -0.078741  -6.873939   3.687195
    10  S    0.000268  -1.280094  -0.078741  17.986981   0.001757  -0.193990
    11  C   -0.000026   2.853035  -6.873939   0.001757  10.810908  -1.159231
    12  C    0.000033  -2.748272   3.687195  -0.193990  -1.159231   6.866596
    13  H    0.000000  -0.039374  -0.038168   0.009230   0.432295   0.010657
    14  H   -0.000000   0.017984  -0.011245  -0.031794   0.029672   0.366147
    15  O   -0.000193  -0.006991  -0.211275  -0.003167   0.016275  -0.009889
    16  O   -0.000044  -0.306071   0.405149   0.049994  -0.062748  -0.012607
    17  C   -0.000054  -0.661224   0.848141   0.094564  -0.425590  -0.002406
    18  H   -0.000000  -0.063205   0.038330  -0.003634   0.006892   0.016219
    19  H   -0.000000   0.000794   0.032480  -0.002463  -0.005864   0.003867
    20  H    0.000000   0.015030  -0.063066   0.003616   0.049898  -0.011326
    21  C    0.000876   0.057112  -0.056562  -0.004186  -0.007221   0.004650
    22  H    0.000028  -0.001613  -0.000869  -0.002851  -0.000072   0.000522
    23  H   -0.000000   0.007295   0.003184  -0.000789   0.000450  -0.000171
    24  H    0.000018  -0.004500  -0.001193   0.000236  -0.000597  -0.000100
              13         14         15         16         17         18
     1  C   -0.006243  -0.002306  -0.235469   0.007439  -0.157604  -0.010970
     2  C   -0.005056  -0.003144   0.406098  -0.132162  -0.056015   0.002599
     3  C    0.000109  -0.000063  -0.071508   0.006568  -0.001569  -0.000287
     4  C   -0.000066   0.000048  -0.009828  -0.002750  -0.000028   0.000538
     5  S   -0.000243   0.000188   0.052573  -0.004613   0.012483  -0.003797
     6  H    0.000000   0.000000  -0.009119   0.000013  -0.000019   0.000000
     7  H    0.000000  -0.000000  -0.000193  -0.000044  -0.000054  -0.000000
     8  C   -0.039374   0.017984  -0.006991  -0.306071  -0.661224  -0.063205
     9  C   -0.038168  -0.011245  -0.211275   0.405149   0.848141   0.038330
    10  S    0.009230  -0.031794  -0.003167   0.049994   0.094564  -0.003634
    11  C    0.432295   0.029672   0.016275  -0.062748  -0.425590   0.006892
    12  C    0.010657   0.366147  -0.009889  -0.012607  -0.002406   0.016219
    13  H    0.496111  -0.003795   0.000008  -0.009101   0.000387  -0.000131
    14  H   -0.003795   0.453243  -0.000042  -0.000185   0.000813   0.000026
    15  O    0.000008  -0.000042   8.157674  -0.001460  -0.001235   0.000002
    16  O   -0.009101  -0.000185  -0.001460   8.150769   0.175103  -0.039363
    17  C    0.000387   0.000813  -0.001235   0.175103   5.252592   0.424621
    18  H   -0.000131   0.000026   0.000002  -0.039363   0.424621   0.545522
    19  H    0.000231  -0.000000  -0.000007  -0.066385   0.401366  -0.023634
    20  H   -0.000250   0.000022   0.000007  -0.038170   0.414924  -0.048699
    21  C   -0.000026  -0.000052   0.189355  -0.000227  -0.000651   0.000000
    22  H    0.000000  -0.000000  -0.036967   0.000002  -0.000008   0.000000
    23  H   -0.000000  -0.000000  -0.066919  -0.000008  -0.000005   0.000000
    24  H   -0.000000   0.000000  -0.039643   0.000012   0.000009   0.000000
              19         20         21         22         23         24
     1  C    0.006202   0.000011  -0.510069  -0.019344  -0.004068  -0.007933
     2  C    0.002812  -0.005078   0.458204  -0.007057   0.034971  -0.040472
     3  C    0.000454  -0.000356  -0.318573   0.016427  -0.005855   0.044936
     4  C   -0.000179  -0.000193  -0.060975   0.007373   0.004035  -0.006936
     5  S   -0.000665   0.001001   0.102166  -0.003292  -0.002475   0.003342
     6  H   -0.000000  -0.000000   0.001578  -0.000206   0.000227  -0.000174
     7  H   -0.000000   0.000000   0.000876   0.000028  -0.000000   0.000018
     8  C    0.000794   0.015030   0.057112  -0.001613   0.007295  -0.004500
     9  C    0.032480  -0.063066  -0.056562  -0.000869   0.003184  -0.001193
    10  S   -0.002463   0.003616  -0.004186  -0.002851  -0.000789   0.000236
    11  C   -0.005864   0.049898  -0.007221  -0.000072   0.000450  -0.000597
    12  C    0.003867  -0.011326   0.004650   0.000522  -0.000171  -0.000100
    13  H    0.000231  -0.000250  -0.000026   0.000000  -0.000000  -0.000000
    14  H   -0.000000   0.000022  -0.000052  -0.000000  -0.000000   0.000000
    15  O   -0.000007   0.000007   0.189355  -0.036967  -0.066919  -0.039643
    16  O   -0.066385  -0.038170  -0.000227   0.000002  -0.000008   0.000012
    17  C    0.401366   0.414924  -0.000651  -0.000008  -0.000005   0.000009
    18  H   -0.023634  -0.048699   0.000000   0.000000   0.000000   0.000000
    19  H    0.498530  -0.022019  -0.000005   0.000000   0.000000   0.000000
    20  H   -0.022019   0.549458  -0.000010  -0.000000   0.000000  -0.000000
    21  C   -0.000005  -0.000010   5.218500   0.416617   0.402487   0.418052
    22  H    0.000000  -0.000000   0.416617   0.544119  -0.023521  -0.048951
    23  H    0.000000   0.000000   0.402487  -0.023521   0.498307  -0.021915
    24  H    0.000000  -0.000000   0.418052  -0.048951  -0.021915   0.550239
 Mulliken charges:
               1
     1  C    1.538694
     2  C   -0.734054
     3  C   -0.208419
     4  C   -0.130034
     5  S   -0.279554
     6  H    0.154208
     7  H    0.184799
     8  C    0.769669
     9  C   -1.110826
    10  S   -0.292714
    11  C   -0.156791
    12  C   -0.184476
    13  H    0.153424
    14  H    0.184486
    15  O   -0.118281
    16  O   -0.119155
    17  C   -0.318596
    18  H    0.158971
    19  H    0.174487
    20  H    0.155201
    21  C   -0.311041
    22  H    0.159663
    23  H    0.174769
    24  H    0.155569
 Sum of Mulliken charges =   0.00000
 Mulliken charges with hydrogens summed into heavy atoms:
               1
     1  C    1.538694
     2  C   -0.734054
     3  C   -0.054211
     4  C    0.054765
     5  S   -0.279554
     8  C    0.769669
     9  C   -1.110826
    10  S   -0.292714
    11  C   -0.003367
    12  C    0.000009
    15  O   -0.118281
    16  O   -0.119155
    17  C    0.170064
    21  C    0.178959
 Electronic spatial extent (au):  <R**2>=           3456.3932
 Charge=              0.0000 electrons
 Dipole moment (field-independent basis, Debye):
    X=              0.0009    Y=             -0.0264    Z=              1.0941  Tot=              1.0945
 Quadrupole moment (field-independent basis, Debye-Ang):
   XX=            -72.0762   YY=            -89.9548   ZZ=            -98.5054
   XY=              2.5214   XZ=              0.0198   YZ=             -0.0073
 Traceless Quadrupole moment (field-independent basis, Debye-Ang):
   XX=             14.7693   YY=             -3.1093   ZZ=            -11.6599
   XY=              2.5214   XZ=              0.0198   YZ=             -0.0073
 Octapole moment (field-independent basis, Debye-Ang**2):
  XXX=              0.2494  YYY=             -0.3524  ZZZ=             15.0676  XYY=             -0.0404
  XXY=              0.0017  XXZ=             23.7453  XZZ=              0.0376  YZZ=             -0.0136
  YYZ=              0.0796  XYZ=             18.0051
 Hexadecapole moment (field-independent basis, Debye-Ang**3):
 XXXX=          -2467.8502 YYYY=          -1378.0646 ZZZZ=           -433.2050 XXXY=             64.7132
 XXXZ=              0.4741 YYYX=              9.4028 YYYZ=             -0.0357 ZZZX=              0.1833
 ZZZY=             -0.0876 XXYY=           -589.1220 XXZZ=           -533.0637 YYZZ=           -306.8813
 XXYZ=             -0.0206 YYXZ=             -0.0043 ZZXY=             33.2409
 N-N= 1.105331547454D+03 E-N=-5.358684360478D+03  KE= 1.330754389406D+03
 1\1\GINC-CX1-141-15-4\FOpt\RwB97XD\6-311+G(d,p)\C10H10O2S2\NS5018\06-F
 eb-2020\0\\# opt=modredundant wb97xd/6-311+g(d,p) geom=connectivity\\T
 itle Card Required\\0,1\C,-0.6004742404,-0.4157644278,-0.0603256889\C,
 -1.8587065919,-0.064135725,-0.4876791576\C,-2.8282071638,-1.0960198671
 ,-0.3143483568\C,-2.2878870694,-2.2120483051,0.249931445\S,-0.61800863
 91,-2.0299243931,0.5792900978\H,-3.8675782742,-1.0201754755,-0.5998706
 364\H,-2.788329146,-3.141609477,0.4747519963\C,0.6027740113,0.40111628
 72,-0.0495562233\C,1.8610350537,0.0586646418,-0.4841885125\S,0.6083358
 274,2.02060471,0.5758162309\C,2.8239602548,1.0974273122,-0.3160690785\
 C,2.2766836364,2.2121377737,0.2442092308\H,3.8635180421,1.0273968975,-
 0.6024029918\H,2.7716324622,3.1450616432,0.4672192569\O,-2.0826023697,
 1.1625861044,-1.0147018228\O,2.0904324442,-1.1666576424,-1.0119117893\
 C,3.4053126328,-1.4529000776,-1.4353832898\H,4.1148172635,-1.396293806
 7,-0.6019093797\H,3.3845461527,-2.4713209042,-1.8197632027\H,3.7247750
 775,-0.7731894249,-2.2336084826\C,-3.3972391906,1.4569164615,-1.433309
 0475\H,-4.1041307272,1.404049446,-0.5973771743\H,-3.3717361214,2.47543
 14677,-1.8171576989\H,-3.723602495,0.7796287214,-2.2308038541\\Version
 =ES64L-G16RevA.03\State=1-A\HF=-1333.8249674\RMSD=4.282e-09\RMSF=2.264
 e-04\Dipole=-0.0013373,0.0097296,-0.4304793\Quadrupole=11.2392216,-2.5
 704194,-8.6688022,-0.0948944,-0.0293566,-0.0160547\PG=C01 [X(C10H10O2S
 2)]\\@


 VIRTUE IS LEARNED AT YOUR MOTHER'S KNEE,
 VICES ARE PICKED UP AT SOME OTHER JOINT.
 Job cpu time:       0 days  3 hours 22 minutes 30.6 seconds.
 Elapsed time:       0 days  0 hours 50 minutes 38.6 seconds.
 File lengths (MBytes):  RWF=     93 Int=      0 D2E=      0 Chk=     12 Scr=      1
 Normal termination of Gaussian 16 at Thu Feb  6 21:37:17 2020.
