 Entering Gaussian System, Link 0=g16
 Input=OBT_-90.gjf
 Output=OBT_-90.log
 Initial command:
 /apps/gaussian/g16-a03/l1.exe "/tmp/pbs.1042530[9].pbs/Gau-13051.inp" -scrdir="/tmp/pbs.1042530[9].pbs/"
 Entering Link 1 = /apps/gaussian/g16-a03/l1.exe PID=     13052.
  
 Copyright (c) 1988,1990,1992,1993,1995,1998,2003,2009,2016,
            Gaussian, Inc.  All Rights Reserved.
  
 This is part of the Gaussian(R) 16 program.  It is based on
 the Gaussian(R) 09 system (copyright 2009, Gaussian, Inc.),
 the Gaussian(R) 03 system (copyright 2003, Gaussian, Inc.),
 the Gaussian(R) 98 system (copyright 1998, Gaussian, Inc.),
 the Gaussian(R) 94 system (copyright 1995, Gaussian, Inc.),
 the Gaussian 92(TM) system (copyright 1992, Gaussian, Inc.),
 the Gaussian 90(TM) system (copyright 1990, Gaussian, Inc.),
 the Gaussian 88(TM) system (copyright 1988, Gaussian, Inc.),
 the Gaussian 86(TM) system (copyright 1986, Carnegie Mellon
 University), and the Gaussian 82(TM) system (copyright 1983,
 Carnegie Mellon University). Gaussian is a federally registered
 trademark of Gaussian, Inc.
  
 This software contains proprietary and confidential information,
 including trade secrets, belonging to Gaussian, Inc.
  
 This software is provided under written license and may be
 used, copied, transmitted, or stored only in accord with that
 written license.
  
 The following legend is applicable only to US Government
 contracts under FAR:
  
                    RESTRICTED RIGHTS LEGEND
  
 Use, reproduction and disclosure by the US Government is
 subject to restrictions as set forth in subparagraphs (a)
 and (c) of the Commercial Computer Software - Restricted
 Rights clause in FAR 52.227-19.
  
 Gaussian, Inc.
 340 Quinnipiac St., Bldg. 40, Wallingford CT 06492
  
  
 ---------------------------------------------------------------
 Warning -- This program may not be used in any manner that
 competes with the business of Gaussian, Inc. or will provide
 assistance to any competitor of Gaussian, Inc.  The licensee
 of this program is prohibited from giving any competitor of
 Gaussian, Inc. access to this program.  By using this program,
 the user acknowledges that Gaussian, Inc. is engaged in the
 business of creating and licensing software in the field of
 computational chemistry and represents and warrants to the
 licensee that it is not a competitor of Gaussian, Inc. and that
 it will not use this program in any manner prohibited above.
 ---------------------------------------------------------------
  

 Cite this work as:
 Gaussian 16, Revision A.03,
 M. J. Frisch, G. W. Trucks, H. B. Schlegel, G. E. Scuseria, 
 M. A. Robb, J. R. Cheeseman, G. Scalmani, V. Barone, 
 G. A. Petersson, H. Nakatsuji, X. Li, M. Caricato, A. V. Marenich, 
 J. Bloino, B. G. Janesko, R. Gomperts, B. Mennucci, H. P. Hratchian, 
 J. V. Ortiz, A. F. Izmaylov, J. L. Sonnenberg, D. Williams-Young, 
 F. Ding, F. Lipparini, F. Egidi, J. Goings, B. Peng, A. Petrone, 
 T. Henderson, D. Ranasinghe, V. G. Zakrzewski, J. Gao, N. Rega, 
 G. Zheng, W. Liang, M. Hada, M. Ehara, K. Toyota, R. Fukuda, 
 J. Hasegawa, M. Ishida, T. Nakajima, Y. Honda, O. Kitao, H. Nakai, 
 T. Vreven, K. Throssell, J. A. Montgomery, Jr., J. E. Peralta, 
 F. Ogliaro, M. J. Bearpark, J. J. Heyd, E. N. Brothers, K. N. Kudin, 
 V. N. Staroverov, T. A. Keith, R. Kobayashi, J. Normand, 
 K. Raghavachari, A. P. Rendell, J. C. Burant, S. S. Iyengar, 
 J. Tomasi, M. Cossi, J. M. Millam, M. Klene, C. Adamo, R. Cammi, 
 J. W. Ochterski, R. L. Martin, K. Morokuma, O. Farkas, 
 J. B. Foresman, and D. J. Fox, Gaussian, Inc., Wallingford CT, 2016.
 
 ******************************************
 Gaussian 16:  ES64L-G16RevA.03 25-Dec-2016
                 6-Feb-2020 
 ******************************************
 %mem=10GB
 %nprocshared=4
 Will use up to    4 processors via shared memory.
 %chk=gT2_innerdihscan.chk
 --------------------------------------------------------
 # opt=modredundant wb97xd/6-311+g(d,p) geom=connectivity
 --------------------------------------------------------
 1/18=120,19=15,26=3,38=1,57=2/1,3;
 2/9=110,12=2,17=6,18=5,40=1/2;
 3/5=4,6=6,7=111,11=2,25=1,30=1,71=1,74=-58/1,2,3;
 4//1;
 5/5=2,38=5/2;
 6/7=2,8=2,9=2,10=2,28=1/1;
 7//1,2,3,16;
 1/18=20,19=15,26=3/3(2);
 2/9=110/2;
 99//99;
 2/9=110/2;
 3/5=4,6=6,7=111,11=2,25=1,30=1,71=1,74=-58/1,2,3;
 4/5=5,16=3,69=1/1;
 5/5=2,38=5/2;
 7//1,2,3,16;
 1/18=20,19=15,26=3/3(-5);
 2/9=110/2;
 6/7=2,8=2,9=2,10=2,19=2,28=1/1;
 99/9=1/99;
 -------------------
 Title Card Required
 -------------------
 Symbolic Z-matrix:
 Charge =  0 Multiplicity = 1
 C                    -0.59366  -0.41063  -0.00009 
 C                    -0.85503  -1.5319   -0.77365 
 C                    -2.1278   -2.12352  -0.5362 
 C                    -2.83586  -1.45115   0.41969 
 S                    -1.97221  -0.09379   1.04492 
 H                    -2.50052  -3.00046  -1.04548 
 H                    -3.82207  -1.67769   0.79444 
 C                     0.59366   0.41063  -0.00009 
 C                     0.85496   1.532    -0.77353 
 S                     1.9723    0.09365   1.04475 
 C                     2.12776   2.12359  -0.53612 
 C                     2.8359    1.45109   0.41962 
 H                     2.50043   3.00059  -1.04532 
 H                     3.82214   1.67758   0.79431 
 O                     0.08233  -1.96587  -1.66384 
 O                    -0.08248   1.96608  -1.66359 
 C                     0.21805   3.11801  -2.44046 
 H                     1.09911   2.95348  -3.0697 
 H                    -0.65092   3.28724  -3.07397 
 H                     0.37934   3.99468  -1.80428 
 C                    -0.21828  -3.11768  -2.44086 
 H                    -1.0994   -2.95304  -3.07 
 H                     0.65063  -3.28682  -3.07448 
 H                    -0.37952  -3.99444  -1.80481 
 
 The following ModRedundant input section has been read:
 D       5       1       8       9 F                                           
 

 GradGradGradGradGradGradGradGradGradGradGradGradGradGradGradGradGradGrad
 Berny optimization.
 Initialization pass.
                           ----------------------------
                           !    Initial Parameters    !
                           ! (Angstroms and Degrees)  !
 --------------------------                            --------------------------
 ! Name  Definition              Value          Derivative Info.                !
 --------------------------------------------------------------------------------
 ! R1    R(1,2)                  1.3871         estimate D2E/DX2                !
 ! R2    R(1,5)                  1.7586         estimate D2E/DX2                !
 ! R3    R(1,8)                  1.4437         estimate D2E/DX2                !
 ! R4    R(2,3)                  1.4235         estimate D2E/DX2                !
 ! R5    R(2,15)                 1.3636         estimate D2E/DX2                !
 ! R6    R(3,4)                  1.3664         estimate D2E/DX2                !
 ! R7    R(3,6)                  1.0804         estimate D2E/DX2                !
 ! R8    R(4,5)                  1.726          estimate D2E/DX2                !
 ! R9    R(4,7)                  1.0791         estimate D2E/DX2                !
 ! R10   R(8,9)                  1.3871         estimate D2E/DX2                !
 ! R11   R(8,10)                 1.7586         estimate D2E/DX2                !
 ! R12   R(9,11)                 1.4235         estimate D2E/DX2                !
 ! R13   R(9,16)                 1.3636         estimate D2E/DX2                !
 ! R14   R(10,12)                1.726          estimate D2E/DX2                !
 ! R15   R(11,12)                1.3664         estimate D2E/DX2                !
 ! R16   R(11,13)                1.0804         estimate D2E/DX2                !
 ! R17   R(12,14)                1.0791         estimate D2E/DX2                !
 ! R18   R(15,21)                1.4215         estimate D2E/DX2                !
 ! R19   R(16,17)                1.4215         estimate D2E/DX2                !
 ! R20   R(17,18)                1.0951         estimate D2E/DX2                !
 ! R21   R(17,19)                1.0886         estimate D2E/DX2                !
 ! R22   R(17,20)                1.0951         estimate D2E/DX2                !
 ! R23   R(21,22)                1.0951         estimate D2E/DX2                !
 ! R24   R(21,23)                1.0886         estimate D2E/DX2                !
 ! R25   R(21,24)                1.0951         estimate D2E/DX2                !
 ! A1    A(2,1,5)              109.228          estimate D2E/DX2                !
 ! A2    A(2,1,8)              127.9393         estimate D2E/DX2                !
 ! A3    A(5,1,8)              122.8328         estimate D2E/DX2                !
 ! A4    A(1,2,3)              114.2937         estimate D2E/DX2                !
 ! A5    A(1,2,15)             119.46           estimate D2E/DX2                !
 ! A6    A(3,2,15)             126.2463         estimate D2E/DX2                !
 ! A7    A(2,3,4)              112.0548         estimate D2E/DX2                !
 ! A8    A(2,3,6)              124.5521         estimate D2E/DX2                !
 ! A9    A(4,3,6)              123.3931         estimate D2E/DX2                !
 ! A10   A(3,4,5)              112.4009         estimate D2E/DX2                !
 ! A11   A(3,4,7)              127.8234         estimate D2E/DX2                !
 ! A12   A(5,4,7)              119.7757         estimate D2E/DX2                !
 ! A13   A(1,5,4)               92.0227         estimate D2E/DX2                !
 ! A14   A(1,8,9)              127.9393         estimate D2E/DX2                !
 ! A15   A(1,8,10)             122.8328         estimate D2E/DX2                !
 ! A16   A(9,8,10)             109.228          estimate D2E/DX2                !
 ! A17   A(8,9,11)             114.2937         estimate D2E/DX2                !
 ! A18   A(8,9,16)             119.46           estimate D2E/DX2                !
 ! A19   A(11,9,16)            126.2463         estimate D2E/DX2                !
 ! A20   A(8,10,12)             92.0227         estimate D2E/DX2                !
 ! A21   A(9,11,12)            112.0548         estimate D2E/DX2                !
 ! A22   A(9,11,13)            124.5521         estimate D2E/DX2                !
 ! A23   A(12,11,13)           123.3931         estimate D2E/DX2                !
 ! A24   A(10,12,11)           112.4009         estimate D2E/DX2                !
 ! A25   A(10,12,14)           119.7757         estimate D2E/DX2                !
 ! A26   A(11,12,14)           127.8234         estimate D2E/DX2                !
 ! A27   A(2,15,21)            117.9908         estimate D2E/DX2                !
 ! A28   A(9,16,17)            117.9908         estimate D2E/DX2                !
 ! A29   A(16,17,18)           111.2449         estimate D2E/DX2                !
 ! A30   A(16,17,19)           105.9768         estimate D2E/DX2                !
 ! A31   A(16,17,20)           111.2452         estimate D2E/DX2                !
 ! A32   A(18,17,19)           109.3408         estimate D2E/DX2                !
 ! A33   A(18,17,20)           109.6069         estimate D2E/DX2                !
 ! A34   A(19,17,20)           109.3403         estimate D2E/DX2                !
 ! A35   A(15,21,22)           111.2449         estimate D2E/DX2                !
 ! A36   A(15,21,23)           105.9768         estimate D2E/DX2                !
 ! A37   A(15,21,24)           111.2452         estimate D2E/DX2                !
 ! A38   A(22,21,23)           109.3409         estimate D2E/DX2                !
 ! A39   A(22,21,24)           109.6069         estimate D2E/DX2                !
 ! A40   A(23,21,24)           109.3402         estimate D2E/DX2                !
 ! D1    D(5,1,2,3)              0.0042         estimate D2E/DX2                !
 ! D2    D(5,1,2,15)          -179.9959         estimate D2E/DX2                !
 ! D3    D(8,1,2,3)           -179.9984         estimate D2E/DX2                !
 ! D4    D(8,1,2,15)             0.0015         estimate D2E/DX2                !
 ! D5    D(2,1,5,4)             -0.0042         estimate D2E/DX2                !
 ! D6    D(8,1,5,4)            179.9983         estimate D2E/DX2                !
 ! D7    D(2,1,8,9)             90.0029         estimate D2E/DX2                !
 ! D8    D(2,1,8,10)           -89.9998         estimate D2E/DX2                !
 ! D9    D(5,1,8,9)            -90.0            Frozen                          !
 ! D10   D(5,1,8,10)            89.9972         estimate D2E/DX2                !
 ! D11   D(1,2,3,4)             -0.0018         estimate D2E/DX2                !
 ! D12   D(1,2,3,6)            179.9988         estimate D2E/DX2                !
 ! D13   D(15,2,3,4)           179.9983         estimate D2E/DX2                !
 ! D14   D(15,2,3,6)            -0.0011         estimate D2E/DX2                !
 ! D15   D(1,2,15,21)         -179.9784         estimate D2E/DX2                !
 ! D16   D(3,2,15,21)            0.0215         estimate D2E/DX2                !
 ! D17   D(2,3,4,5)             -0.0015         estimate D2E/DX2                !
 ! D18   D(2,3,4,7)           -179.9988         estimate D2E/DX2                !
 ! D19   D(6,3,4,5)            179.9978         estimate D2E/DX2                !
 ! D20   D(6,3,4,7)              0.0006         estimate D2E/DX2                !
 ! D21   D(3,4,5,1)              0.0033         estimate D2E/DX2                !
 ! D22   D(7,4,5,1)           -179.9992         estimate D2E/DX2                !
 ! D23   D(1,8,9,11)          -179.9983         estimate D2E/DX2                !
 ! D24   D(1,8,9,16)             0.0014         estimate D2E/DX2                !
 ! D25   D(10,8,9,11)            0.0041         estimate D2E/DX2                !
 ! D26   D(10,8,9,16)         -179.9961         estimate D2E/DX2                !
 ! D27   D(1,8,10,12)          179.9982         estimate D2E/DX2                !
 ! D28   D(9,8,10,12)           -0.0042         estimate D2E/DX2                !
 ! D29   D(8,9,11,12)           -0.0018         estimate D2E/DX2                !
 ! D30   D(8,9,11,13)          179.9988         estimate D2E/DX2                !
 ! D31   D(16,9,11,12)         179.9985         estimate D2E/DX2                !
 ! D32   D(16,9,11,13)          -0.001          estimate D2E/DX2                !
 ! D33   D(8,9,16,17)         -179.9802         estimate D2E/DX2                !
 ! D34   D(11,9,16,17)           0.0196         estimate D2E/DX2                !
 ! D35   D(8,10,12,11)           0.0033         estimate D2E/DX2                !
 ! D36   D(8,10,12,14)        -179.9992         estimate D2E/DX2                !
 ! D37   D(9,11,12,10)          -0.0015         estimate D2E/DX2                !
 ! D38   D(9,11,12,14)        -179.9988         estimate D2E/DX2                !
 ! D39   D(13,11,12,10)        179.9979         estimate D2E/DX2                !
 ! D40   D(13,11,12,14)          0.0006         estimate D2E/DX2                !
 ! D41   D(2,15,21,22)          61.2425         estimate D2E/DX2                !
 ! D42   D(2,15,21,23)         179.9882         estimate D2E/DX2                !
 ! D43   D(2,15,21,24)         -61.2668         estimate D2E/DX2                !
 ! D44   D(9,16,17,18)          61.2435         estimate D2E/DX2                !
 ! D45   D(9,16,17,19)         179.9891         estimate D2E/DX2                !
 ! D46   D(9,16,17,20)         -61.2658         estimate D2E/DX2                !
 --------------------------------------------------------------------------------
 Trust Radius=3.00D-01 FncErr=1.00D-07 GrdErr=1.00D-06 EigMax=2.50D+02 EigMin=1.00D-04
 Number of steps in this run=    121 maximum allowed number of steps=    144.
 GradGradGradGradGradGradGradGradGradGradGradGradGradGradGradGradGradGrad

                          Input orientation:                          
 ---------------------------------------------------------------------
 Center     Atomic      Atomic             Coordinates (Angstroms)
 Number     Number       Type             X           Y           Z
 ---------------------------------------------------------------------
      1          6           0       -0.593663   -0.410632   -0.000087
      2          6           0       -0.855026   -1.531904   -0.773653
      3          6           0       -2.127804   -2.123523   -0.536201
      4          6           0       -2.835857   -1.451147    0.419688
      5         16           0       -1.972209   -0.093790    1.044920
      6          1           0       -2.500521   -3.000456   -1.045476
      7          1           0       -3.822067   -1.677685    0.794436
      8          6           0        0.593663    0.410632   -0.000087
      9          6           0        0.854957    1.532003   -0.773533
     10         16           0        1.972304    0.093653    1.044754
     11          6           0        2.127758    2.123590   -0.536119
     12          6           0        2.835896    1.451090    0.419619
     13          1           0        2.500430    3.000588   -1.045316
     14          1           0        3.822140    1.677579    0.794307
     15          8           0        0.082335   -1.965872   -1.663845
     16          8           0       -0.082482    1.966084   -1.663587
     17          6           0        0.218048    3.118010   -2.440457
     18          1           0        1.099111    2.953482   -3.069697
     19          1           0       -0.650924    3.287244   -3.073973
     20          1           0        0.379337    3.994680   -1.804283
     21          6           0       -0.218279   -3.117676   -2.440863
     22          1           0       -1.099398   -2.953042   -3.069996
     23          1           0        0.650634   -3.286823   -3.074484
     24          1           0       -0.379518   -3.994442   -1.804808
 ---------------------------------------------------------------------
                    Distance matrix (angstroms):
                    1          2          3          4          5
     1  C    0.000000
     2  C    1.387071   0.000000
     3  C    2.361144   1.423503   0.000000
     4  C    2.507253   2.313931   1.366438   0.000000
     5  S    1.758641   2.573613   2.577590   1.726042   0.000000
     6  H    3.381735   2.222203   1.080412   2.158591   3.619058
     7  H    3.557989   3.359090   2.199975   1.079058   2.448151
     8  C    1.443682   2.543728   3.757092   3.924798   2.816058
     9  C    2.543728   3.508785   4.723988   4.893370   3.734012
    10  S    2.816058   3.734011   4.922009   5.088765   3.948964
    11  C    3.757092   4.723987   6.012302   6.191105   4.922011
    12  C    3.924798   4.893369   6.191104   6.371167   5.088765
    13  H    4.722535   5.645916   6.923601   7.102122   5.826556
    14  H    4.948839   5.885165   7.184739   7.366016   6.064243
    15  O    2.375676   1.363603   2.486191   3.622415   3.881141
    16  O    2.945729   3.691169   4.709483   4.857837   3.892321
    17  C    4.366417   5.054842   6.050032   6.195479   5.221182
    18  H    4.858523   5.404549   6.527446   6.860068   5.970674
    19  H    4.808985   5.343904   6.156123   6.279486   5.490215
    20  H    4.858871   5.755778   6.732473   6.703771   5.510292
    21  C    3.664204   2.387406   2.874433   4.220401   4.936684
    22  H    4.017954   2.711556   2.857593   4.177185   5.086222
    23  H    4.390064   3.261989   3.939018   5.266361   5.834746
    24  H    4.018280   2.711730   2.857658   4.177360   5.086522
                    6          7          8          9         10
     6  H    0.000000
     7  H    2.623258   0.000000
     8  C    4.722535   4.948839   0.000000
     9  C    5.645916   5.885166   1.387071   0.000000
    10  S    5.826554   6.064242   1.758641   2.573613   0.000000
    11  C    6.923601   7.184740   2.361144   1.423503   2.577590
    12  C    7.102120   7.366016   2.507253   2.313931   1.726042
    13  H    7.811660   8.077431   3.381735   2.222203   3.619058
    14  H    8.077429   8.348156   3.557989   3.359090   2.448151
    15  O    2.850243   4.622829   2.945729   3.691169   3.892318
    16  O    5.558372   5.770912   2.375676   1.363603   3.881141
    17  C    6.839022   7.055902   3.664204   2.387406   4.936684
    18  H    7.245978   7.784422   4.017968   2.711564   5.086236
    19  H    6.860829   7.047783   4.390064   3.261989   5.834746
    20  H    7.602717   7.522025   4.018266   2.711723   5.086509
    21  C    2.677587   5.052526   4.366417   5.054834   5.221190
    22  H    2.462534   4.896253   4.858508   5.404523   5.970668
    23  H    3.758810   6.128859   4.808985   5.343895   5.490224
    24  H    2.462366   4.896384   4.858887   5.755785   5.510318
                   11         12         13         14         15
    11  C    0.000000
    12  C    1.366438   0.000000
    13  H    1.080412   2.158591   0.000000
    14  H    2.199975   1.079058   2.623258   0.000000
    15  O    4.709482   4.857834   5.558371   5.770909   0.000000
    16  O    2.486192   3.622415   2.850244   4.622829   3.935409
    17  C    2.874433   4.220401   2.677588   5.052526   5.144648
    18  H    2.857595   4.177191   2.462526   4.896258   5.216349
    19  H    3.939018   5.266361   3.758810   6.128859   5.488292
    20  H    2.857655   4.177353   2.462375   4.896379   5.969599
    21  C    6.050026   6.195480   6.839012   7.055905   1.421541
    22  H    6.527423   6.860053   7.245950   7.784409   2.085247
    23  H    6.156116   6.279487   6.860817   7.047786   2.014393
    24  H    6.732483   6.703789   7.602722   7.522045   2.085252
                   16         17         18         19         20
    16  O    0.000000
    17  C    1.421541   0.000000
    18  H    2.085248   1.095118   0.000000
    19  H    2.014393   1.088621   1.781583   0.000000
    20  H    2.085251   1.095118   1.789816   1.781577   0.000000
    21  C    5.144630   6.250933   6.244190   6.450659   7.165751
    22  H    5.216312   6.244170   6.302417   6.256381   7.215229
    23  H    5.488272   6.450660   6.256402   6.701672   7.396439
    24  H    5.969594   7.165760   7.215257   7.396445   8.025082
                   21         22         23         24
    21  C    0.000000
    22  H    1.095117   0.000000
    23  H    1.088621   1.781584   0.000000
    24  H    1.095118   1.789816   1.781576   0.000000
 Stoichiometry    C10H10O2S2
 Framework group  C1[X(C10H10O2S2)]
 Deg. of freedom    66
 Full point group                 C1      NOp   1
 Largest Abelian subgroup         C1      NOp   1
 Largest concise Abelian subgroup C1      NOp   1
                         Standard orientation:                         
 ---------------------------------------------------------------------
 Center     Atomic      Atomic             Coordinates (Angstroms)
 Number     Number       Type             X           Y           Z
 ---------------------------------------------------------------------
      1          6           0        0.698913   -0.419860   -0.180492
      2          6           0        1.718047    0.353635    0.355267
      3          6           0        2.998049    0.116211   -0.220569
      4          6           0        2.952536   -0.839585   -1.196036
      5         16           0        1.360886   -1.464763   -1.430608
      6          1           0        3.905184    0.625440    0.071118
      7          1           0        3.768940   -1.214293   -1.793902
      8          6           0       -0.698913   -0.419866    0.180479
      9          6           0       -1.718046    0.353651   -0.355251
     10         16           0       -1.360888   -1.464812    1.430557
     11          6           0       -2.998047    0.116209    0.220578
     12          6           0       -2.952536   -0.839622    1.196009
     13          1           0       -3.905182    0.625452   -0.071089
     14          1           0       -3.768940   -1.214350    1.793863
     15          8           0        1.433235    1.243738    1.348248
     16          8           0       -1.433232    1.243793   -1.348197
     17          6           0       -2.501139    2.020735   -1.874232
     18          1           0       -2.952948    2.649911   -1.100093
     19          1           0       -2.060772    2.654314   -2.642183
     20          1           0       -3.269790    1.384619   -2.325691
     21          6           0        2.501137    2.020685    1.874287
     22          1           0        2.952928    2.649881    1.100156
     23          1           0        2.060770    2.654242    2.642256
     24          1           0        3.269802    1.384571    2.325726
 ---------------------------------------------------------------------
 Rotational constants (GHZ):           0.7319915           0.3905691           0.3901404
 Standard basis: 6-311+G(d,p) (5D, 7F)
 There are   398 symmetry adapted cartesian basis functions of A   symmetry.
 There are   384 symmetry adapted basis functions of A   symmetry.
   384 basis functions,   612 primitive gaussians,   398 cartesian basis functions
    59 alpha electrons       59 beta electrons
       nuclear repulsion energy      1096.2140052711 Hartrees.
 NAtoms=   24 NActive=   24 NUniq=   24 SFac= 1.00D+00 NAtFMM=   60 NAOKFM=F Big=F
 Integral buffers will be    131072 words long.
 Raffenetti 2 integral format.
 Two-electron integral symmetry is turned on.
 Nuclear repulsion after empirical dispersion term =     1096.2005520869 Hartrees.
 One-electron integrals computed using PRISM.
 NBasis=   384 RedAO= T EigKep=  1.42D-06  NBF=   384
 NBsUse=   383 1.00D-06 EigRej=  7.46D-07 NBFU=   383
 ExpMin= 4.05D-02 ExpMax= 9.34D+04 ExpMxC= 3.17D+03 IAcc=3 IRadAn=         5 AccDes= 0.00D+00
 Harris functional with IExCor= 4639 and IRadAn=       5 diagonalized for initial guess.
 HarFok:  IExCor= 4639 AccDes= 0.00D+00 IRadAn=         5 IDoV= 1 UseB2=F ITyADJ=14
 ICtDFT=  3500011 ScaDFX=  1.000000  1.000000  1.000000  1.000000
 FoFCou: FMM=F IPFlag=           0 FMFlag=      100000 FMFlg1=           0
         NFxFlg=           0 DoJE=T BraDBF=F KetDBF=T FulRan=T
         wScrn=  0.000000 ICntrl=       500 IOpCl=  0 I1Cent=   200000004 NGrid=           0
         NMat0=    1 NMatS0=      1 NMatT0=    0 NMatD0=    1 NMtDS0=    0 NMtDT0=    0
 Petite list used in FoFCou.
 Requested convergence on RMS density matrix=1.00D-08 within 128 cycles.
 Requested convergence on MAX density matrix=1.00D-06.
 Requested convergence on             energy=1.00D-06.
 No special actions if energy rises.
 SCF Done:  E(RwB97XD) =  -1333.82280537     A.U. after   17 cycles
            NFock= 17  Conv=0.87D-08     -V/T= 2.0025

 **********************************************************************

            Population analysis using the SCF density.

 **********************************************************************

 Orbital symmetries:
       Occupied  (A) (A) (A) (A) (A) (A) (A) (A) (A) (A) (A) (A)
                 (A) (A) (A) (A) (A) (A) (A) (A) (A) (A) (A) (A)
                 (A) (A) (A) (A) (A) (A) (A) (A) (A) (A) (A) (A)
                 (A) (A) (A) (A) (A) (A) (A) (A) (A) (A) (A) (A)
                 (A) (A) (A) (A) (A) (A) (A) (A) (A) (A) (A)
       Virtual   (A) (A) (A) (A) (A) (A) (A) (A) (A) (A) (A) (A)
                 (A) (A) (A) (A) (A) (A) (A) (A) (A) (A) (A) (A)
                 (A) (A) (A) (A) (A) (A) (A) (A) (A) (A) (A) (A)
                 (A) (A) (A) (A) (A) (A) (A) (A) (A) (A) (A) (A)
                 (A) (A) (A) (A) (A) (A) (A) (A) (A) (A) (A) (A)
                 (A) (A) (A) (A) (A) (A) (A) (A) (A) (A) (A) (A)
                 (A) (A) (A) (A) (A) (A) (A) (A) (A) (A) (A) (A)
                 (A) (A) (A) (A) (A) (A) (A) (A) (A) (A) (A) (A)
                 (A) (A) (A) (A) (A) (A) (A) (A) (A) (A) (A) (A)
                 (A) (A) (A) (A) (A) (A) (A) (A) (A) (A) (A) (A)
                 (A) (A) (A) (A) (A) (A) (A) (A) (A) (A) (A) (A)
                 (A) (A) (A) (A) (A) (A) (A) (A) (A) (A) (A) (A)
                 (A) (A) (A) (A) (A) (A) (A) (A) (A) (A) (A) (A)
                 (A) (A) (A) (A) (A) (A) (A) (A) (A) (A) (A) (A)
                 (A) (A) (A) (A) (A) (A) (A) (A) (A) (A) (A) (A)
                 (A) (A) (A) (A) (A) (A) (A) (A) (A) (A) (A) (A)
                 (A) (A) (A) (A) (A) (A) (A) (A) (A) (A) (A) (A)
                 (A) (A) (A) (A) (A) (A) (A) (A) (A) (A) (A) (A)
                 (A) (A) (A) (A) (A) (A) (A) (A) (A) (A) (A) (A)
                 (A) (A) (A) (A) (A) (A) (A) (A) (A) (A) (A) (A)
                 (A) (A) (A) (A) (A) (A) (A) (A) (A) (A) (A) (A)
                 (A) (A) (A) (A) (A) (A) (A) (A) (A) (A) (A) (A)
                 (A) (A) (A) (A) (A) (A) (A) (A) (A) (A) (A) (A)
                 (A) (A) (A) (A) (A) (A) (A) (A) (A) (A) (A) (A)
                 (A) (A) (A) (A) (A) (A) (A) (A) (A) (A) (A) (A)
                 (A) (A) (A) (A) (A) (A) (A) (A) (A) (A) (A) (A)
                 (A) (A) (A) (A) (A) (A) (A) (A) (A) (A) (A) (A)
 The electronic state is 1-A.
 Alpha  occ. eigenvalues --  -89.04039 -89.04039 -19.27663 -19.27662 -10.34896
 Alpha  occ. eigenvalues --  -10.34896 -10.33744 -10.33744 -10.31704 -10.31704
 Alpha  occ. eigenvalues --  -10.31234 -10.31195 -10.29198 -10.29198  -8.08036
 Alpha  occ. eigenvalues --   -8.08035  -6.02864  -6.02864  -6.02495  -6.02495
 Alpha  occ. eigenvalues --   -6.02143  -6.02143  -1.16855  -1.16731  -0.98802
 Alpha  occ. eigenvalues --   -0.97108  -0.86867  -0.84442  -0.84075  -0.81595
 Alpha  occ. eigenvalues --   -0.78642  -0.76700  -0.69159  -0.66018  -0.65035
 Alpha  occ. eigenvalues --   -0.63618  -0.62878  -0.57381  -0.55973  -0.55895
 Alpha  occ. eigenvalues --   -0.54927  -0.54025  -0.52717  -0.52527  -0.49443
 Alpha  occ. eigenvalues --   -0.49373  -0.48325  -0.46350  -0.46184  -0.42583
 Alpha  occ. eigenvalues --   -0.42555  -0.41957  -0.41764  -0.41177  -0.40679
 Alpha  occ. eigenvalues --   -0.32131  -0.31931  -0.28612  -0.28610
 Alpha virt. eigenvalues --    0.04159   0.04364   0.06045   0.06332   0.07238
 Alpha virt. eigenvalues --    0.07262   0.07798   0.08775   0.08819   0.08882
 Alpha virt. eigenvalues --    0.09136   0.10554   0.10665   0.11800   0.11823
 Alpha virt. eigenvalues --    0.12289   0.12492   0.12581   0.13160   0.13285
 Alpha virt. eigenvalues --    0.13944   0.14023   0.14503   0.14614   0.15814
 Alpha virt. eigenvalues --    0.16079   0.16877   0.16959   0.18740   0.19127
 Alpha virt. eigenvalues --    0.19406   0.19680   0.20416   0.20859   0.21248
 Alpha virt. eigenvalues --    0.21674   0.21723   0.21762   0.22269   0.22911
 Alpha virt. eigenvalues --    0.23561   0.23868   0.24604   0.24846   0.24972
 Alpha virt. eigenvalues --    0.25005   0.25427   0.25841   0.27054   0.27277
 Alpha virt. eigenvalues --    0.27325   0.27720   0.27853   0.28134   0.28681
 Alpha virt. eigenvalues --    0.29068   0.29695   0.30137   0.30563   0.30900
 Alpha virt. eigenvalues --    0.31890   0.32277   0.33914   0.34208   0.34975
 Alpha virt. eigenvalues --    0.35080   0.35617   0.36057   0.36288   0.37268
 Alpha virt. eigenvalues --    0.38586   0.39851   0.40340   0.41153   0.41970
 Alpha virt. eigenvalues --    0.42655   0.43263   0.43621   0.44252   0.44631
 Alpha virt. eigenvalues --    0.45459   0.47875   0.48835   0.50653   0.50898
 Alpha virt. eigenvalues --    0.52454   0.52865   0.54318   0.54810   0.54812
 Alpha virt. eigenvalues --    0.56036   0.56195   0.56663   0.57119   0.59104
 Alpha virt. eigenvalues --    0.61260   0.63495   0.63648   0.64944   0.65164
 Alpha virt. eigenvalues --    0.66210   0.67292   0.67359   0.69380   0.69784
 Alpha virt. eigenvalues --    0.70932   0.71014   0.71585   0.73769   0.74019
 Alpha virt. eigenvalues --    0.74392   0.74781   0.74841   0.75773   0.77812
 Alpha virt. eigenvalues --    0.79901   0.80690   0.81054   0.82836   0.83136
 Alpha virt. eigenvalues --    0.84455   0.85174   0.85879   0.86495   0.86845
 Alpha virt. eigenvalues --    0.87427   0.88542   0.89393   0.91077   0.91262
 Alpha virt. eigenvalues --    0.92492   0.92746   0.94828   0.95528   0.97106
 Alpha virt. eigenvalues --    0.97326   0.99559   1.00523   1.01901   1.04993
 Alpha virt. eigenvalues --    1.06454   1.07154   1.07541   1.07936   1.08998
 Alpha virt. eigenvalues --    1.10195   1.11423   1.13023   1.13195   1.13803
 Alpha virt. eigenvalues --    1.15411   1.16173   1.16910   1.17207   1.19218
 Alpha virt. eigenvalues --    1.19452   1.23421   1.23891   1.28343   1.29947
 Alpha virt. eigenvalues --    1.31420   1.32662   1.40041   1.42031   1.42614
 Alpha virt. eigenvalues --    1.44920   1.45199   1.45539   1.46260   1.50092
 Alpha virt. eigenvalues --    1.50266   1.52151   1.52189   1.55507   1.57181
 Alpha virt. eigenvalues --    1.58062   1.60573   1.63017   1.63086   1.64913
 Alpha virt. eigenvalues --    1.66232   1.69132   1.69289   1.70679   1.71665
 Alpha virt. eigenvalues --    1.72365   1.72908   1.75056   1.75073   1.78050
 Alpha virt. eigenvalues --    1.78456   1.78585   1.81027   1.81417   1.82559
 Alpha virt. eigenvalues --    1.85490   1.86030   1.86425   1.86553   1.88149
 Alpha virt. eigenvalues --    1.90659   1.91133   1.93447   1.94262   1.95531
 Alpha virt. eigenvalues --    1.97434   2.00627   2.02674   2.03884   2.06117
 Alpha virt. eigenvalues --    2.07538   2.09957   2.10084   2.12537   2.12746
 Alpha virt. eigenvalues --    2.13455   2.15178   2.16396   2.17551   2.18416
 Alpha virt. eigenvalues --    2.21371   2.22272   2.23098   2.23461   2.25588
 Alpha virt. eigenvalues --    2.27523   2.28324   2.30054   2.31707   2.39639
 Alpha virt. eigenvalues --    2.45736   2.45830   2.51681   2.52662   2.53583
 Alpha virt. eigenvalues --    2.54818   2.57496   2.57929   2.59232   2.60352
 Alpha virt. eigenvalues --    2.61667   2.63744   2.64677   2.65097   2.69154
 Alpha virt. eigenvalues --    2.72560   2.76255   2.77441   2.81602   2.82388
 Alpha virt. eigenvalues --    2.82474   2.84372   2.86502   2.87538   2.89523
 Alpha virt. eigenvalues --    2.90048   2.94739   2.94775   3.01668   3.01852
 Alpha virt. eigenvalues --    3.08233   3.08957   3.09871   3.11068   3.14410
 Alpha virt. eigenvalues --    3.14686   3.18174   3.18681   3.23986   3.24976
 Alpha virt. eigenvalues --    3.28457   3.33979   3.34039   3.38584   3.40712
 Alpha virt. eigenvalues --    3.41446   3.42235   3.43918   3.48615   3.55707
 Alpha virt. eigenvalues --    3.57069   3.62415   3.66605   3.85087   3.87570
 Alpha virt. eigenvalues --    3.87645   3.92596   3.94997   4.12525   4.16751
 Alpha virt. eigenvalues --    4.20655   4.21008   4.26055   4.32495   4.40618
 Alpha virt. eigenvalues --    4.56268   5.14487   5.16743   5.53512   5.56623
 Alpha virt. eigenvalues --    5.87464   5.90735   8.13778   8.14148  17.45413
 Alpha virt. eigenvalues --   17.46013  17.60912  17.64532  17.64563  17.67771
 Alpha virt. eigenvalues --   23.66842  23.85723  23.97021  23.97715  24.04791
 Alpha virt. eigenvalues --   24.05172  24.16905  24.21809  24.28698  24.28743
 Alpha virt. eigenvalues --   50.10171  50.12409 189.39591 189.39963
          Condensed to atoms (all electrons):
               1          2          3          4          5          6
     1  C   23.267217 -15.120849   0.234919  -0.915166  -2.896465  -0.047625
     2  C  -15.120849  25.466129  -3.217783   0.684424   2.340602  -0.038147
     3  C    0.234919  -3.217783  10.296816  -0.220775  -0.335398   0.446021
     4  C   -0.915166   0.684424  -0.220775   5.997092   0.308189   0.000935
     5  S   -2.896465   2.340602  -0.335398   0.308189  17.565745   0.010846
     6  H   -0.047625  -0.038147   0.446021   0.000935   0.010846   0.494878
     7  H    0.005303  -0.034049   0.049167   0.360416  -0.008497  -0.003653
     8  C    6.815349  -4.521845   0.120051  -0.075073  -0.803606  -0.008336
     9  C   -4.522122   1.334305  -0.982488   0.217788  -0.034239  -0.001705
    10  S   -0.803611  -0.034302  -0.035861   0.026495  -0.127385  -0.000343
    11  C    0.120092  -0.982504  -0.014768  -0.002540  -0.035861   0.000050
    12  C   -0.075096   0.217821  -0.002539   0.004118   0.026497   0.000025
    13  H   -0.008336  -0.001705   0.000050   0.000025  -0.000343   0.000000
    14  H   -0.003369  -0.005363  -0.000017   0.000033   0.000207   0.000000
    15  O   -0.276450   0.390625  -0.107563   0.000985   0.031606  -0.009609
    16  O   -0.215667   0.104956   0.009514   0.006131  -0.011156   0.000006
    17  C   -0.147652   0.123908  -0.004875   0.005215  -0.005652  -0.000042
    18  H    0.003135  -0.000922   0.000324   0.000024   0.002126  -0.000000
    19  H    0.000193   0.003853  -0.000180   0.000161   0.000145   0.000000
    20  H   -0.006519  -0.000094  -0.000373  -0.000114  -0.002962   0.000000
    21  C   -0.514758   0.599771  -0.470792  -0.056867   0.090061   0.001710
    22  H    0.025091  -0.054668   0.013551  -0.002398   0.001203   0.000042
    23  H   -0.003081   0.039462  -0.002225   0.003146  -0.002845   0.000253
    24  H   -0.053822   0.006323   0.042031  -0.001677   0.002172   0.000199
               7          8          9         10         11         12
     1  C    0.005303   6.815349  -4.522122  -0.803611   0.120092  -0.075096
     2  C   -0.034049  -4.521845   1.334305  -0.034302  -0.982504   0.217821
     3  C    0.049167   0.120051  -0.982488  -0.035861  -0.014768  -0.002539
     4  C    0.360416  -0.075073   0.217788   0.026495  -0.002540   0.004118
     5  S   -0.008497  -0.803606  -0.034239  -0.127385  -0.035861   0.026497
     6  H   -0.003653  -0.008336  -0.001705  -0.000343   0.000050   0.000025
     7  H    0.452146  -0.003369  -0.005363   0.000207  -0.000017   0.000033
     8  C   -0.003369  23.266586 -15.120450  -2.896449   0.234878  -0.915147
     9  C   -0.005363 -15.120450  25.465924   2.340637  -3.217766   0.684408
    10  S    0.000207  -2.896449   2.340637  17.565759  -0.335387   0.308185
    11  C   -0.000017   0.234878  -3.217766  -0.335387  10.296818  -0.220793
    12  C    0.000033  -0.915147   0.684408   0.308185  -0.220793   5.997102
    13  H    0.000000  -0.047625  -0.038147   0.010846   0.446022   0.000935
    14  H   -0.000000   0.005304  -0.034051  -0.008497   0.049167   0.360415
    15  O   -0.000400  -0.215669   0.104961  -0.011155   0.009514   0.006131
    16  O   -0.000027  -0.276448   0.390624   0.031606  -0.107561   0.000986
    17  C   -0.000017  -0.514755   0.599778   0.090062  -0.470791  -0.056866
    18  H    0.000000   0.025084  -0.054664   0.001203   0.013555  -0.002396
    19  H   -0.000000  -0.003082   0.039463  -0.002845  -0.002224   0.003146
    20  H   -0.000000  -0.053813   0.006320   0.002172   0.042026  -0.001680
    21  C    0.000511  -0.147644   0.123914  -0.005652  -0.004876   0.005215
    22  H    0.000019   0.003136  -0.000923   0.002126   0.000324   0.000024
    23  H   -0.000001   0.000193   0.003852   0.000145  -0.000180   0.000161
    24  H    0.000018  -0.006520  -0.000094  -0.002962  -0.000373  -0.000114
              13         14         15         16         17         18
     1  C   -0.008336  -0.003369  -0.276450  -0.215667  -0.147652   0.003135
     2  C   -0.001705  -0.005363   0.390625   0.104956   0.123908  -0.000922
     3  C    0.000050  -0.000017  -0.107563   0.009514  -0.004875   0.000324
     4  C    0.000025   0.000033   0.000985   0.006131   0.005215   0.000024
     5  S   -0.000343   0.000207   0.031606  -0.011156  -0.005652   0.002126
     6  H    0.000000   0.000000  -0.009609   0.000006  -0.000042  -0.000000
     7  H    0.000000  -0.000000  -0.000400  -0.000027  -0.000017   0.000000
     8  C   -0.047625   0.005304  -0.215669  -0.276448  -0.514755   0.025084
     9  C   -0.038147  -0.034051   0.104961   0.390624   0.599778  -0.054664
    10  S    0.010846  -0.008497  -0.011155   0.031606   0.090062   0.001203
    11  C    0.446022   0.049167   0.009514  -0.107561  -0.470791   0.013555
    12  C    0.000935   0.360415   0.006131   0.000986  -0.056866  -0.002396
    13  H    0.494878  -0.003653   0.000006  -0.009609   0.001710   0.000042
    14  H   -0.003653   0.452146  -0.000027  -0.000400   0.000511   0.000019
    15  O    0.000006  -0.000027   8.135259   0.017030   0.000707  -0.000260
    16  O   -0.009609  -0.000400   0.017030   8.135260   0.177790  -0.028908
    17  C    0.001710   0.000511   0.000707   0.177790   5.261779   0.412397
    18  H    0.000042   0.000019  -0.000260  -0.028908   0.412397   0.542915
    19  H    0.000253  -0.000001   0.000023  -0.074667   0.402621  -0.022261
    20  H    0.000199   0.000018   0.000126  -0.042386   0.419588  -0.050411
    21  C   -0.000042  -0.000017   0.177791   0.000706  -0.000863  -0.000278
    22  H   -0.000000   0.000000  -0.028906  -0.000260  -0.000278   0.000001
    23  H    0.000000  -0.000000  -0.074666   0.000023   0.000029   0.000001
    24  H    0.000000  -0.000000  -0.042388   0.000126   0.000118   0.000000
              19         20         21         22         23         24
     1  C    0.000193  -0.006519  -0.514758   0.025091  -0.003081  -0.053822
     2  C    0.003853  -0.000094   0.599771  -0.054668   0.039462   0.006323
     3  C   -0.000180  -0.000373  -0.470792   0.013551  -0.002225   0.042031
     4  C    0.000161  -0.000114  -0.056867  -0.002398   0.003146  -0.001677
     5  S    0.000145  -0.002962   0.090061   0.001203  -0.002845   0.002172
     6  H    0.000000   0.000000   0.001710   0.000042   0.000253   0.000199
     7  H   -0.000000  -0.000000   0.000511   0.000019  -0.000001   0.000018
     8  C   -0.003082  -0.053813  -0.147644   0.003136   0.000193  -0.006520
     9  C    0.039463   0.006320   0.123914  -0.000923   0.003852  -0.000094
    10  S   -0.002845   0.002172  -0.005652   0.002126   0.000145  -0.002962
    11  C   -0.002224   0.042026  -0.004876   0.000324  -0.000180  -0.000373
    12  C    0.003146  -0.001680   0.005215   0.000024   0.000161  -0.000114
    13  H    0.000253   0.000199  -0.000042  -0.000000   0.000000   0.000000
    14  H   -0.000001   0.000018  -0.000017   0.000000  -0.000000  -0.000000
    15  O    0.000023   0.000126   0.177791  -0.028906  -0.074666  -0.042388
    16  O   -0.074667  -0.042386   0.000706  -0.000260   0.000023   0.000126
    17  C    0.402621   0.419588  -0.000863  -0.000278   0.000029   0.000118
    18  H   -0.022261  -0.050411  -0.000278   0.000001   0.000001   0.000000
    19  H    0.502235  -0.021582   0.000029   0.000001  -0.000000  -0.000000
    20  H   -0.021582   0.550294   0.000118   0.000000  -0.000000  -0.000000
    21  C    0.000029   0.000118   5.261777   0.412398   0.402621   0.419587
    22  H    0.000001   0.000000   0.412398   0.542913  -0.022261  -0.050411
    23  H   -0.000000  -0.000000   0.402621  -0.022261   0.502235  -0.021582
    24  H   -0.000000  -0.000000   0.419587  -0.050411  -0.021582   0.550297
 Mulliken charges:
               1
     1  C    1.139291
     2  C   -1.299945
     3  C    0.183193
     4  C   -0.340567
     5  S   -0.114991
     6  H    0.154494
     7  H    0.187574
     8  C    1.139251
     9  C   -1.299962
    10  S   -0.114991
    11  C    0.183195
    12  C   -0.340570
    13  H    0.154494
    14  H    0.187574
    15  O   -0.107669
    16  O   -0.107669
    17  C   -0.294419
    18  H    0.159276
    19  H    0.174720
    20  H    0.159072
    21  C   -0.294419
    22  H    0.159276
    23  H    0.174720
    24  H    0.159072
 Sum of Mulliken charges =  -0.00000
 Mulliken charges with hydrogens summed into heavy atoms:
               1
     1  C    1.139291
     2  C   -1.299945
     3  C    0.337687
     4  C   -0.152992
     5  S   -0.114991
     8  C    1.139251
     9  C   -1.299962
    10  S   -0.114991
    11  C    0.337689
    12  C   -0.152996
    15  O   -0.107669
    16  O   -0.107669
    17  C    0.198649
    21  C    0.198649
 Electronic spatial extent (au):  <R**2>=           3435.0297
 Charge=             -0.0000 electrons
 Dipole moment (field-independent basis, Debye):
    X=             -0.0000    Y=              2.0801    Z=              0.0000  Tot=              2.0801
 Quadrupole moment (field-independent basis, Debye-Ang):
   XX=            -74.5871   YY=            -92.8807   ZZ=            -93.5958
   XY=             -0.0000   XZ=              2.7092   YZ=              0.0000
 Traceless Quadrupole moment (field-independent basis, Debye-Ang):
   XX=             12.4341   YY=             -5.8595   ZZ=             -6.5746
   XY=             -0.0000   XZ=              2.7092   YZ=              0.0000
 Octapole moment (field-independent basis, Debye-Ang**2):
  XXX=              0.0000  YYY=             32.5943  ZZZ=              0.0002  XYY=             -0.0008
  XXY=             21.9476  XXZ=              0.0004  XZZ=              0.0007  YZZ=             10.0845
  YYZ=              0.0003  XYZ=             27.4678
 Hexadecapole moment (field-independent basis, Debye-Ang**3):
 XXXX=          -2381.9048 YYYY=           -986.5468 ZZZZ=           -982.0230 XXXY=             -0.0002
 XXXZ=            -11.7903 YYYX=             -0.0010 YYYZ=             -0.0017 ZZZX=             37.9042
 ZZZY=              0.0016 XXYY=           -566.9116 XXZZ=           -541.8650 YYZZ=           -290.7583
 XXYZ=             -0.0004 YYXZ=             26.5203 ZZXY=              0.0002
 N-N= 1.096200552087D+03 E-N=-5.340260295304D+03  KE= 1.330471863137D+03
 Calling FoFJK, ICntrl=      2127 FMM=F ISym2X=0 I1Cent= 0 IOpClX= 0 NMat=1 NMatS=1 NMatT=0.
 ***** Axes restored to original set *****
 -------------------------------------------------------------------
 Center     Atomic                   Forces (Hartrees/Bohr)
 Number     Number              X              Y              Z
 -------------------------------------------------------------------
      1        6          -0.016348516   -0.015918353   -0.001909116
      2        6           0.012305421    0.007728637   -0.000962293
      3        6          -0.002781221    0.002678034    0.003523866
      4        6           0.006321020    0.004224769    0.000037583
      5       16           0.003877284   -0.006751202   -0.008040009
      6        1          -0.000398151   -0.000140333    0.000039611
      7        1          -0.000319681   -0.000478144   -0.000294380
      8        6           0.016348370    0.015918542   -0.001908685
      9        6          -0.012305532   -0.007728505   -0.000962164
     10       16          -0.003877970    0.006752271   -0.008038773
     11        6           0.002781571   -0.002678503    0.003523217
     12        6          -0.006321052   -0.004224782    0.000037681
     13        1           0.000398139    0.000140345    0.000039627
     14        1           0.000319656    0.000478189   -0.000294340
     15        8          -0.005787765   -0.001021624    0.002505913
     16        8           0.005787905    0.001021422    0.002505644
     17        6           0.000444648   -0.005608911    0.004874126
     18        1           0.000258897   -0.000098554   -0.000182429
     19        1          -0.000027233   -0.000250443    0.000221581
     20        1           0.000040091    0.000335281    0.000184575
     21        6          -0.000443814    0.005607680    0.004875585
     22        1          -0.000259190    0.000098611   -0.000182710
     23        1           0.000027201    0.000250478    0.000221539
     24        1          -0.000040078   -0.000334905    0.000184351
 -------------------------------------------------------------------
 Cartesian Forces:  Max     0.016348516 RMS     0.005385118

 GradGradGradGradGradGradGradGradGradGradGradGradGradGradGradGradGradGrad
 Berny optimization.
 FormGI is forming the generalized inverse of G from B-inverse, IUseBI=4.
 Internal  Forces:  Max     0.014471652 RMS     0.003348358
 Search for a local minimum.
 Step number   1 out of a maximum of  121
 All quantities printed in internal units (Hartrees-Bohrs-Radians)
 Mixed Optimization -- RFO/linear search
 Second derivative matrix not updated -- first step.
 ITU=  0
     Eigenvalues ---    0.01407   0.01407   0.01605   0.01609   0.01613
     Eigenvalues ---    0.01688   0.01979   0.01987   0.02100   0.02100
     Eigenvalues ---    0.02112   0.02113   0.02173   0.02173   0.02275
     Eigenvalues ---    0.02275   0.10067   0.10067   0.10655   0.10655
     Eigenvalues ---    0.16000   0.16000   0.16000   0.16000   0.16000
     Eigenvalues ---    0.16000   0.16000   0.16000   0.16000   0.16000
     Eigenvalues ---    0.22532   0.22532   0.24749   0.24749   0.25000
     Eigenvalues ---    0.25000   0.25000   0.25000   0.25000   0.25000
     Eigenvalues ---    0.29143   0.29143   0.32171   0.32171   0.34228
     Eigenvalues ---    0.34228   0.34228   0.34228   0.34973   0.34973
     Eigenvalues ---    0.35945   0.35945   0.36108   0.36108   0.39085
     Eigenvalues ---    0.40753   0.40753   0.42229   0.42229   0.45570
     Eigenvalues ---    0.45570   0.50101   0.50101   0.52226   0.52226
     Eigenvalues --- 1000.000001000.000001000.000001000.000001000.00000
     Eigenvalues --- 1000.000001000.000001000.000001000.000001000.00000
     Eigenvalues --- 1000.000001000.000001000.000001000.000001000.00000
     Eigenvalues --- 1000.000001000.000001000.000001000.000001000.00000
     Eigenvalues --- 1000.000001000.000001000.000001000.000001000.00000
     Eigenvalues --- 1000.000001000.000001000.000001000.000001000.00000
     Eigenvalues --- 1000.000001000.000001000.000001000.000001000.00000
     Eigenvalues --- 1000.000001000.000001000.000001000.000001000.00000
     Eigenvalues --- 1000.000001000.000001000.000001000.000001000.00000
     Eigenvalues --- 1000.00000
 RFO step:  Lambda=-3.14932446D-03 EMin= 1.40683407D-02
 Linear search not attempted -- first point.
 Iteration  1 RMS(Cart)=  0.02452282 RMS(Int)=  0.00011627
 Iteration  2 RMS(Cart)=  0.00025236 RMS(Int)=  0.00002259
 Iteration  3 RMS(Cart)=  0.00000004 RMS(Int)=  0.00002259
 Iteration  1 RMS(Cart)=  0.00000036 RMS(Int)=  0.00000010
 Variable       Old X    -DE/DX   Delta X   Delta X   Delta X     New X
                                 (Linear)    (Quad)   (Total)
    R1        2.62118  -0.01447   0.00000  -0.03072  -0.03070   2.59048
    R2        3.32335  -0.00862   0.00000  -0.02929  -0.02925   3.29410
    R3        2.72816   0.00547   0.00000   0.01388   0.01388   2.74204
    R4        2.69003   0.00067   0.00000   0.00139   0.00137   2.69141
    R5        2.57684  -0.01090   0.00000  -0.02074  -0.02074   2.55610
    R6        2.58219  -0.00516   0.00000  -0.00941  -0.00945   2.57275
    R7        2.04168   0.00023   0.00000   0.00064   0.00064   2.04233
    R8        3.26175  -0.00804   0.00000  -0.02335  -0.02336   3.23839
    R9        2.03912   0.00029   0.00000   0.00080   0.00080   2.03992
   R10        2.62118  -0.01447   0.00000  -0.03072  -0.03070   2.59048
   R11        3.32335  -0.00862   0.00000  -0.02929  -0.02925   3.29410
   R12        2.69003   0.00067   0.00000   0.00139   0.00137   2.69141
   R13        2.57684  -0.01090   0.00000  -0.02074  -0.02074   2.55610
   R14        3.26175  -0.00804   0.00000  -0.02335  -0.02336   3.23839
   R15        2.58219  -0.00516   0.00000  -0.00941  -0.00945   2.57275
   R16        2.04168   0.00023   0.00000   0.00064   0.00064   2.04233
   R17        2.03912   0.00029   0.00000   0.00080   0.00080   2.03992
   R18        2.68632  -0.00719   0.00000  -0.01690  -0.01690   2.66942
   R19        2.68632  -0.00719   0.00000  -0.01690  -0.01690   2.66942
   R20        2.06947   0.00033   0.00000   0.00095   0.00095   2.07042
   R21        2.05719  -0.00015   0.00000  -0.00041  -0.00041   2.05678
   R22        2.06947   0.00038   0.00000   0.00110   0.00110   2.07058
   R23        2.06947   0.00033   0.00000   0.00095   0.00095   2.07042
   R24        2.05719  -0.00015   0.00000  -0.00041  -0.00041   2.05678
   R25        2.06947   0.00038   0.00000   0.00110   0.00110   2.07058
    A1        1.90639   0.00304   0.00000   0.01016   0.01018   1.91656
    A2        2.23296  -0.00121   0.00000  -0.00386  -0.00392   2.22904
    A3        2.14384  -0.00183   0.00000  -0.00630  -0.00636   2.13748
    A4        1.99480  -0.00143   0.00000  -0.00712  -0.00711   1.98769
    A5        2.08497   0.00175   0.00000   0.00765   0.00765   2.09262
    A6        2.20341  -0.00032   0.00000  -0.00054  -0.00054   2.20287
    A7        1.95572  -0.00054   0.00000  -0.00154  -0.00158   1.95415
    A8        2.17384   0.00063   0.00000   0.00296   0.00298   2.17682
    A9        2.15362  -0.00009   0.00000  -0.00142  -0.00140   2.15221
   A10        1.96177  -0.00110   0.00000  -0.00258  -0.00261   1.95915
   A11        2.23094  -0.00004   0.00000  -0.00230  -0.00229   2.22865
   A12        2.09048   0.00114   0.00000   0.00488   0.00490   2.09538
   A13        1.60610   0.00003   0.00000   0.00107   0.00112   1.60722
   A14        2.23296  -0.00121   0.00000  -0.00386  -0.00393   2.22903
   A15        2.14384  -0.00183   0.00000  -0.00630  -0.00636   2.13747
   A16        1.90639   0.00304   0.00000   0.01016   0.01017   1.91656
   A17        1.99480  -0.00143   0.00000  -0.00712  -0.00711   1.98769
   A18        2.08497   0.00175   0.00000   0.00765   0.00765   2.09262
   A19        2.20341  -0.00032   0.00000  -0.00054  -0.00054   2.20287
   A20        1.60610   0.00003   0.00000   0.00107   0.00112   1.60722
   A21        1.95572  -0.00054   0.00000  -0.00154  -0.00158   1.95415
   A22        2.17384   0.00063   0.00000   0.00296   0.00298   2.17682
   A23        2.15362  -0.00009   0.00000  -0.00142  -0.00140   2.15221
   A24        1.96177  -0.00110   0.00000  -0.00258  -0.00261   1.95915
   A25        2.09048   0.00114   0.00000   0.00488   0.00490   2.09538
   A26        2.23094  -0.00004   0.00000  -0.00230  -0.00229   2.22865
   A27        2.05933  -0.00615   0.00000  -0.02428  -0.02428   2.03505
   A28        2.05933  -0.00615   0.00000  -0.02428  -0.02428   2.03505
   A29        1.94159   0.00000   0.00000   0.00013   0.00013   1.94172
   A30        1.84964  -0.00049   0.00000  -0.00326  -0.00326   1.84638
   A31        1.94160   0.00017   0.00000   0.00116   0.00116   1.94276
   A32        1.90836   0.00015   0.00000   0.00068   0.00068   1.90904
   A33        1.91300   0.00006   0.00000   0.00077   0.00077   1.91377
   A34        1.90835   0.00010   0.00000   0.00041   0.00041   1.90876
   A35        1.94159   0.00000   0.00000   0.00013   0.00013   1.94172
   A36        1.84964  -0.00049   0.00000  -0.00326  -0.00326   1.84638
   A37        1.94160   0.00017   0.00000   0.00116   0.00116   1.94276
   A38        1.90836   0.00015   0.00000   0.00068   0.00068   1.90904
   A39        1.91300   0.00006   0.00000   0.00077   0.00077   1.91377
   A40        1.90835   0.00010   0.00000   0.00041   0.00041   1.90876
    D1        0.00007   0.00000   0.00000  -0.00017  -0.00019  -0.00012
    D2       -3.14152  -0.00004   0.00000  -0.00243  -0.00246   3.13921
    D3       -3.14157   0.00033   0.00000   0.01544   0.01548  -3.12609
    D4        0.00003   0.00028   0.00000   0.01318   0.01321   0.01324
    D5       -0.00007   0.00003   0.00000   0.00115   0.00117   0.00110
    D6        3.14156  -0.00028   0.00000  -0.01350  -0.01352   3.12804
    D7        1.57085  -0.00035   0.00000  -0.01755  -0.01747   1.55338
    D8       -1.57079   0.00002   0.00000   0.00079   0.00079  -1.57000
    D9       -1.57080   0.00002   0.00000   0.00000   0.00000  -1.57080
   D10        1.57075   0.00038   0.00000   0.01834   0.01826   1.58901
   D11       -0.00003  -0.00004   0.00000  -0.00126  -0.00125  -0.00128
   D12        3.14157  -0.00005   0.00000  -0.00194  -0.00194   3.13963
   D13        3.14156   0.00001   0.00000   0.00118   0.00119  -3.14044
   D14       -0.00002   0.00000   0.00000   0.00050   0.00050   0.00048
   D15       -3.14122   0.00004   0.00000   0.00190   0.00191  -3.13931
   D16        0.00037  -0.00001   0.00000  -0.00066  -0.00066  -0.00029
   D17       -0.00003   0.00006   0.00000   0.00213   0.00213   0.00210
   D18       -3.14157  -0.00003   0.00000  -0.00158  -0.00158   3.14003
   D19        3.14155   0.00007   0.00000   0.00281   0.00281  -3.13882
   D20        0.00001  -0.00003   0.00000  -0.00091  -0.00090  -0.00089
   D21        0.00006  -0.00005   0.00000  -0.00191  -0.00192  -0.00186
   D22       -3.14158   0.00003   0.00000   0.00147   0.00147  -3.14010
   D23       -3.14156   0.00033   0.00000   0.01586   0.01589  -3.12567
   D24        0.00003   0.00028   0.00000   0.01362   0.01365   0.01368
   D25        0.00007   0.00000   0.00000  -0.00046  -0.00048  -0.00041
   D26       -3.14152  -0.00004   0.00000  -0.00270  -0.00272   3.13894
   D27        3.14156  -0.00028   0.00000  -0.01390  -0.01391   3.12765
   D28       -0.00007   0.00003   0.00000   0.00142   0.00144   0.00137
   D29       -0.00003  -0.00004   0.00000  -0.00109  -0.00108  -0.00111
   D30        3.14157  -0.00005   0.00000  -0.00185  -0.00184   3.13973
   D31        3.14157   0.00001   0.00000   0.00132   0.00132  -3.14030
   D32       -0.00002   0.00000   0.00000   0.00057   0.00057   0.00055
   D33       -3.14125   0.00004   0.00000   0.00189   0.00190  -3.13935
   D34        0.00034  -0.00001   0.00000  -0.00064  -0.00064  -0.00030
   D35        0.00006  -0.00005   0.00000  -0.00209  -0.00210  -0.00205
   D36       -3.14158   0.00003   0.00000   0.00138   0.00139  -3.14019
   D37       -0.00003   0.00006   0.00000   0.00218   0.00218   0.00215
   D38       -3.14157  -0.00003   0.00000  -0.00164  -0.00164   3.13998
   D39        3.14156   0.00007   0.00000   0.00292   0.00292  -3.13870
   D40        0.00001  -0.00003   0.00000  -0.00090  -0.00089  -0.00088
   D41        1.06888   0.00011   0.00000   0.00148   0.00148   1.07037
   D42        3.14139  -0.00000   0.00000   0.00041   0.00042  -3.14138
   D43       -1.06931  -0.00009   0.00000  -0.00042  -0.00042  -1.06973
   D44        1.06890   0.00011   0.00000   0.00148   0.00148   1.07038
   D45        3.14140  -0.00000   0.00000   0.00041   0.00041  -3.14137
   D46       -1.06929  -0.00009   0.00000  -0.00042  -0.00042  -1.06971
         Item               Value     Threshold  Converged?
 Maximum Force            0.014472     0.000450     NO 
 RMS     Force            0.003364     0.000300     NO 
 Maximum Displacement     0.066231     0.001800     NO 
 RMS     Displacement     0.024623     0.001200     NO 
 Predicted change in Energy=-1.591049D-03
 GradGradGradGradGradGradGradGradGradGradGradGradGradGradGradGradGradGrad

                          Input orientation:                          
 ---------------------------------------------------------------------
 Center     Atomic      Atomic             Coordinates (Angstroms)
 Number     Number       Type             X           Y           Z
 ---------------------------------------------------------------------
      1          6           0       -0.591804   -0.419826   -0.003232
      2          6           0       -0.835516   -1.525054   -0.776687
      3          6           0       -2.109549   -2.119271   -0.548257
      4          6           0       -2.819110   -1.452615    0.403379
      5         16           0       -1.962189   -0.106158    1.027432
      6          1           0       -2.481746   -2.994241   -1.061990
      7          1           0       -3.808001   -1.681619    0.770704
      8          6           0        0.591399    0.420120   -0.003109
      9          6           0        0.835289    1.525317   -0.776552
     10         16           0        1.962009    0.105821    1.027062
     11          6           0        2.109482    2.119232   -0.548233
     12          6           0        2.819069    1.452259    0.403161
     13          1           0        2.481794    2.994183   -1.061915
     14          1           0        3.808089    1.680966    0.770324
     15          8           0        0.098436   -1.950724   -1.657677
     16          8           0       -0.098665    1.951247   -1.657416
     17          6           0        0.226421    3.094737   -2.420421
     18          1           0        1.110365    2.918434   -3.043271
     19          1           0       -0.634967    3.278907   -3.059728
     20          1           0        0.395705    3.966666   -1.778826
     21          6           0       -0.226483   -3.094235   -2.420723
     22          1           0       -1.110541   -2.918088   -3.043454
     23          1           0        0.634870   -3.278168   -3.060144
     24          1           0       -0.395494   -3.966247   -1.779167
 ---------------------------------------------------------------------
                    Distance matrix (angstroms):
                    1          2          3          4          5
     1  C    0.000000
     2  C    1.370824   0.000000
     3  C    2.342800   1.424231   0.000000
     4  C    2.488549   2.309209   1.361440   0.000000
     5  S    1.743160   2.556854   2.560690   1.713681   0.000000
     6  H    3.364589   2.224855   1.080752   2.153539   3.602311
     7  H    3.540483   3.354787   2.194524   1.079479   2.440289
     8  C    1.451027   2.533419   3.747107   3.912025   2.803532
     9  C    2.533416   3.477981   4.691184   4.859521   3.707013
    10  S    2.803529   3.706671   4.900025   5.067228   3.929919
    11  C    3.747104   4.691058   5.980395   6.160736   4.900365
    12  C    3.912022   4.859262   6.160543   6.342504   5.067426
    13  H    4.714156   5.613324   6.891421   7.072530   5.807449
    14  H    4.936676   5.851058   7.155340   7.339873   6.046157
    15  O    2.357386   1.352629   2.476775   3.606680   3.854660
    16  O    2.932831   3.661052   4.673650   4.820163   3.861870
    17  C    4.343322   5.017175   6.012290   6.158532   5.188779
    18  H    4.825266   5.354292   6.478534   6.813680   5.929533
    19  H    4.798401   5.322644   6.133694   6.257066   5.470379
    20  H    4.834172   5.716571   6.695463   6.668258   5.479292
    21  C    3.623560   2.352893   2.828890   4.170394   4.881706
    22  H    3.969050   2.674774   2.803950   4.116732   5.020395
    23  H    4.361142   3.232587   3.896724   5.220978   5.789183
    24  H    3.971094   2.675445   2.804361   4.117738   5.023128
                    6          7          8          9         10
     6  H    0.000000
     7  H    2.615472   0.000000
     8  C    4.714160   4.936680   0.000000
     9  C    5.613430   5.851374   1.370824   0.000000
    10  S    5.807020   6.045963   1.743161   2.556853   0.000000
    11  C    6.891366   7.155603   2.342801   1.424231   2.560689
    12  C    7.072246   7.339914   2.488550   2.309209   1.713681
    13  H    7.778043   8.048797   3.364590   2.224855   3.602310
    14  H    8.048413   8.325371   3.540484   3.354787   2.440288
    15  O    2.846244   4.607570   2.932833   3.660901   3.861361
    16  O    5.521907   5.731723   2.357386   1.352629   3.854659
    17  C    6.801114   7.019502   3.623560   2.352893   4.881704
    18  H    7.196420   7.739329   3.969066   2.674781   5.020329
    19  H    6.837684   7.024753   4.361142   3.232587   5.789181
    20  H    7.566228   7.488282   3.971078   2.675439   5.023191
    21  C    2.634837   5.000796   4.343326   5.017063   5.188167
    22  H    2.410851   4.832489   4.825343   5.354339   5.929056
    23  H    3.713022   6.079759   4.798404   5.322445   5.469729
    24  H    2.410723   4.833898   4.834103   5.716409   5.478547
                   11         12         13         14         15
    11  C    0.000000
    12  C    1.361439   0.000000
    13  H    1.080752   2.153539   0.000000
    14  H    2.194524   1.079479   2.615472   0.000000
    15  O    4.673298   4.819667   5.521543   5.731134   0.000000
    16  O    2.476775   3.606679   2.846244   4.607569   3.906946
    17  C    2.828890   4.170393   2.634836   5.000795   5.104394
    18  H    2.803957   4.116701   2.410877   4.832447   5.162613
    19  H    3.896723   5.220977   3.713021   6.079758   5.463759
    20  H    2.804355   4.117767   2.410696   4.833938   5.926091
    21  C    6.011921   6.157947   6.800732   7.018768   1.412596
    22  H    6.478370   6.813291   7.196272   7.738807   2.077931
    23  H    6.133196   6.256368   6.837136   7.023874   2.004191
    24  H    6.695010   6.667547   7.565766   7.487391   2.078716
                   16         17         18         19         20
    16  O    0.000000
    17  C    1.412596   0.000000
    18  H    2.077931   1.095619   0.000000
    19  H    2.004191   1.088402   1.782244   0.000000
    20  H    2.078715   1.095702   1.791187   1.782136   0.000000
    21  C    5.104495   6.205522   6.190874   6.418109   7.117266
    22  H    5.162889   6.191099   6.244791   6.215238   7.160161
    23  H    5.463744   6.417943   6.214841   6.678900   7.361154
    24  H    5.926184   7.117266   7.159916   7.361347   7.972271
                   21         22         23         24
    21  C    0.000000
    22  H    1.095619   0.000000
    23  H    1.088402   1.782245   0.000000
    24  H    1.095702   1.791187   1.782135   0.000000
 Stoichiometry    C10H10O2S2
 Framework group  C1[X(C10H10O2S2)]
 Deg. of freedom    66
 Full point group                 C1      NOp   1
 Largest Abelian subgroup         C1      NOp   1
 Largest concise Abelian subgroup C1      NOp   1
                         Standard orientation:                         
 ---------------------------------------------------------------------
 Center     Atomic      Atomic             Coordinates (Angstroms)
 Number     Number       Type             X           Y           Z
 ---------------------------------------------------------------------
      1          6           0        0.704575   -0.188088    0.415251
      2          6           0        1.700192    0.377061   -0.338746
      3          6           0        2.982756   -0.206259   -0.130896
      4          6           0        2.942225   -1.212069    0.785739
      5         16           0        1.363172   -1.465808    1.401297
      6          1           0        3.888147    0.102100   -0.634092
      7          1           0        3.762025   -1.823277    1.131612
      8          6           0       -0.704540    0.157914    0.427705
      9          6           0       -1.700344   -0.352364   -0.364223
     10         16           0       -1.362683    1.363325    1.501225
     11          6           0       -2.982756    0.215118   -0.115598
     12          6           0       -2.941887    1.153844    0.869614
     13          1           0       -3.888271   -0.056800   -0.639170
     14          1           0       -3.761503    1.739363    1.257780
     15          8           0        1.411675    1.392618   -1.184327
     16          8           0       -1.412129   -1.305774   -1.279399
     17          6           0       -2.489990   -1.780037   -2.059603
     18          1           0       -2.934497   -0.974350   -2.654300
     19          1           0       -2.066258   -2.529161   -2.725849
     20          1           0       -3.260418   -2.244381   -1.433994
     21          6           0        2.489351    1.920999   -1.929215
     22          1           0        2.933975    1.159385   -2.579319
     23          1           0        2.065385    2.715172   -2.540902
     24          1           0        3.259740    2.340217   -1.272466
 ---------------------------------------------------------------------
 Rotational constants (GHZ):           0.7458583           0.3952832           0.3945949
 Standard basis: 6-311+G(d,p) (5D, 7F)
 There are   398 symmetry adapted cartesian basis functions of A   symmetry.
 There are   384 symmetry adapted basis functions of A   symmetry.
   384 basis functions,   612 primitive gaussians,   398 cartesian basis functions
    59 alpha electrons       59 beta electrons
       nuclear repulsion energy      1103.2776083631 Hartrees.
 NAtoms=   24 NActive=   24 NUniq=   24 SFac= 1.00D+00 NAtFMM=   60 NAOKFM=F Big=F
 Integral buffers will be    131072 words long.
 Raffenetti 2 integral format.
 Two-electron integral symmetry is turned on.
 Nuclear repulsion after empirical dispersion term =     1103.2640376381 Hartrees.
 One-electron integrals computed using PRISM.
 NBasis=   384 RedAO= T EigKep=  1.30D-06  NBF=   384
 NBsUse=   383 1.00D-06 EigRej=  7.20D-07 NBFU=   383
 Initial guess from the checkpoint file:  "gT2_innerdihscan.chk"
 B after Tr=    -0.000000   -0.000000   -0.000000
         Rot=    0.719466    0.694527    0.000721   -0.000757 Ang=  87.98 deg.
 ExpMin= 4.05D-02 ExpMax= 9.34D+04 ExpMxC= 3.17D+03 IAcc=2 IRadAn=         4 AccDes= 0.00D+00
 Harris functional with IExCor= 4639 and IRadAn=       4 diagonalized for initial guess.
 HarFok:  IExCor= 4639 AccDes= 0.00D+00 IRadAn=         4 IDoV= 1 UseB2=F ITyADJ=14
 ICtDFT=  3500011 ScaDFX=  1.000000  1.000000  1.000000  1.000000
 FoFCou: FMM=F IPFlag=           0 FMFlag=      100000 FMFlg1=           0
         NFxFlg=           0 DoJE=T BraDBF=F KetDBF=T FulRan=T
         wScrn=  0.000000 ICntrl=       500 IOpCl=  0 I1Cent=   200000004 NGrid=           0
         NMat0=    1 NMatS0=      1 NMatT0=    0 NMatD0=    1 NMtDS0=    0 NMtDT0=    0
 Petite list used in FoFCou.
 Requested convergence on RMS density matrix=1.00D-08 within 128 cycles.
 Requested convergence on MAX density matrix=1.00D-06.
 Requested convergence on             energy=1.00D-06.
 No special actions if energy rises.
 SCF Done:  E(RwB97XD) =  -1333.82443450     A.U. after   15 cycles
            NFock= 15  Conv=0.28D-08     -V/T= 2.0023
 Calling FoFJK, ICntrl=      2127 FMM=F ISym2X=0 I1Cent= 0 IOpClX= 0 NMat=1 NMatS=1 NMatT=0.
 ***** Axes restored to original set *****
 -------------------------------------------------------------------
 Center     Atomic                   Forces (Hartrees/Bohr)
 Number     Number              X              Y              Z
 -------------------------------------------------------------------
      1        6          -0.006141203   -0.001935405    0.002850569
      2        6           0.004372041    0.001415957   -0.001785484
      3        6          -0.001900953   -0.001397143   -0.000022462
      4        6           0.000222732    0.001881596    0.001209376
      5       16           0.001746155   -0.000537615   -0.001536238
      6        1          -0.000265511    0.000186399    0.000337859
      7        1          -0.000000131   -0.000381281   -0.000240043
      8        6           0.006140585    0.001895417    0.002794432
      9        6          -0.004351964   -0.001372173   -0.001800046
     10       16          -0.001754016    0.000595482   -0.001515113
     11        6           0.001930262    0.001376529   -0.000005530
     12        6          -0.000256019   -0.001932661    0.001232073
     13        1           0.000245129   -0.000174002    0.000323167
     14        1          -0.000001291    0.000380463   -0.000239955
     15        8          -0.001948541   -0.001411414    0.000005841
     16        8           0.001949950    0.001414311    0.000008973
     17        6          -0.001722957   -0.001421276    0.000161597
     18        1          -0.000007921    0.000297158   -0.000270552
     19        1           0.000179065    0.000697406   -0.000464731
     20        1          -0.000010086    0.000295842   -0.000229980
     21        6           0.001724767    0.001415007    0.000156169
     22        1          -0.000002589   -0.000291917   -0.000262499
     23        1          -0.000178068   -0.000696164   -0.000462858
     24        1           0.000030565   -0.000300517   -0.000244564
 -------------------------------------------------------------------
 Cartesian Forces:  Max     0.006141203 RMS     0.001685506

 GradGradGradGradGradGradGradGradGradGradGradGradGradGradGradGradGradGrad
 Berny optimization.
 Using GEDIIS/GDIIS optimizer.
 FormGI is forming the generalized inverse of G from B-inverse, IUseBI=4.
 Internal  Forces:  Max     0.003908145 RMS     0.000937216
 Search for a local minimum.
 Step number   2 out of a maximum of  121
 All quantities printed in internal units (Hartrees-Bohrs-Radians)
 Mixed Optimization -- En-DIIS/RFO-DIIS
 Update second derivatives using D2CorX and points    1    2
 DE= -1.63D-03 DEPred=-1.59D-03 R= 1.02D+00
 TightC=F SS=  1.41D+00  RLast= 1.02D-01 DXNew= 5.0454D-01 3.0451D-01
 Trust test= 1.02D+00 RLast= 1.02D-01 DXMaxT set to 3.05D-01
 ITU=  1  0
 Use linear search instead of GDIIS.
     Eigenvalues ---    0.01407   0.01407   0.01603   0.01606   0.01614
     Eigenvalues ---    0.01677   0.01979   0.01987   0.02100   0.02102
     Eigenvalues ---    0.02111   0.02112   0.02173   0.02173   0.02273
     Eigenvalues ---    0.02273   0.10060   0.10061   0.10672   0.10672
     Eigenvalues ---    0.15715   0.16000   0.16000   0.16000   0.16000
     Eigenvalues ---    0.16000   0.16000   0.16000   0.16000   0.16059
     Eigenvalues ---    0.21975   0.22534   0.22537   0.24753   0.24992
     Eigenvalues ---    0.24996   0.24997   0.25000   0.25000   0.25964
     Eigenvalues ---    0.28520   0.29134   0.31831   0.32164   0.34224
     Eigenvalues ---    0.34228   0.34228   0.34228   0.34973   0.34978
     Eigenvalues ---    0.35945   0.35950   0.36108   0.36109   0.38223
     Eigenvalues ---    0.40669   0.40741   0.42229   0.42684   0.45537
     Eigenvalues ---    0.46899   0.50096   0.51114   0.52226   0.57221
     Eigenvalues --- 1000.000001000.000001000.000001000.000001000.00000
     Eigenvalues --- 1000.000001000.000001000.000001000.000001000.00000
     Eigenvalues --- 1000.000001000.000001000.000001000.000001000.00000
     Eigenvalues --- 1000.000001000.000001000.000001000.000001000.00000
     Eigenvalues --- 1000.000001000.000001000.000001000.000001000.00000
     Eigenvalues --- 1000.000001000.000001000.000001000.000001000.00000
     Eigenvalues --- 1000.000001000.000001000.000001000.000001000.00000
     Eigenvalues --- 1000.000001000.000001000.000001000.000001000.00000
     Eigenvalues --- 1000.000001000.000001000.000001000.000001000.00000
     Eigenvalues --- 1000.00000
 RFO step:  Lambda=-3.69646387D-04 EMin= 1.40681129D-02
 Quartic linear search produced a step of  0.01651.
 Iteration  1 RMS(Cart)=  0.01555513 RMS(Int)=  0.00006072
 Iteration  2 RMS(Cart)=  0.00012462 RMS(Int)=  0.00001025
 Iteration  3 RMS(Cart)=  0.00000000 RMS(Int)=  0.00001025
 Iteration  1 RMS(Cart)=  0.00000088 RMS(Int)=  0.00000025
 Variable       Old X    -DE/DX   Delta X   Delta X   Delta X     New X
                                 (Linear)    (Quad)   (Total)
    R1        2.59048   0.00089  -0.00051  -0.00105  -0.00154   2.58894
    R2        3.29410  -0.00240  -0.00048  -0.01144  -0.01192   3.28218
    R3        2.74204   0.00310   0.00023   0.00942   0.00965   2.75169
    R4        2.69141   0.00248   0.00002   0.00646   0.00648   2.69789
    R5        2.55610   0.00067  -0.00034  -0.00076  -0.00110   2.55499
    R6        2.57275   0.00094  -0.00016   0.00101   0.00084   2.57359
    R7        2.04233  -0.00022   0.00001  -0.00056  -0.00055   2.04178
    R8        3.23839  -0.00093  -0.00039  -0.00545  -0.00585   3.23254
    R9        2.03992  -0.00000   0.00001   0.00008   0.00009   2.04001
   R10        2.59048   0.00092  -0.00051  -0.00099  -0.00149   2.58899
   R11        3.29410  -0.00241  -0.00048  -0.01146  -0.01193   3.28216
   R12        2.69141   0.00247   0.00002   0.00644   0.00646   2.69786
   R13        2.55610   0.00066  -0.00034  -0.00078  -0.00112   2.55497
   R14        3.23839  -0.00097  -0.00039  -0.00559  -0.00599   3.23240
   R15        2.57275   0.00094  -0.00016   0.00101   0.00084   2.57359
   R16        2.04233  -0.00021   0.00001  -0.00053  -0.00052   2.04181
   R17        2.03992  -0.00000   0.00001   0.00007   0.00009   2.04001
   R18        2.66942  -0.00002  -0.00028  -0.00174  -0.00202   2.66740
   R19        2.66942  -0.00003  -0.00028  -0.00176  -0.00203   2.66739
   R20        2.07042   0.00010   0.00002   0.00039   0.00040   2.07082
   R21        2.05678   0.00025  -0.00001   0.00069   0.00068   2.05746
   R22        2.07058   0.00010   0.00002   0.00040   0.00042   2.07100
   R23        2.07042   0.00011   0.00002   0.00041   0.00042   2.07084
   R24        2.05678   0.00025  -0.00001   0.00068   0.00067   2.05745
   R25        2.07058   0.00009   0.00002   0.00038   0.00040   2.07097
    A1        1.91656   0.00174   0.00017   0.00790   0.00806   1.92462
    A2        2.22904  -0.00094  -0.00006  -0.00418  -0.00428   2.22476
    A3        2.13748  -0.00081  -0.00010  -0.00389  -0.00402   2.13345
    A4        1.98769  -0.00195  -0.00012  -0.00791  -0.00801   1.97968
    A5        2.09262   0.00083   0.00013   0.00376   0.00388   2.09650
    A6        2.20287   0.00112  -0.00001   0.00415   0.00413   2.20701
    A7        1.95415  -0.00028  -0.00003  -0.00062  -0.00065   1.95350
    A8        2.17682   0.00056   0.00005   0.00320   0.00325   2.18007
    A9        2.15221  -0.00028  -0.00002  -0.00258  -0.00260   2.14961
   A10        1.95915   0.00037  -0.00004   0.00134   0.00129   1.96044
   A11        2.22865  -0.00064  -0.00004  -0.00390  -0.00393   2.22472
   A12        2.09538   0.00027   0.00008   0.00256   0.00265   2.09803
   A13        1.60722   0.00013   0.00002  -0.00072  -0.00070   1.60652
   A14        2.22903  -0.00088  -0.00006  -0.00394  -0.00402   2.22501
   A15        2.13747  -0.00085  -0.00011  -0.00406  -0.00419   2.13328
   A16        1.91656   0.00173   0.00017   0.00787   0.00804   1.92460
   A17        1.98769  -0.00196  -0.00012  -0.00793  -0.00804   1.97966
   A18        2.09262   0.00084   0.00013   0.00380   0.00392   2.09654
   A19        2.20287   0.00112  -0.00001   0.00413   0.00411   2.20699
   A20        1.60722   0.00014   0.00002  -0.00069  -0.00067   1.60655
   A21        1.95415  -0.00028  -0.00003  -0.00062  -0.00065   1.95350
   A22        2.17682   0.00054   0.00005   0.00302   0.00307   2.17989
   A23        2.15221  -0.00025  -0.00002  -0.00240  -0.00242   2.14979
   A24        1.95915   0.00038  -0.00004   0.00137   0.00131   1.96046
   A25        2.09538   0.00027   0.00008   0.00257   0.00266   2.09804
   A26        2.22865  -0.00065  -0.00004  -0.00393  -0.00396   2.22469
   A27        2.03505   0.00391  -0.00040   0.01347   0.01307   2.04812
   A28        2.03505   0.00389  -0.00040   0.01338   0.01297   2.04803
   A29        1.94172   0.00030   0.00000   0.00186   0.00186   1.94358
   A30        1.84638   0.00106  -0.00005   0.00653   0.00646   1.85285
   A31        1.94276   0.00025   0.00002   0.00161   0.00163   1.94439
   A32        1.90904  -0.00062   0.00001  -0.00376  -0.00375   1.90528
   A33        1.91377  -0.00036   0.00001  -0.00239  -0.00238   1.91138
   A34        1.90876  -0.00062   0.00001  -0.00380  -0.00380   1.90496
   A35        1.94172   0.00028   0.00000   0.00177   0.00177   1.94349
   A36        1.84638   0.00106  -0.00005   0.00650   0.00644   1.85283
   A37        1.94276   0.00026   0.00002   0.00173   0.00175   1.94450
   A38        1.90904  -0.00061   0.00001  -0.00371  -0.00370   1.90534
   A39        1.91377  -0.00036   0.00001  -0.00236  -0.00235   1.91141
   A40        1.90876  -0.00063   0.00001  -0.00389  -0.00389   1.90486
    D1       -0.00012  -0.00008  -0.00000  -0.00469  -0.00471  -0.00483
    D2        3.13921  -0.00005  -0.00004  -0.00368  -0.00373   3.13547
    D3       -3.12609   0.00010   0.00026   0.00755   0.00782  -3.11826
    D4        0.01324   0.00012   0.00022   0.00857   0.00880   0.02204
    D5        0.00110   0.00005   0.00002   0.00354   0.00359   0.00469
    D6        3.12804  -0.00011  -0.00022  -0.00795  -0.00818   3.11986
    D7        1.55338  -0.00022  -0.00029  -0.01356  -0.01381   1.53957
    D8       -1.57000  -0.00006   0.00001  -0.00358  -0.00356  -1.57356
    D9       -1.57080  -0.00005   0.00000   0.00000  -0.00000  -1.57080
[...]
       Virtual   (A) (A) (A) (A) (A) (A) (A) (A) (A) (A) (A) (A)
                 (A) (A) (A) (A) (A) (A) (A) (A) (A) (A) (A) (A)
                 (A) (A) (A) (A) (A) (A) (A) (A) (A) (A) (A) (A)
                 (A) (A) (A) (A) (A) (A) (A) (A) (A) (A) (A) (A)
                 (A) (A) (A) (A) (A) (A) (A) (A) (A) (A) (A) (A)
                 (A) (A) (A) (A) (A) (A) (A) (A) (A) (A) (A) (A)
                 (A) (A) (A) (A) (A) (A) (A) (A) (A) (A) (A) (A)
                 (A) (A) (A) (A) (A) (A) (A) (A) (A) (A) (A) (A)
                 (A) (A) (A) (A) (A) (A) (A) (A) (A) (A) (A) (A)
                 (A) (A) (A) (A) (A) (A) (A) (A) (A) (A) (A) (A)
                 (A) (A) (A) (A) (A) (A) (A) (A) (A) (A) (A) (A)
                 (A) (A) (A) (A) (A) (A) (A) (A) (A) (A) (A) (A)
                 (A) (A) (A) (A) (A) (A) (A) (A) (A) (A) (A) (A)
                 (A) (A) (A) (A) (A) (A) (A) (A) (A) (A) (A) (A)
                 (A) (A) (A) (A) (A) (A) (A) (A) (A) (A) (A) (A)
                 (A) (A) (A) (A) (A) (A) (A) (A) (A) (A) (A) (A)
                 (A) (A) (A) (A) (A) (A) (A) (A) (A) (A) (A) (A)
                 (A) (A) (A) (A) (A) (A) (A) (A) (A) (A) (A) (A)
                 (A) (A) (A) (A) (A) (A) (A) (A) (A) (A) (A) (A)
                 (A) (A) (A) (A) (A) (A) (A) (A) (A) (A) (A) (A)
                 (A) (A) (A) (A) (A) (A) (A) (A) (A) (A) (A) (A)
                 (A) (A) (A) (A) (A) (A) (A) (A) (A) (A) (A) (A)
                 (A) (A) (A) (A) (A) (A) (A) (A) (A) (A) (A) (A)
                 (A) (A) (A) (A) (A) (A) (A) (A) (A) (A) (A) (A)
                 (A) (A) (A) (A) (A) (A) (A) (A) (A) (A) (A) (A)
                 (A) (A) (A) (A) (A) (A) (A) (A) (A) (A) (A) (A)
                 (A) (A) (A) (A) (A) (A) (A) (A) (A) (A) (A) (A)
 The electronic state is 1-A.
 Alpha  occ. eigenvalues --  -89.03940 -89.03940 -19.27766 -19.27764 -10.34611
 Alpha  occ. eigenvalues --  -10.34611 -10.33681 -10.33679 -10.31421 -10.31419
 Alpha  occ. eigenvalues --  -10.30914 -10.30879 -10.29034 -10.29034  -8.08005
 Alpha  occ. eigenvalues --   -8.08005  -6.02830  -6.02829  -6.02455  -6.02455
 Alpha  occ. eigenvalues --   -6.02114  -6.02114  -1.17623  -1.17495  -0.99333
 Alpha  occ. eigenvalues --   -0.97611  -0.86985  -0.84694  -0.84210  -0.81716
 Alpha  occ. eigenvalues --   -0.78706  -0.76888  -0.68963  -0.66091  -0.65186
 Alpha  occ. eigenvalues --   -0.63948  -0.63188  -0.57520  -0.56280  -0.56185
 Alpha  occ. eigenvalues --   -0.55084  -0.54149  -0.52755  -0.52567  -0.49471
 Alpha  occ. eigenvalues --   -0.49446  -0.48184  -0.46556  -0.46315  -0.42677
 Alpha  occ. eigenvalues --   -0.42653  -0.42038  -0.41820  -0.41373  -0.40861
 Alpha  occ. eigenvalues --   -0.32116  -0.31959  -0.28722  -0.28681
 Alpha virt. eigenvalues --    0.04594   0.04831   0.06040   0.06343   0.07281
 Alpha virt. eigenvalues --    0.07283   0.07823   0.08797   0.08832   0.08943
 Alpha virt. eigenvalues --    0.09178   0.10604   0.10652   0.11840   0.11915
 Alpha virt. eigenvalues --    0.12471   0.12617   0.12697   0.13235   0.13305
 Alpha virt. eigenvalues --    0.13976   0.14066   0.14600   0.14690   0.15850
 Alpha virt. eigenvalues --    0.16152   0.16914   0.17020   0.18845   0.19182
 Alpha virt. eigenvalues --    0.19445   0.19765   0.20445   0.21016   0.21326
 Alpha virt. eigenvalues --    0.21773   0.21824   0.21927   0.22534   0.23072
 Alpha virt. eigenvalues --    0.23712   0.23984   0.24607   0.24870   0.25035
 Alpha virt. eigenvalues --    0.25238   0.25501   0.25918   0.27053   0.27274
 Alpha virt. eigenvalues --    0.27365   0.27807   0.27927   0.28113   0.28696
 Alpha virt. eigenvalues --    0.29089   0.29696   0.30372   0.30642   0.31001
 Alpha virt. eigenvalues --    0.32044   0.32364   0.33995   0.34015   0.35118
 Alpha virt. eigenvalues --    0.35254   0.35735   0.36214   0.36684   0.37495
 Alpha virt. eigenvalues --    0.38587   0.39722   0.40338   0.41345   0.42197
 Alpha virt. eigenvalues --    0.42731   0.43232   0.43645   0.44367   0.44567
 Alpha virt. eigenvalues --    0.46102   0.48022   0.49297   0.49804   0.50979
 Alpha virt. eigenvalues --    0.52901   0.53296   0.54389   0.55103   0.55146
 Alpha virt. eigenvalues --    0.56392   0.56466   0.56852   0.57287   0.59454
 Alpha virt. eigenvalues --    0.61348   0.63765   0.63960   0.65115   0.65509
 Alpha virt. eigenvalues --    0.66342   0.67379   0.67503   0.69560   0.69848
 Alpha virt. eigenvalues --    0.71041   0.71068   0.71729   0.73750   0.74068
 Alpha virt. eigenvalues --    0.74355   0.74799   0.74894   0.75780   0.78229
 Alpha virt. eigenvalues --    0.80178   0.80710   0.81139   0.82789   0.83276
 Alpha virt. eigenvalues --    0.84493   0.85125   0.85915   0.86341   0.87103
 Alpha virt. eigenvalues --    0.87736   0.88818   0.89763   0.91313   0.91349
 Alpha virt. eigenvalues --    0.92784   0.92977   0.95083   0.95088   0.97226
 Alpha virt. eigenvalues --    0.97352   0.99868   1.00760   1.01747   1.05194
 Alpha virt. eigenvalues --    1.06791   1.07519   1.07552   1.08359   1.09213
 Alpha virt. eigenvalues --    1.10021   1.11201   1.13454   1.13521   1.14429
 Alpha virt. eigenvalues --    1.15736   1.15981   1.17014   1.17526   1.19707
 Alpha virt. eigenvalues --    1.19753   1.23785   1.24312   1.28916   1.30318
 Alpha virt. eigenvalues --    1.31629   1.32833   1.40233   1.41764   1.42976
 Alpha virt. eigenvalues --    1.44764   1.45254   1.45749   1.46642   1.49822
 Alpha virt. eigenvalues --    1.50332   1.52298   1.52352   1.55634   1.57502
 Alpha virt. eigenvalues --    1.58174   1.61237   1.63121   1.63182   1.65262
 Alpha virt. eigenvalues --    1.66588   1.69210   1.69452   1.71098   1.72226
 Alpha virt. eigenvalues --    1.72984   1.73153   1.75382   1.75654   1.78211
 Alpha virt. eigenvalues --    1.78752   1.78809   1.81291   1.82025   1.82867
 Alpha virt. eigenvalues --    1.86043   1.86578   1.87216   1.87256   1.88857
 Alpha virt. eigenvalues --    1.91078   1.91567   1.93648   1.94580   1.96518
 Alpha virt. eigenvalues --    1.97883   2.01554   2.03275   2.04191   2.06052
 Alpha virt. eigenvalues --    2.07581   2.10450   2.10947   2.12659   2.13024
 Alpha virt. eigenvalues --    2.13711   2.15378   2.16614   2.17747   2.18880
 Alpha virt. eigenvalues --    2.21605   2.22754   2.23310   2.23557   2.26187
 Alpha virt. eigenvalues --    2.27803   2.28676   2.30216   2.32352   2.39517
 Alpha virt. eigenvalues --    2.45820   2.46510   2.52048   2.52910   2.53594
 Alpha virt. eigenvalues --    2.55390   2.57464   2.57894   2.60170   2.60999
 Alpha virt. eigenvalues --    2.61564   2.64305   2.65183   2.65816   2.69806
 Alpha virt. eigenvalues --    2.73226   2.76669   2.77828   2.82025   2.82666
 Alpha virt. eigenvalues --    2.82741   2.84544   2.86859   2.88050   2.89839
 Alpha virt. eigenvalues --    2.90267   2.95892   2.95913   3.01932   3.02186
 Alpha virt. eigenvalues --    3.08521   3.10512   3.11599   3.11783   3.15529
 Alpha virt. eigenvalues --    3.15785   3.19167   3.19313   3.25671   3.26625
 Alpha virt. eigenvalues --    3.29286   3.35065   3.35208   3.40927   3.42558
 Alpha virt. eigenvalues --    3.42939   3.43472   3.44821   3.50021   3.57465
 Alpha virt. eigenvalues --    3.58424   3.63494   3.66772   3.86659   3.87668
 Alpha virt. eigenvalues --    3.87791   3.93188   3.96422   4.12606   4.17034
 Alpha virt. eigenvalues --    4.21077   4.21623   4.26515   4.33268   4.41153
 Alpha virt. eigenvalues --    4.56288   5.14381   5.16891   5.54944   5.58259
 Alpha virt. eigenvalues --    5.89260   5.92581   8.15515   8.15702  17.45641
 Alpha virt. eigenvalues --   17.46136  17.61800  17.65343  17.65573  17.68260
 Alpha virt. eigenvalues --   23.67731  23.86240  23.95946  23.96629  24.05075
 Alpha virt. eigenvalues --   24.05463  24.19897  24.27469  24.29797  24.29854
 Alpha virt. eigenvalues --   50.10682  50.13240 189.41522 189.41647
          Condensed to atoms (all electrons):
               1          2          3          4          5          6
     1  C   23.976708 -16.496561   0.096643  -0.761158  -2.917092  -0.053796
     2  C  -16.496561  26.655456  -2.899107   0.554636   2.213435  -0.029891
     3  C    0.096643  -2.899107   9.915347  -0.177918  -0.299325   0.443394
     4  C   -0.761158   0.554636  -0.177918   5.940501   0.312243  -0.000161
     5  S   -2.917092   2.213435  -0.299325   0.312243  17.608424   0.010799
     6  H   -0.053796  -0.029891   0.443394  -0.000161   0.010799   0.496013
     7  H    0.011022  -0.039002   0.051512   0.355594  -0.008271  -0.003861
     8  C    5.991044  -3.887612   0.252184  -0.094924  -0.581959  -0.006726
     9  C   -3.123513   0.828400  -0.999510   0.243348  -0.234162  -0.001989
    10  S   -0.547174  -0.196725  -0.042263   0.026729  -0.098196  -0.000367
    11  C    0.135125  -0.966981   0.016368  -0.001855  -0.039923   0.000021
    12  C   -0.039594   0.212906  -0.001008   0.001067   0.025238   0.000040
    13  H   -0.006506  -0.001815   0.000015   0.000043  -0.000397   0.000000
    14  H   -0.001818  -0.006447  -0.000002   0.000032   0.000295   0.000000
    15  O   -0.324108   0.421289  -0.095082   0.002964   0.027126  -0.009397
    16  O   -0.254110   0.149927   0.003093   0.008504  -0.020725   0.000005
    17  C   -0.135721   0.128188  -0.009921   0.006510  -0.007521  -0.000048
    18  H    0.001929   0.000557   0.000274   0.000067   0.002097  -0.000000
    19  H   -0.001135   0.004681  -0.000253   0.000217  -0.000006   0.000000
    20  H   -0.005469  -0.000774  -0.000280  -0.000152  -0.003107   0.000000
    21  C   -0.569087   0.629761  -0.453081  -0.057964   0.091253   0.001710
    22  H    0.026454  -0.054588   0.009611  -0.002668   0.001028  -0.000071
    23  H   -0.005667   0.043911  -0.001773   0.003231  -0.003027   0.000290
    24  H   -0.055717   0.010339   0.041763  -0.002090   0.002164   0.000059
               7          8          9         10         11         12
     1  C    0.011022   5.991044  -3.123513  -0.547174   0.135125  -0.039594
     2  C   -0.039002  -3.887612   0.828400  -0.196725  -0.966981   0.212906
     3  C    0.051512   0.252184  -0.999510  -0.042263   0.016368  -0.001008
     4  C    0.355594  -0.094924   0.243348   0.026729  -0.001855   0.001067
     5  S   -0.008271  -0.581959  -0.234162  -0.098196  -0.039923   0.025238
     6  H   -0.003861  -0.006726  -0.001989  -0.000367   0.000021   0.000040
     7  H    0.454659  -0.000745  -0.006438   0.000291   0.000002   0.000034
     8  C   -0.000745  25.006537 -16.804920  -3.001765   0.078214  -0.701637
     9  C   -0.006438 -16.804920  26.202932   2.225141  -2.778983   0.457077
    10  S    0.000291  -3.001765   2.225141  17.620167  -0.303934   0.308180
    11  C    0.000002   0.078214  -2.778983  -0.303934   9.870942  -0.147390
    12  C    0.000034  -0.701637   0.457077   0.308180  -0.147390   5.926731
    13  H    0.000000  -0.054419  -0.029421   0.010669   0.443135  -0.000049
    14  H   -0.000000   0.009054  -0.036254  -0.007938   0.050064   0.357029
    15  O   -0.000425  -0.259330   0.143919  -0.020465   0.003087   0.008043
    16  O   -0.000040  -0.331760   0.417570   0.026176  -0.095318   0.001757
    17  C   -0.000029  -0.568863   0.605507   0.091530  -0.446579  -0.061986
    18  H    0.000000   0.027583  -0.055134   0.000975   0.010259  -0.002552
    19  H   -0.000000  -0.005902   0.043871  -0.003036  -0.001757   0.003223
    20  H   -0.000000  -0.055212   0.009200   0.002219   0.041431  -0.002490
    21  C    0.000509  -0.162190   0.130191  -0.006573  -0.009513   0.005949
    22  H    0.000020   0.002572   0.000513   0.002140   0.000305   0.000060
    23  H   -0.000001  -0.001262   0.004567  -0.000015  -0.000249   0.000209
    24  H    0.000018  -0.006492  -0.000744  -0.003132  -0.000300  -0.000147
              13         14         15         16         17         18
     1  C   -0.006506  -0.001818  -0.324108  -0.254110  -0.135721   0.001929
     2  C   -0.001815  -0.006447   0.421289   0.149927   0.128188   0.000557
     3  C    0.000015  -0.000002  -0.095082   0.003093  -0.009921   0.000274
     4  C    0.000043   0.000032   0.002964   0.008504   0.006510   0.000067
     5  S   -0.000397   0.000295   0.027126  -0.020725  -0.007521   0.002097
     6  H    0.000000   0.000000  -0.009397   0.000005  -0.000048  -0.000000
     7  H    0.000000  -0.000000  -0.000425  -0.000040  -0.000029   0.000000
     8  C   -0.054419   0.009054  -0.259330  -0.331760  -0.568863   0.027583
     9  C   -0.029421  -0.036254   0.143919   0.417570   0.605507  -0.055134
    10  S    0.010669  -0.007938  -0.020465   0.026176   0.091530   0.000975
    11  C    0.443135   0.050064   0.003087  -0.095318  -0.446579   0.010259
    12  C   -0.000049   0.357029   0.008043   0.001757  -0.061986  -0.002552
    13  H    0.496006  -0.003859   0.000008  -0.009388   0.001699  -0.000078
    14  H   -0.003859   0.454606  -0.000039  -0.000428   0.000542   0.000020
    15  O    0.000008  -0.000039   8.142888   0.019642   0.001233  -0.000271
    16  O   -0.009388  -0.000428   0.019642   8.143623   0.185102  -0.029495
    17  C    0.001699   0.000542   0.001233   0.185102   5.271084   0.414552
    18  H   -0.000078   0.000020  -0.000271  -0.029495   0.414552   0.544533
    19  H    0.000292  -0.000001   0.000036  -0.076276   0.402470  -0.022334
    20  H    0.000056   0.000019   0.000141  -0.043417   0.419846  -0.051170
    21  C   -0.000046  -0.000026   0.183907   0.001219  -0.000624  -0.000308
    22  H   -0.000000   0.000000  -0.029261  -0.000275  -0.000310   0.000001
    23  H    0.000000  -0.000000  -0.076247   0.000037   0.000035   0.000001
    24  H    0.000000  -0.000000  -0.043777   0.000143   0.000126   0.000000
              19         20         21         22         23         24
     1  C   -0.001135  -0.005469  -0.569087   0.026454  -0.005667  -0.055717
     2  C    0.004681  -0.000774   0.629761  -0.054588   0.043911   0.010339
     3  C   -0.000253  -0.000280  -0.453081   0.009611  -0.001773   0.041763
     4  C    0.000217  -0.000152  -0.057964  -0.002668   0.003231  -0.002090
     5  S   -0.000006  -0.003107   0.091253   0.001028  -0.003027   0.002164
     6  H    0.000000   0.000000   0.001710  -0.000071   0.000290   0.000059
     7  H   -0.000000  -0.000000   0.000509   0.000020  -0.000001   0.000018
     8  C   -0.005902  -0.055212  -0.162190   0.002572  -0.001262  -0.006492
     9  C    0.043871   0.009200   0.130191   0.000513   0.004567  -0.000744
    10  S   -0.003036   0.002219  -0.006573   0.002140  -0.000015  -0.003132
    11  C   -0.001757   0.041431  -0.009513   0.000305  -0.000249  -0.000300
    12  C    0.003223  -0.002490   0.005949   0.000060   0.000209  -0.000147
    13  H    0.000292   0.000056  -0.000046  -0.000000   0.000000   0.000000
    14  H   -0.000001   0.000019  -0.000026   0.000000  -0.000000  -0.000000
    15  O    0.000036   0.000141   0.183907  -0.029261  -0.076247  -0.043777
    16  O   -0.076276  -0.043417   0.001219  -0.000275   0.000037   0.000143
    17  C    0.402470   0.419846  -0.000624  -0.000310   0.000035   0.000126
    18  H   -0.022334  -0.051170  -0.000308   0.000001   0.000001   0.000000
    19  H    0.503861  -0.021592   0.000035   0.000001  -0.000000   0.000000
    20  H   -0.021592   0.552116   0.000125   0.000000   0.000000  -0.000000
    21  C    0.000035   0.000125   5.273924   0.415107   0.402435   0.419723
    22  H    0.000001   0.000000   0.415107   0.544354  -0.022379  -0.051147
    23  H   -0.000000   0.000000   0.402435  -0.022379   0.503906  -0.021583
    24  H    0.000000  -0.000000   0.419723  -0.051147  -0.021583   0.552458
 Mulliken charges:
               1
     1  C    1.059302
     2  C   -1.273984
     3  C    0.149318
     4  C   -0.356795
     5  S   -0.080393
     6  H    0.153976
     7  H    0.185152
     8  C    1.158528
     9  C   -1.241167
    10  S   -0.082634
    11  C    0.143828
    12  C   -0.350691
    13  H    0.154057
    14  H    0.185152
    15  O   -0.095880
    16  O   -0.095569
    17  C   -0.296820
    18  H    0.158494
    19  H    0.173605
    20  H    0.158511
    21  C   -0.296439
    22  H    0.158533
    23  H    0.173580
    24  H    0.158335
 Sum of Mulliken charges =  -0.00000
 Mulliken charges with hydrogens summed into heavy atoms:
               1
     1  C    1.059302
     2  C   -1.273984
     3  C    0.303294
     4  C   -0.171643
     5  S   -0.080393
     8  C    1.158528
     9  C   -1.241167
    10  S   -0.082634
    11  C    0.297885
    12  C   -0.165539
    15  O   -0.095880
    16  O   -0.095569
    17  C    0.193791
    21  C    0.194008
 Electronic spatial extent (au):  <R**2>=           3388.1904
 Charge=             -0.0000 electrons
 Dipole moment (field-independent basis, Debye):
    X=              0.0017    Y=              2.0898    Z=              0.0875  Tot=              2.0917
 Quadrupole moment (field-independent basis, Debye-Ang):
   XX=            -75.4470   YY=            -92.8391   ZZ=            -93.5776
   XY=             -0.1146   XZ=              2.5446   YZ=              0.0279
 Traceless Quadrupole moment (field-independent basis, Debye-Ang):
   XX=             11.8409   YY=             -5.5512   ZZ=             -6.2897
   XY=             -0.1146   XZ=              2.5446   YZ=              0.0279
 Octapole moment (field-independent basis, Debye-Ang**2):
  XXX=              0.0521  YYY=             31.8145  ZZZ=              1.2667  XYY=             -2.4863
  XXY=             21.1754  XXZ=              1.0030  XZZ=              2.5253  YZZ=              9.7645
  YYZ=              0.5357  XYZ=             26.4999
 Hexadecapole moment (field-independent basis, Debye-Ang**3):
 XXXX=          -2357.2916 YYYY=           -976.3758 ZZZZ=           -966.9966 XXXY=              1.0120
 XXXZ=            -15.1205 YYYX=             -3.4661 YYYZ=             -5.1559 ZZZX=             35.4421
 ZZZY=              4.8855 XXYY=           -562.1146 XXZZ=           -535.9321 YYZZ=           -288.7818
 XXYZ=             -1.1584 YYXZ=             25.1971 ZZXY=              0.6474
 N-N= 1.103544829731D+03 E-N=-5.355115733311D+03  KE= 1.330747449407D+03
 1\1\GINC-CX1-141-15-4\FOpt\RwB97XD\6-311+G(d,p)\C10H10O2S2\NS5018\06-F
 eb-2020\0\\# opt=modredundant wb97xd/6-311+g(d,p) geom=connectivity\\T
 itle Card Required\\0,1\C,-0.5910617221,-0.4245091558,0.0168883313\C,-
 0.8318907589,-1.5222618244,-0.7694664164\C,-2.1145220622,-2.1091543438
 ,-0.5466158231\C,-2.8226799657,-1.438658396,0.4050231195\S,-1.95814907
 62,-0.1031638247,1.0369558732\H,-2.4942289992,-2.9796089751,-1.0621763
 145\H,-3.8138247713,-1.667361501,0.7664374929\C,0.5960773837,0.4207668
 817,0.0151029389\C,0.8339230474,1.5200561941,-0.7700428392\S,1.9622012
 815,0.1047252401,1.038053353\C,2.1146573879,2.1105911659,-0.5459157319
 \C,2.8233062581,1.4428014521,0.4072515523\H,2.492218164,2.9820786444,-
 1.061352205\H,3.8133739601,1.6744635687,0.7697278136\O,0.1017433522,-1
 .9470743576,-1.6493516629\O,-0.1005932766,1.9429850994,-1.6498856199\C
 ,0.211395908,3.0782923305,-2.427181957\H,1.0910655681,2.9021167065,-3.
 0567893342\H,-0.6539377284,3.2567126074,-3.0634205398\H,0.3830306792,3
 .9595080157,-1.7983515666\C,-0.2136498229,-3.0800058366,-2.4287650015\
 H,-1.0921153082,-2.8995914509,-3.0588531898\H,0.6515895663,-3.26049514
 81,-3.0645442095\H,-0.3890659049,-3.9615697325,-1.8014686234\\Version=
 ES64L-G16RevA.03\State=1-A\HF=-1333.8246317\RMSD=4.277e-09\RMSF=4.659e
 -05\Dipole=-0.0028744,0.0026227,-0.8229222\Quadrupole=-0.7287697,4.855
 2167,-4.126447,6.4203842,0.0120519,0.0089431\PG=C01 [X(C10H10O2S2)]\\@


 IF NO USE IS MADE OF THE LABOR OF PAST AGES,
 THE WORLD MUST REMAIN ALWAYS IN THE INFANCY OF KNOWLEDGE.

                          -- CICERO
 Job cpu time:       0 days  3 hours  5 minutes 27.8 seconds.
 Elapsed time:       0 days  0 hours 46 minutes 22.8 seconds.
 File lengths (MBytes):  RWF=     93 Int=      0 D2E=      0 Chk=     12 Scr=      1
 Normal termination of Gaussian 16 at Thu Feb  6 18:38:07 2020.
