 Entering Gaussian System, Link 0=g16
 Input=OBT_-10.gjf
 Output=OBT_-10.log
 Initial command:
 /apps/gaussian/g16-a03/l1.exe "/tmp/pbs.1042530[17].pbs/Gau-22080.inp" -scrdir="/tmp/pbs.1042530[17].pbs/"
 Entering Link 1 = /apps/gaussian/g16-a03/l1.exe PID=     22081.
  
 Copyright (c) 1988,1990,1992,1993,1995,1998,2003,2009,2016,
            Gaussian, Inc.  All Rights Reserved.
  
 This is part of the Gaussian(R) 16 program.  It is based on
 the Gaussian(R) 09 system (copyright 2009, Gaussian, Inc.),
 the Gaussian(R) 03 system (copyright 2003, Gaussian, Inc.),
 the Gaussian(R) 98 system (copyright 1998, Gaussian, Inc.),
 the Gaussian(R) 94 system (copyright 1995, Gaussian, Inc.),
 the Gaussian 92(TM) system (copyright 1992, Gaussian, Inc.),
 the Gaussian 90(TM) system (copyright 1990, Gaussian, Inc.),
 the Gaussian 88(TM) system (copyright 1988, Gaussian, Inc.),
 the Gaussian 86(TM) system (copyright 1986, Carnegie Mellon
 University), and the Gaussian 82(TM) system (copyright 1983,
 Carnegie Mellon University). Gaussian is a federally registered
 trademark of Gaussian, Inc.
  
 This software contains proprietary and confidential information,
 including trade secrets, belonging to Gaussian, Inc.
  
 This software is provided under written license and may be
 used, copied, transmitted, or stored only in accord with that
 written license.
  
 The following legend is applicable only to US Government
 contracts under FAR:
  
                    RESTRICTED RIGHTS LEGEND
  
 Use, reproduction and disclosure by the US Government is
 subject to restrictions as set forth in subparagraphs (a)
 and (c) of the Commercial Computer Software - Restricted
 Rights clause in FAR 52.227-19.
  
 Gaussian, Inc.
 340 Quinnipiac St., Bldg. 40, Wallingford CT 06492
  
  
 ---------------------------------------------------------------
 Warning -- This program may not be used in any manner that
 competes with the business of Gaussian, Inc. or will provide
 assistance to any competitor of Gaussian, Inc.  The licensee
 of this program is prohibited from giving any competitor of
 Gaussian, Inc. access to this program.  By using this program,
 the user acknowledges that Gaussian, Inc. is engaged in the
 business of creating and licensing software in the field of
 computational chemistry and represents and warrants to the
 licensee that it is not a competitor of Gaussian, Inc. and that
 it will not use this program in any manner prohibited above.
 ---------------------------------------------------------------
  

 Cite this work as:
 Gaussian 16, Revision A.03,
 M. J. Frisch, G. W. Trucks, H. B. Schlegel, G. E. Scuseria, 
 M. A. Robb, J. R. Cheeseman, G. Scalmani, V. Barone, 
 G. A. Petersson, H. Nakatsuji, X. Li, M. Caricato, A. V. Marenich, 
 J. Bloino, B. G. Janesko, R. Gomperts, B. Mennucci, H. P. Hratchian, 
 J. V. Ortiz, A. F. Izmaylov, J. L. Sonnenberg, D. Williams-Young, 
 F. Ding, F. Lipparini, F. Egidi, J. Goings, B. Peng, A. Petrone, 
 T. Henderson, D. Ranasinghe, V. G. Zakrzewski, J. Gao, N. Rega, 
 G. Zheng, W. Liang, M. Hada, M. Ehara, K. Toyota, R. Fukuda, 
 J. Hasegawa, M. Ishida, T. Nakajima, Y. Honda, O. Kitao, H. Nakai, 
 T. Vreven, K. Throssell, J. A. Montgomery, Jr., J. E. Peralta, 
 F. Ogliaro, M. J. Bearpark, J. J. Heyd, E. N. Brothers, K. N. Kudin, 
 V. N. Staroverov, T. A. Keith, R. Kobayashi, J. Normand, 
 K. Raghavachari, A. P. Rendell, J. C. Burant, S. S. Iyengar, 
 J. Tomasi, M. Cossi, J. M. Millam, M. Klene, C. Adamo, R. Cammi, 
 J. W. Ochterski, R. L. Martin, K. Morokuma, O. Farkas, 
 J. B. Foresman, and D. J. Fox, Gaussian, Inc., Wallingford CT, 2016.
 
 ******************************************
 Gaussian 16:  ES64L-G16RevA.03 25-Dec-2016
                 6-Feb-2020 
 ******************************************
 %mem=10GB
 %nprocshared=4
 Will use up to    4 processors via shared memory.
 %chk=gT2_innerdihscan.chk
 --------------------------------------------------------
 # opt=modredundant wb97xd/6-311+g(d,p) geom=connectivity
 --------------------------------------------------------
 1/18=120,19=15,26=3,38=1,57=2/1,3;
 2/9=110,12=2,17=6,18=5,40=1/2;
 3/5=4,6=6,7=111,11=2,25=1,30=1,71=1,74=-58/1,2,3;
 4//1;
 5/5=2,38=5/2;
 6/7=2,8=2,9=2,10=2,28=1/1;
 7//1,2,3,16;
 1/18=20,19=15,26=3/3(2);
 2/9=110/2;
 99//99;
 2/9=110/2;
 3/5=4,6=6,7=111,11=2,25=1,30=1,71=1,74=-58/1,2,3;
 4/5=5,16=3,69=1/1;
 5/5=2,38=5/2;
 7//1,2,3,16;
 1/18=20,19=15,26=3/3(-5);
 2/9=110/2;
 6/7=2,8=2,9=2,10=2,19=2,28=1/1;
 99/9=1/99;
 -------------------
 Title Card Required
 -------------------
 Symbolic Z-matrix:
 Charge =  0 Multiplicity = 1
 C                    -0.59366  -0.41063  -0.00009 
 C                    -0.67511  -1.79202  -0.09549 
 C                    -2.00311  -2.3038   -0.06623 
 C                    -2.93349  -1.31      0.05166 
 S                    -2.21528   0.25762   0.12886 
 H                    -2.25737  -3.35199  -0.12906 
 H                    -4.00686  -1.41053   0.09788 
 C                     0.59366   0.41063  -0.00009 
 C                     0.6751    1.79203  -0.09532 
 S                     2.21529  -0.25764   0.12862 
 C                     2.0031    2.30381  -0.06612 
 C                     2.93349   1.30999   0.05156 
 H                     2.25736   3.35201  -0.12884 
 H                     4.00687   1.41052   0.09769 
 O                     0.46929  -2.52531  -0.20524 
 O                    -0.46931   2.52534  -0.20488 
 C                    -0.34952   3.93856  -0.30092 
 H                     0.21674   4.22915  -1.1921 
 H                    -1.36583   4.32081  -0.37901 
 H                     0.12814   4.35785   0.59089 
 C                     0.34949  -3.93852  -0.3015 
 H                    -0.21685  -4.22897  -1.19266 
 H                     1.3658   -4.32075  -0.37973 
 H                    -0.12809  -4.35794   0.59029 
 
 The following ModRedundant input section has been read:
 D       5       1       8       9 F                                           
 

 GradGradGradGradGradGradGradGradGradGradGradGradGradGradGradGradGradGrad
 Berny optimization.
 Initialization pass.
                           ----------------------------
                           !    Initial Parameters    !
                           ! (Angstroms and Degrees)  !
 --------------------------                            --------------------------
 ! Name  Definition              Value          Derivative Info.                !
 --------------------------------------------------------------------------------
 ! R1    R(1,2)                  1.3871         estimate D2E/DX2                !
 ! R2    R(1,5)                  1.7586         estimate D2E/DX2                !
 ! R3    R(1,8)                  1.4437         estimate D2E/DX2                !
 ! R4    R(2,3)                  1.4235         estimate D2E/DX2                !
 ! R5    R(2,15)                 1.3636         estimate D2E/DX2                !
 ! R6    R(3,4)                  1.3664         estimate D2E/DX2                !
 ! R7    R(3,6)                  1.0804         estimate D2E/DX2                !
 ! R8    R(4,5)                  1.726          estimate D2E/DX2                !
 ! R9    R(4,7)                  1.0791         estimate D2E/DX2                !
 ! R10   R(8,9)                  1.3871         estimate D2E/DX2                !
 ! R11   R(8,10)                 1.7586         estimate D2E/DX2                !
 ! R12   R(9,11)                 1.4235         estimate D2E/DX2                !
 ! R13   R(9,16)                 1.3636         estimate D2E/DX2                !
 ! R14   R(10,12)                1.726          estimate D2E/DX2                !
 ! R15   R(11,12)                1.3664         estimate D2E/DX2                !
 ! R16   R(11,13)                1.0804         estimate D2E/DX2                !
 ! R17   R(12,14)                1.0791         estimate D2E/DX2                !
 ! R18   R(15,21)                1.4215         estimate D2E/DX2                !
 ! R19   R(16,17)                1.4215         estimate D2E/DX2                !
 ! R20   R(17,18)                1.0951         estimate D2E/DX2                !
 ! R21   R(17,19)                1.0886         estimate D2E/DX2                !
 ! R22   R(17,20)                1.0951         estimate D2E/DX2                !
 ! R23   R(21,22)                1.0951         estimate D2E/DX2                !
 ! R24   R(21,23)                1.0886         estimate D2E/DX2                !
 ! R25   R(21,24)                1.0951         estimate D2E/DX2                !
 ! A1    A(2,1,5)              109.228          estimate D2E/DX2                !
 ! A2    A(2,1,8)              127.9393         estimate D2E/DX2                !
 ! A3    A(5,1,8)              122.8328         estimate D2E/DX2                !
 ! A4    A(1,2,3)              114.2937         estimate D2E/DX2                !
 ! A5    A(1,2,15)             119.46           estimate D2E/DX2                !
 ! A6    A(3,2,15)             126.2463         estimate D2E/DX2                !
 ! A7    A(2,3,4)              112.0548         estimate D2E/DX2                !
 ! A8    A(2,3,6)              124.5521         estimate D2E/DX2                !
 ! A9    A(4,3,6)              123.3931         estimate D2E/DX2                !
 ! A10   A(3,4,5)              112.4009         estimate D2E/DX2                !
 ! A11   A(3,4,7)              127.8234         estimate D2E/DX2                !
 ! A12   A(5,4,7)              119.7757         estimate D2E/DX2                !
 ! A13   A(1,5,4)               92.0227         estimate D2E/DX2                !
 ! A14   A(1,8,9)              127.9393         estimate D2E/DX2                !
 ! A15   A(1,8,10)             122.8328         estimate D2E/DX2                !
 ! A16   A(9,8,10)             109.228          estimate D2E/DX2                !
 ! A17   A(8,9,11)             114.2937         estimate D2E/DX2                !
 ! A18   A(8,9,16)             119.46           estimate D2E/DX2                !
 ! A19   A(11,9,16)            126.2463         estimate D2E/DX2                !
 ! A20   A(8,10,12)             92.0227         estimate D2E/DX2                !
 ! A21   A(9,11,12)            112.0548         estimate D2E/DX2                !
 ! A22   A(9,11,13)            124.5521         estimate D2E/DX2                !
 ! A23   A(12,11,13)           123.3931         estimate D2E/DX2                !
 ! A24   A(10,12,11)           112.4009         estimate D2E/DX2                !
 ! A25   A(10,12,14)           119.7757         estimate D2E/DX2                !
 ! A26   A(11,12,14)           127.8234         estimate D2E/DX2                !
 ! A27   A(2,15,21)            117.9908         estimate D2E/DX2                !
 ! A28   A(9,16,17)            117.9908         estimate D2E/DX2                !
 ! A29   A(16,17,18)           111.2449         estimate D2E/DX2                !
 ! A30   A(16,17,19)           105.9768         estimate D2E/DX2                !
 ! A31   A(16,17,20)           111.2452         estimate D2E/DX2                !
 ! A32   A(18,17,19)           109.3408         estimate D2E/DX2                !
 ! A33   A(18,17,20)           109.6069         estimate D2E/DX2                !
 ! A34   A(19,17,20)           109.3403         estimate D2E/DX2                !
 ! A35   A(15,21,22)           111.2449         estimate D2E/DX2                !
 ! A36   A(15,21,23)           105.9768         estimate D2E/DX2                !
 ! A37   A(15,21,24)           111.2452         estimate D2E/DX2                !
 ! A38   A(22,21,23)           109.3409         estimate D2E/DX2                !
 ! A39   A(22,21,24)           109.6069         estimate D2E/DX2                !
 ! A40   A(23,21,24)           109.3402         estimate D2E/DX2                !
 ! D1    D(5,1,2,3)              0.0042         estimate D2E/DX2                !
 ! D2    D(5,1,2,15)          -179.9959         estimate D2E/DX2                !
 ! D3    D(8,1,2,3)           -179.9984         estimate D2E/DX2                !
 ! D4    D(8,1,2,15)             0.0015         estimate D2E/DX2                !
 ! D5    D(2,1,5,4)             -0.0042         estimate D2E/DX2                !
 ! D6    D(8,1,5,4)            179.9983         estimate D2E/DX2                !
 ! D7    D(2,1,8,9)            170.0029         estimate D2E/DX2                !
 ! D8    D(2,1,8,10)            -9.9998         estimate D2E/DX2                !
 ! D9    D(5,1,8,9)            -10.0            Frozen                          !
 ! D10   D(5,1,8,10)           169.9972         estimate D2E/DX2                !
 ! D11   D(1,2,3,4)             -0.0018         estimate D2E/DX2                !
 ! D12   D(1,2,3,6)            179.9988         estimate D2E/DX2                !
 ! D13   D(15,2,3,4)           179.9983         estimate D2E/DX2                !
 ! D14   D(15,2,3,6)            -0.0011         estimate D2E/DX2                !
 ! D15   D(1,2,15,21)         -179.9784         estimate D2E/DX2                !
 ! D16   D(3,2,15,21)            0.0215         estimate D2E/DX2                !
 ! D17   D(2,3,4,5)             -0.0015         estimate D2E/DX2                !
 ! D18   D(2,3,4,7)           -179.9988         estimate D2E/DX2                !
 ! D19   D(6,3,4,5)            179.9978         estimate D2E/DX2                !
 ! D20   D(6,3,4,7)              0.0006         estimate D2E/DX2                !
 ! D21   D(3,4,5,1)              0.0033         estimate D2E/DX2                !
 ! D22   D(7,4,5,1)           -179.9992         estimate D2E/DX2                !
 ! D23   D(1,8,9,11)          -179.9983         estimate D2E/DX2                !
 ! D24   D(1,8,9,16)             0.0014         estimate D2E/DX2                !
 ! D25   D(10,8,9,11)            0.0041         estimate D2E/DX2                !
 ! D26   D(10,8,9,16)         -179.9961         estimate D2E/DX2                !
 ! D27   D(1,8,10,12)          179.9982         estimate D2E/DX2                !
 ! D28   D(9,8,10,12)           -0.0042         estimate D2E/DX2                !
 ! D29   D(8,9,11,12)           -0.0018         estimate D2E/DX2                !
 ! D30   D(8,9,11,13)          179.9988         estimate D2E/DX2                !
 ! D31   D(16,9,11,12)         179.9985         estimate D2E/DX2                !
 ! D32   D(16,9,11,13)          -0.001          estimate D2E/DX2                !
 ! D33   D(8,9,16,17)         -179.9802         estimate D2E/DX2                !
 ! D34   D(11,9,16,17)           0.0196         estimate D2E/DX2                !
 ! D35   D(8,10,12,11)           0.0033         estimate D2E/DX2                !
 ! D36   D(8,10,12,14)        -179.9992         estimate D2E/DX2                !
 ! D37   D(9,11,12,10)          -0.0015         estimate D2E/DX2                !
 ! D38   D(9,11,12,14)        -179.9988         estimate D2E/DX2                !
 ! D39   D(13,11,12,10)        179.9979         estimate D2E/DX2                !
 ! D40   D(13,11,12,14)          0.0006         estimate D2E/DX2                !
 ! D41   D(2,15,21,22)          61.2425         estimate D2E/DX2                !
 ! D42   D(2,15,21,23)         179.9882         estimate D2E/DX2                !
 ! D43   D(2,15,21,24)         -61.2668         estimate D2E/DX2                !
 ! D44   D(9,16,17,18)          61.2435         estimate D2E/DX2                !
 ! D45   D(9,16,17,19)         179.9891         estimate D2E/DX2                !
 ! D46   D(9,16,17,20)         -61.2658         estimate D2E/DX2                !
 --------------------------------------------------------------------------------
 Trust Radius=3.00D-01 FncErr=1.00D-07 GrdErr=1.00D-06 EigMax=2.50D+02 EigMin=1.00D-04
 Number of steps in this run=    121 maximum allowed number of steps=    144.
 GradGradGradGradGradGradGradGradGradGradGradGradGradGradGradGradGradGrad

                          Input orientation:                          
 ---------------------------------------------------------------------
 Center     Atomic      Atomic             Coordinates (Angstroms)
 Number     Number       Type             X           Y           Z
 ---------------------------------------------------------------------
      1          6           0       -0.593663   -0.410632   -0.000087
      2          6           0       -0.675106   -1.792020   -0.095486
      3          6           0       -2.003105   -2.303804   -0.066235
      4          6           0       -2.933486   -1.310001    0.051661
      5         16           0       -2.215277    0.257620    0.128856
      6          1           0       -2.257368   -3.351990   -0.129062
      7          1           0       -4.006857   -1.410529    0.097875
      8          6           0        0.593663    0.410632   -0.000087
      9          6           0        0.675097    1.792032   -0.095317
     10         16           0        2.215289   -0.257637    0.128623
     11          6           0        2.003099    2.303812   -0.066119
     12          6           0        2.933491    1.309994    0.051564
     13          1           0        2.257357    3.352006   -0.128836
     14          1           0        4.006866    1.410516    0.097694
     15          8           0        0.469294   -2.525311   -0.205240
     16          8           0       -0.469313    2.525337   -0.204876
     17          6           0       -0.349521    3.938562   -0.300924
     18          1           0        0.216739    4.229154   -1.192097
     19          1           0       -1.365831    4.320806   -0.379010
     20          1           0        0.128138    4.357846    0.590887
     21          6           0        0.349493   -3.938521   -0.301496
     22          1           0       -0.216847   -4.228973   -1.192663
     23          1           0        1.365796   -4.320755   -0.379730
     24          1           0       -0.128088   -4.357943    0.590292
 ---------------------------------------------------------------------
                    Distance matrix (angstroms):
                    1          2          3          4          5
     1  C    0.000000
     2  C    1.387071   0.000000
     3  C    2.361144   1.423503   0.000000
     4  C    2.507253   2.313931   1.366438   0.000000
     5  S    1.758641   2.573613   2.577590   1.726042   0.000000
     6  H    3.381735   2.222203   1.080412   2.158591   3.619058
     7  H    3.557989   3.359090   2.199975   1.079058   2.448151
     8  C    1.443682   2.543728   3.757092   3.924798   2.816058
     9  C    2.543728   3.829945   4.893821   4.760892   3.280082
    10  S    2.816058   3.280081   4.692506   5.255785   4.460426
    11  C    3.757092   4.893821   6.105719   6.119101   4.692506
    12  C    3.924798   4.760891   6.119101   6.425403   5.255785
    13  H    4.722535   5.921271   7.081217   6.979380   5.444821
    14  H    4.948839   5.675774   7.067022   7.454651   6.328128
    15  O    2.375676   1.363603   2.486192   3.622415   3.881141
    16  O    2.945729   4.323643   5.068762   4.565938   2.881373
    17  C    4.366417   5.743499   6.461931   5.860769   4.149107
    18  H    4.858523   6.184858   6.991052   6.492541   4.840733
    19  H    4.808985   6.158257   6.662538   5.860803   4.181981
    20  H    4.858871   6.239965   7.025068   6.464425   4.745199
    21  C    3.664204   2.387406   2.874433   4.220401   4.936684
    22  H    4.017954   2.711556   2.857593   4.177185   5.086222
    23  H    4.390064   3.261989   3.939018   5.266361   5.834746
    24  H    4.018280   2.711730   2.857658   4.177360   5.086522
                    6          7          8          9         10
     6  H    0.000000
     7  H    2.623258   0.000000
     8  C    4.722535   4.948839   0.000000
     9  C    5.921271   5.675774   1.387071   0.000000
    10  S    5.444821   6.328128   1.758641   2.573613   0.000000
    11  C    7.081217   7.067022   2.361144   1.423503   2.577590
    12  C    6.979379   7.454651   2.507253   2.313931   1.726042
    13  H    8.082468   7.872326   3.381735   2.222203   3.619058
    14  H    7.872325   8.495766   3.557989   3.359090   2.448151
    15  O    2.850243   4.622829   2.945729   4.323643   2.881372
    16  O    6.143766   5.300653   2.375676   1.363603   3.881141
    17  C    7.538008   6.492143   3.664204   2.387406   4.936684
    18  H    8.045184   7.163017   4.017968   2.711564   5.086236
    19  H    7.728461   6.328558   4.390064   3.261989   5.834746
    20  H    8.102501   7.114449   4.018266   2.711723   5.086509
    21  C    2.677587   5.052526   4.366417   5.743498   4.149108
    22  H    2.462534   4.896253   4.858508   6.184839   4.840722
    23  H    3.758810   6.128859   4.808985   6.158256   4.181983
    24  H    2.462366   4.896384   4.858887   6.239981   4.745214
                   11         12         13         14         15
    11  C    0.000000
    12  C    1.366438   0.000000
    13  H    1.080412   2.158591   0.000000
    14  H    2.199975   1.079058   2.623258   0.000000
    15  O    5.068762   4.565937   6.143766   5.300653   0.000000
    16  O    2.486192   3.622415   2.850244   4.622829   5.137123
    17  C    2.874433   4.220401   2.677587   5.052526   6.516232
    18  H    2.857595   4.177191   2.462526   4.896258   6.830847
    19  H    3.939018   5.266361   3.758810   6.128859   7.089937
    20  H    2.857655   4.177353   2.462375   4.896379   6.937439
    21  C    6.461930   5.860769   7.538006   6.492144   1.421541
    22  H    6.991033   6.492525   8.045163   7.163002   2.085247
    23  H    6.662536   5.860803   7.728459   6.328558   2.014393
    24  H    7.025085   6.464442   8.102518   7.114465   2.085252
                   16         17         18         19         20
    16  O    0.000000
    17  C    1.421541   0.000000
    18  H    2.085248   1.095118   0.000000
    19  H    2.014393   1.088621   1.781583   0.000000
    20  H    2.085251   1.095118   1.789816   1.781577   0.000000
    21  C    6.516229   7.908038   8.217159   8.435925   8.347158
    22  H    6.830825   8.217142   8.469233   8.664925   8.776874
    23  H    7.089935   8.435925   8.664941   9.063022   8.819977
    24  H    6.937455   8.347173   8.776904   8.819991   8.719554
                   21         22         23         24
    21  C    0.000000
    22  H    1.095117   0.000000
    23  H    1.088621   1.781584   0.000000
    24  H    1.095118   1.789816   1.781576   0.000000
 Stoichiometry    C10H10O2S2
 Framework group  C1[X(C10H10O2S2)]
 Deg. of freedom    66
 Full point group                 C1      NOp   1
 Largest Abelian subgroup         C1      NOp   1
 Largest concise Abelian subgroup C1      NOp   1
                         Standard orientation:                         
 ---------------------------------------------------------------------
 Center     Atomic      Atomic             Coordinates (Angstroms)
 Number     Number       Type             X           Y           Z
 ---------------------------------------------------------------------
      1          6           0       -0.596370   -0.406691   -0.051786
      2          6           0       -1.914925    0.013162    0.043613
      3          6           0       -2.869303   -1.042617    0.014361
      4          6           0       -2.275708   -2.267728   -0.103535
      5         16           0       -0.554755   -2.160105   -0.180730
      6          1           0       -3.938900   -0.903673    0.077189
      7          1           0       -2.754837   -3.233474   -0.149749
      8          6           0        0.596365    0.406698   -0.051786
      9          6           0        1.914929   -0.013167    0.043443
     10         16           0        0.554739    2.160129   -0.180496
     11          6           0        2.869304    1.042615    0.014246
     12          6           0        2.275699    2.267742   -0.103438
     13          1           0        3.938906    0.903664    0.076963
     14          1           0        2.754823    3.233494   -0.149567
     15          8           0       -2.188546    1.344515    0.153367
     16          8           0        2.188559   -1.344534    0.153003
     17          6           0        3.550596   -1.740022    0.249050
     18          1           0        4.025086   -1.315814    1.140223
     19          1           0        3.542546   -2.825809    0.327137
     20          1           0        4.113397   -1.444706   -0.642760
     21          6           0       -3.550572    1.739988    0.249622
     22          1           0       -4.024961    1.315656    1.140790
     23          1           0       -3.542515    2.825764    0.327857
     24          1           0       -4.113474    1.444795   -0.642166
 ---------------------------------------------------------------------
 Rotational constants (GHZ):           0.7939587           0.4851591           0.3041938
 Standard basis: 6-311+G(d,p) (5D, 7F)
 There are   398 symmetry adapted cartesian basis functions of A   symmetry.
 There are   384 symmetry adapted basis functions of A   symmetry.
   384 basis functions,   612 primitive gaussians,   398 cartesian basis functions
    59 alpha electrons       59 beta electrons
       nuclear repulsion energy      1105.4294248787 Hartrees.
 NAtoms=   24 NActive=   24 NUniq=   24 SFac= 1.00D+00 NAtFMM=   60 NAOKFM=F Big=F
 Integral buffers will be    131072 words long.
 Raffenetti 2 integral format.
 Two-electron integral symmetry is turned on.
 Nuclear repulsion after empirical dispersion term =     1105.4161583774 Hartrees.
 One-electron integrals computed using PRISM.
 NBasis=   384 RedAO= T EigKep=  1.10D-06  NBF=   384
 NBsUse=   382 1.00D-06 EigRej=  6.72D-07 NBFU=   382
 ExpMin= 4.05D-02 ExpMax= 9.34D+04 ExpMxC= 3.17D+03 IAcc=3 IRadAn=         5 AccDes= 0.00D+00
 Harris functional with IExCor= 4639 and IRadAn=       5 diagonalized for initial guess.
 HarFok:  IExCor= 4639 AccDes= 0.00D+00 IRadAn=         5 IDoV= 1 UseB2=F ITyADJ=14
 ICtDFT=  3500011 ScaDFX=  1.000000  1.000000  1.000000  1.000000
 FoFCou: FMM=F IPFlag=           0 FMFlag=      100000 FMFlg1=           0
         NFxFlg=           0 DoJE=T BraDBF=F KetDBF=T FulRan=T
         wScrn=  0.000000 ICntrl=       500 IOpCl=  0 I1Cent=   200000004 NGrid=           0
         NMat0=    1 NMatS0=      1 NMatT0=    0 NMatD0=    1 NMtDS0=    0 NMtDT0=    0
 Petite list used in FoFCou.
 Requested convergence on RMS density matrix=1.00D-08 within 128 cycles.
 Requested convergence on MAX density matrix=1.00D-06.
 Requested convergence on             energy=1.00D-06.
 No special actions if energy rises.
 SCF Done:  E(RwB97XD) =  -1333.82587803     A.U. after   16 cycles
            NFock= 16  Conv=0.56D-08     -V/T= 2.0025

 **********************************************************************

            Population analysis using the SCF density.

 **********************************************************************

 Orbital symmetries:
       Occupied  (A) (A) (A) (A) (A) (A) (A) (A) (A) (A) (A) (A)
                 (A) (A) (A) (A) (A) (A) (A) (A) (A) (A) (A) (A)
                 (A) (A) (A) (A) (A) (A) (A) (A) (A) (A) (A) (A)
                 (A) (A) (A) (A) (A) (A) (A) (A) (A) (A) (A) (A)
                 (A) (A) (A) (A) (A) (A) (A) (A) (A) (A) (A)
       Virtual   (A) (A) (A) (A) (A) (A) (A) (A) (A) (A) (A) (A)
                 (A) (A) (A) (A) (A) (A) (A) (A) (A) (A) (A) (A)
                 (A) (A) (A) (A) (A) (A) (A) (A) (A) (A) (A) (A)
                 (A) (A) (A) (A) (A) (A) (A) (A) (A) (A) (A) (A)
                 (A) (A) (A) (A) (A) (A) (A) (A) (A) (A) (A) (A)
                 (A) (A) (A) (A) (A) (A) (A) (A) (A) (A) (A) (A)
                 (A) (A) (A) (A) (A) (A) (A) (A) (A) (A) (A) (A)
                 (A) (A) (A) (A) (A) (A) (A) (A) (A) (A) (A) (A)
                 (A) (A) (A) (A) (A) (A) (A) (A) (A) (A) (A) (A)
                 (A) (A) (A) (A) (A) (A) (A) (A) (A) (A) (A) (A)
                 (A) (A) (A) (A) (A) (A) (A) (A) (A) (A) (A) (A)
                 (A) (A) (A) (A) (A) (A) (A) (A) (A) (A) (A) (A)
                 (A) (A) (A) (A) (A) (A) (A) (A) (A) (A) (A) (A)
                 (A) (A) (A) (A) (A) (A) (A) (A) (A) (A) (A) (A)
                 (A) (A) (A) (A) (A) (A) (A) (A) (A) (A) (A) (A)
                 (A) (A) (A) (A) (A) (A) (A) (A) (A) (A) (A) (A)
                 (A) (A) (A) (A) (A) (A) (A) (A) (A) (A) (A) (A)
                 (A) (A) (A) (A) (A) (A) (A) (A) (A) (A) (A) (A)
                 (A) (A) (A) (A) (A) (A) (A) (A) (A) (A) (A) (A)
                 (A) (A) (A) (A) (A) (A) (A) (A) (A) (A) (A) (A)
                 (A) (A) (A) (A) (A) (A) (A) (A) (A) (A) (A) (A)
                 (A) (A) (A) (A) (A) (A) (A) (A) (A) (A) (A) (A)
                 (A) (A) (A) (A) (A) (A) (A) (A) (A) (A) (A) (A)
                 (A) (A) (A) (A) (A) (A) (A) (A) (A) (A) (A) (A)
                 (A) (A) (A) (A) (A) (A) (A) (A) (A) (A) (A) (A)
                 (A) (A) (A) (A) (A) (A) (A) (A) (A) (A) (A) (A)
                 (A) (A) (A) (A) (A) (A) (A) (A) (A) (A) (A)
 The electronic state is 1-A.
 Alpha  occ. eigenvalues --  -89.03901 -89.03901 -19.28136 -19.28135 -10.34640
 Alpha  occ. eigenvalues --  -10.34640 -10.34013 -10.34013 -10.31815 -10.31777
 Alpha  occ. eigenvalues --  -10.31132 -10.31132 -10.29060 -10.29060  -8.07871
 Alpha  occ. eigenvalues --   -8.07870  -6.02718  -6.02718  -6.02327  -6.02327
 Alpha  occ. eigenvalues --   -6.01958  -6.01958  -1.17315  -1.17237  -0.98836
 Alpha  occ. eigenvalues --   -0.97040  -0.87009  -0.85099  -0.83691  -0.81373
 Alpha  occ. eigenvalues --   -0.78914  -0.76809  -0.68906  -0.67373  -0.64100
 Alpha  occ. eigenvalues --   -0.63951  -0.62548  -0.57005  -0.56405  -0.56113
 Alpha  occ. eigenvalues --   -0.55748  -0.54161  -0.52744  -0.52444  -0.49562
 Alpha  occ. eigenvalues --   -0.49246  -0.48794  -0.46496  -0.45338  -0.44307
 Alpha  occ. eigenvalues --   -0.43188  -0.41547  -0.40784  -0.40567  -0.40482
 Alpha  occ. eigenvalues --   -0.35219  -0.31125  -0.30860  -0.25127
 Alpha virt. eigenvalues --    0.02419   0.05925   0.06357   0.06866   0.07638
 Alpha virt. eigenvalues --    0.07682   0.08089   0.08531   0.09240   0.09439
 Alpha virt. eigenvalues --    0.09801   0.10620   0.11448   0.11525   0.11864
 Alpha virt. eigenvalues --    0.12293   0.12398   0.12811   0.13739   0.13757
 Alpha virt. eigenvalues --    0.13988   0.15092   0.15462   0.15732   0.16276
 Alpha virt. eigenvalues --    0.17070   0.17945   0.18122   0.18310   0.18772
 Alpha virt. eigenvalues --    0.19504   0.19947   0.20380   0.20397   0.21393
 Alpha virt. eigenvalues --    0.21507   0.21917   0.22504   0.22656   0.23827
 Alpha virt. eigenvalues --    0.23991   0.24487   0.24828   0.25184   0.25460
 Alpha virt. eigenvalues --    0.25902   0.25955   0.26576   0.27210   0.27297
 Alpha virt. eigenvalues --    0.27528   0.27677   0.28217   0.28441   0.29524
 Alpha virt. eigenvalues --    0.29745   0.30252   0.30772   0.31961   0.32121
 Alpha virt. eigenvalues --    0.32653   0.32777   0.33458   0.34107   0.34758
 Alpha virt. eigenvalues --    0.34896   0.35263   0.37027   0.37366   0.38117
 Alpha virt. eigenvalues --    0.38337   0.39314   0.41616   0.42357   0.42736
 Alpha virt. eigenvalues --    0.42943   0.43566   0.44218   0.44362   0.45669
 Alpha virt. eigenvalues --    0.46771   0.49552   0.50220   0.50877   0.51570
 Alpha virt. eigenvalues --    0.52710   0.53406   0.54433   0.54780   0.57287
 Alpha virt. eigenvalues --    0.57311   0.58327   0.59041   0.61081   0.61110
 Alpha virt. eigenvalues --    0.64023   0.64215   0.64623   0.64712   0.66400
 Alpha virt. eigenvalues --    0.66732   0.67151   0.69335   0.70352   0.70456
 Alpha virt. eigenvalues --    0.71097   0.71832   0.73520   0.73601   0.74405
 Alpha virt. eigenvalues --    0.75011   0.75754   0.76782   0.79253   0.80133
 Alpha virt. eigenvalues --    0.80540   0.81673   0.82631   0.82906   0.84331
 Alpha virt. eigenvalues --    0.84904   0.85348   0.86392   0.86716   0.87217
 Alpha virt. eigenvalues --    0.87541   0.90048   0.90908   0.91387   0.92360
 Alpha virt. eigenvalues --    0.94163   0.94741   0.94984   0.98783   0.99753
 Alpha virt. eigenvalues --    1.00226   1.00281   1.03999   1.04999   1.05718
 Alpha virt. eigenvalues --    1.08132   1.08656   1.09064   1.10135   1.10458
 Alpha virt. eigenvalues --    1.10642   1.13409   1.13619   1.14088   1.16018
 Alpha virt. eigenvalues --    1.16139   1.16447   1.17061   1.17195   1.19215
 Alpha virt. eigenvalues --    1.20751   1.25267   1.27159   1.30354   1.32062
 Alpha virt. eigenvalues --    1.33692   1.35586   1.39845   1.41341   1.42548
 Alpha virt. eigenvalues --    1.45081   1.45582   1.49088   1.49150   1.51898
 Alpha virt. eigenvalues --    1.51902   1.52809   1.54361   1.54816   1.57047
 Alpha virt. eigenvalues --    1.62397   1.63174   1.63403   1.64201   1.64638
 Alpha virt. eigenvalues --    1.69611   1.69933   1.70844   1.71348   1.72808
 Alpha virt. eigenvalues --    1.73363   1.74016   1.76040   1.78017   1.78783
 Alpha virt. eigenvalues --    1.79165   1.79209   1.81768   1.85214   1.85779
 Alpha virt. eigenvalues --    1.86602   1.87277   1.88006   1.89082   1.90385
 Alpha virt. eigenvalues --    1.90518   1.93738   1.95433   1.95661   1.97487
 Alpha virt. eigenvalues --    1.99926   2.03727   2.04204   2.08205   2.10134
 Alpha virt. eigenvalues --    2.10543   2.11603   2.13043   2.14355   2.15493
 Alpha virt. eigenvalues --    2.15871   2.17150   2.18087   2.19841   2.20766
 Alpha virt. eigenvalues --    2.22011   2.22530   2.23124   2.24952   2.25589
 Alpha virt. eigenvalues --    2.28144   2.28780   2.29927   2.32421   2.48410
 Alpha virt. eigenvalues --    2.51550   2.53116   2.53317   2.55018   2.56609
 Alpha virt. eigenvalues --    2.57382   2.59090   2.61101   2.61205   2.62319
 Alpha virt. eigenvalues --    2.63926   2.64894   2.66676   2.70199   2.73699
 Alpha virt. eigenvalues --    2.76447   2.78185   2.78245   2.81032   2.82927
 Alpha virt. eigenvalues --    2.84792   2.85352   2.87459   2.88347   2.89866
 Alpha virt. eigenvalues --    2.94617   2.94969   2.96994   3.03481   3.07397
 Alpha virt. eigenvalues --    3.09959   3.10038   3.11121   3.13887   3.13970
 Alpha virt. eigenvalues --    3.18127   3.18194   3.24565   3.26209   3.31250
 Alpha virt. eigenvalues --    3.33290   3.33362   3.34232   3.40455   3.41253
 Alpha virt. eigenvalues --    3.43805   3.45019   3.50574   3.55270   3.57316
 Alpha virt. eigenvalues --    3.61385   3.66699   3.84974   3.87106   3.87268
 Alpha virt. eigenvalues --    3.92107   3.94820   4.11062   4.17348   4.19760
 Alpha virt. eigenvalues --    4.21645   4.24514   4.33036   4.40393   4.69556
 Alpha virt. eigenvalues --    5.13531   5.14188   5.53518   5.54255   5.87246
 Alpha virt. eigenvalues --    5.91559   8.13400   8.13640  17.43364  17.44793
 Alpha virt. eigenvalues --   17.62333  17.64528  17.68365  17.71577  23.65681
 Alpha virt. eigenvalues --   23.85954  23.95187  23.98627  24.04372  24.04931
 Alpha virt. eigenvalues --   24.17870  24.18288  24.29148  24.29556  50.10524
 Alpha virt. eigenvalues --   50.11683 189.38524 189.38896
          Condensed to atoms (all electrons):
               1          2          3          4          5          6
     1  C   11.685370   0.726651  -0.934164  -0.563520  -0.879068   0.009007
     2  C    0.726651  16.860406  -3.784204   1.526815  -0.034782  -0.124145
     3  C   -0.934164  -3.784204  11.225006  -0.614604   0.040094   0.470026
     4  C   -0.563520   1.526815  -0.614604   6.621474  -0.089145   0.008247
     5  S   -0.879068  -0.034782   0.040094  -0.089145  17.486076   0.009070
     6  H    0.009007  -0.124145   0.470026   0.008247   0.009070   0.495450
     7  H    0.027880  -0.053243   0.064703   0.352542  -0.029220  -0.003744
     8  C    1.373874  -4.490694  -0.088183  -0.541641  -0.328209  -0.005153
     9  C   -4.490898  -4.871570   0.525362  -0.554119  -0.043780   0.000987
    10  S   -0.328227  -0.043813  -0.089101   0.099388   0.093069  -0.001242
    11  C   -0.088131   0.525381  -0.119120   0.029413  -0.089102   0.000024
    12  C   -0.541637  -0.554111   0.029410  -0.045218   0.099391   0.000056
    13  H   -0.005153   0.000987   0.000024   0.000056  -0.001242   0.000000
    14  H    0.000883   0.004555   0.000204   0.000012  -0.000619   0.000000
    15  O   -0.200175   0.416948  -0.097351   0.030907   0.044679  -0.008943
    16  O   -0.246110  -0.100285  -0.002543  -0.001176  -0.015303   0.000023
    17  C   -0.160827  -0.090386   0.006830  -0.000572  -0.011244  -0.000010
    18  H   -0.000499   0.000105  -0.000138  -0.000445  -0.001815   0.000000
    19  H    0.004206   0.000163   0.000002   0.000496   0.000085   0.000000
    20  H   -0.008184  -0.000308   0.000291  -0.000317  -0.002042   0.000000
    21  C   -0.005291   0.218851  -0.274973  -0.037942   0.064238  -0.002170
    22  H   -0.006644  -0.035680   0.040730  -0.004622   0.001025  -0.000525
    23  H   -0.002430   0.026971  -0.002310   0.003412  -0.000994   0.000218
    24  H   -0.009514  -0.017524   0.025920   0.004874  -0.001189  -0.000386
               7          8          9         10         11         12
     1  C    0.027880   1.373874  -4.490898  -0.328227  -0.088131  -0.541637
     2  C   -0.053243  -4.490694  -4.871570  -0.043813   0.525381  -0.554111
     3  C    0.064703  -0.088183   0.525362  -0.089101  -0.119120   0.029410
     4  C    0.352542  -0.541641  -0.554119   0.099388   0.029413  -0.045218
     5  S   -0.029220  -0.328209  -0.043780   0.093069  -0.089102   0.099391
     6  H   -0.003744  -0.005153   0.000987  -0.001242   0.000024   0.000056
     7  H    0.451464   0.000883   0.004554  -0.000619   0.000204   0.000012
     8  C    0.000883  11.685409   0.726442  -0.879059  -0.934122  -0.563543
     9  C    0.004554   0.726442  16.860864  -0.034740  -3.784331   1.526848
    10  S   -0.000619  -0.879059  -0.034740  17.486072   0.040095  -0.089141
    11  C    0.000204  -0.934122  -3.784331   0.040095  11.225026  -0.614624
    12  C    0.000012  -0.563543   1.526848  -0.089141  -0.614624   6.621470
    13  H    0.000000   0.009007  -0.124146   0.009070   0.470026   0.008246
    14  H    0.000000   0.027881  -0.053245  -0.029220   0.064704   0.352541
    15  O   -0.000237  -0.246104  -0.100285  -0.015303  -0.002543  -0.001176
    16  O   -0.000015  -0.200183   0.416960   0.044679  -0.097347   0.030908
    17  C   -0.000049  -0.005302   0.218872   0.064239  -0.274975  -0.037940
    18  H    0.000000  -0.006649  -0.035679   0.001025   0.040735  -0.004619
    19  H   -0.000001  -0.002430   0.026972  -0.000994  -0.002310   0.003412
    20  H    0.000000  -0.009512  -0.017523  -0.001189   0.025915   0.004873
    21  C    0.000580  -0.160817  -0.090384  -0.011245   0.006830  -0.000572
    22  H    0.000022  -0.000496   0.000106  -0.001816  -0.000138  -0.000445
    23  H   -0.000000   0.004206   0.000163   0.000085   0.000002   0.000496
    24  H    0.000022  -0.008185  -0.000308  -0.002042   0.000291  -0.000317
              13         14         15         16         17         18
     1  C   -0.005153   0.000883  -0.200175  -0.246110  -0.160827  -0.000499
     2  C    0.000987   0.004555   0.416948  -0.100285  -0.090386   0.000105
     3  C    0.000024   0.000204  -0.097351  -0.002543   0.006830  -0.000138
     4  C    0.000056   0.000012   0.030907  -0.001176  -0.000572  -0.000445
     5  S   -0.001242  -0.000619   0.044679  -0.015303  -0.011244  -0.001815
     6  H    0.000000   0.000000  -0.008943   0.000023  -0.000010   0.000000
     7  H    0.000000   0.000000  -0.000237  -0.000015  -0.000049   0.000000
     8  C    0.009007   0.027881  -0.246104  -0.200183  -0.005302  -0.006649
     9  C   -0.124146  -0.053245  -0.100285   0.416960   0.218872  -0.035679
    10  S    0.009070  -0.029220  -0.015303   0.044679   0.064239   0.001025
    11  C    0.470026   0.064704  -0.002543  -0.097347  -0.274975   0.040735
    12  C    0.008246   0.352541  -0.001176   0.030908  -0.037940  -0.004619
    13  H    0.495450  -0.003744   0.000023  -0.008943  -0.002169  -0.000525
    14  H   -0.003744   0.451464  -0.000015  -0.000237   0.000580   0.000022
    15  O    0.000023  -0.000015   8.250104  -0.001386  -0.000679   0.000003
    16  O   -0.008943  -0.000237  -0.001386   8.250103   0.189312  -0.043301
    17  C   -0.002169   0.000580  -0.000679   0.189312   5.154759   0.422937
    18  H   -0.000525   0.000022   0.000003  -0.043301   0.422937   0.544583
    19  H    0.000218  -0.000000  -0.000003  -0.058007   0.401761  -0.022802
    20  H   -0.000386   0.000022  -0.000005  -0.041969   0.419236  -0.047157
    21  C   -0.000010  -0.000049   0.189312  -0.000679  -0.001278   0.000003
    22  H    0.000000   0.000000  -0.043299   0.000003   0.000003  -0.000000
    23  H    0.000000  -0.000001  -0.058007  -0.000003  -0.000000  -0.000000
    24  H    0.000000   0.000000  -0.041972  -0.000005  -0.000003   0.000000
              19         20         21         22         23         24
     1  C    0.004206  -0.008184  -0.005291  -0.006644  -0.002430  -0.009514
     2  C    0.000163  -0.000308   0.218851  -0.035680   0.026971  -0.017524
     3  C    0.000002   0.000291  -0.274973   0.040730  -0.002310   0.025920
     4  C    0.000496  -0.000317  -0.037942  -0.004622   0.003412   0.004874
     5  S    0.000085  -0.002042   0.064238   0.001025  -0.000994  -0.001189
     6  H    0.000000   0.000000  -0.002170  -0.000525   0.000218  -0.000386
     7  H   -0.000001   0.000000   0.000580   0.000022  -0.000000   0.000022
     8  C   -0.002430  -0.009512  -0.160817  -0.000496   0.004206  -0.008185
     9  C    0.026972  -0.017523  -0.090384   0.000106   0.000163  -0.000308
    10  S   -0.000994  -0.001189  -0.011245  -0.001816   0.000085  -0.002042
    11  C   -0.002310   0.025915   0.006830  -0.000138   0.000002   0.000291
    12  C    0.003412   0.004873  -0.000572  -0.000445   0.000496  -0.000317
    13  H    0.000218  -0.000386  -0.000010   0.000000   0.000000   0.000000
    14  H   -0.000000   0.000022  -0.000049   0.000000  -0.000001   0.000000
    15  O   -0.000003  -0.000005   0.189312  -0.043299  -0.058007  -0.041972
    16  O   -0.058007  -0.041969  -0.000679   0.000003  -0.000003  -0.000005
    17  C    0.401761   0.419236  -0.001278   0.000003  -0.000000  -0.000003
    18  H   -0.022802  -0.047157   0.000003  -0.000000  -0.000000   0.000000
    19  H    0.494105  -0.023043  -0.000000  -0.000000  -0.000000   0.000000
    20  H   -0.023043   0.542864  -0.000003   0.000000   0.000000  -0.000000
    21  C   -0.000000  -0.000003   5.154755   0.422939   0.401761   0.419234
    22  H   -0.000000   0.000000   0.422939   0.544581  -0.022802  -0.047158
    23  H   -0.000000   0.000000   0.401761  -0.022802   0.494105  -0.023043
    24  H    0.000000  -0.000000   0.419234  -0.047158  -0.023043   0.542867
 Mulliken charges:
               1
     1  C    0.642601
     2  C   -0.107086
     3  C   -0.421911
     4  C   -0.224317
     5  S   -0.309972
     6  H    0.153210
     7  H    0.184261
     8  C    0.642581
     9  C   -0.107122
    10  S   -0.309970
    11  C   -0.421904
    12  C   -0.224320
    13  H    0.153210
    14  H    0.184261
    15  O   -0.114495
    16  O   -0.114495
    17  C   -0.293093
    18  H    0.154216
    19  H    0.178171
    20  H    0.158438
    21  C   -0.293090
    22  H    0.154217
    23  H    0.178171
    24  H    0.158437
 Sum of Mulliken charges =  -0.00000
 Mulliken charges with hydrogens summed into heavy atoms:
               1
     1  C    0.642601
     2  C   -0.107086
     3  C   -0.268700
     4  C   -0.040056
     5  S   -0.309972
     8  C    0.642581
     9  C   -0.107122
    10  S   -0.309970
    11  C   -0.268694
    12  C   -0.040059
    15  O   -0.114495
    16  O   -0.114495
    17  C    0.197732
    21  C    0.197734
 Electronic spatial extent (au):  <R**2>=           3507.1842
 Charge=             -0.0000 electrons
 Dipole moment (field-independent basis, Debye):
    X=              0.0000    Y=             -0.0000    Z=              0.2794  Tot=              0.2794
 Quadrupole moment (field-independent basis, Debye-Ang):
   XX=            -69.4573   YY=            -88.8427   ZZ=           -101.4194
   XY=             -2.9061   XZ=             -0.0017   YZ=              0.0010
 Traceless Quadrupole moment (field-independent basis, Debye-Ang):
   XX=             17.1158   YY=             -2.2696   ZZ=            -14.8463
   XY=             -2.9061   XZ=             -0.0017   YZ=              0.0010
 Octapole moment (field-independent basis, Debye-Ang**2):
  XXX=              0.0010  YYY=              0.0001  ZZZ=              2.9972  XYY=              0.0005
  XXY=             -0.0008  XXZ=              6.9440  XZZ=             -0.0010  YZZ=              0.0001
  YYZ=             -0.5957  XYZ=             -3.6846
 Hexadecapole moment (field-independent basis, Debye-Ang**3):
 XXXX=          -2474.6968 YYYY=          -1559.8520 ZZZZ=           -147.0975 XXXY=           -120.1158
 XXXZ=              0.0329 YYYX=              2.1123 YYYZ=             -0.0373 ZZZX=              0.0592
 ZZZY=             -0.0530 XXYY=           -642.2949 XXZZ=           -528.1454 YYZZ=           -334.5798
 XXYZ=             -0.0045 YYXZ=              0.0182 ZZXY=            -31.7886
 N-N= 1.105416158377D+03 E-N=-5.358666995669D+03  KE= 1.330507687523D+03
 Calling FoFJK, ICntrl=      2127 FMM=F ISym2X=0 I1Cent= 0 IOpClX= 0 NMat=1 NMatS=1 NMatT=0.
 ***** Axes restored to original set *****
 -------------------------------------------------------------------
 Center     Atomic                   Forces (Hartrees/Bohr)
 Number     Number              X              Y              Z
 -------------------------------------------------------------------
      1        6          -0.009864949   -0.007527679   -0.000428862
      2        6           0.005227428    0.004311698    0.000092602
      3        6          -0.002295331    0.004059705    0.000522744
      4        6           0.007394830    0.002136349    0.000553187
      5       16           0.004447505   -0.007852421   -0.001386063
      6        1          -0.000034584   -0.000236371   -0.000159158
      7        1          -0.000122574   -0.000250729   -0.000206616
      8        6           0.009864774    0.007527682   -0.000428913
      9        6          -0.005227421   -0.004311690    0.000092520
     10       16          -0.004447527    0.007852495   -0.001384657
     11        6           0.002295345   -0.004059741    0.000521935
     12        6          -0.007394746   -0.002136395    0.000553639
     13        1           0.000034587    0.000236370   -0.000159079
     14        1           0.000122569    0.000250758   -0.000206584
     15        8          -0.004935946   -0.002058676    0.000397550
     16        8           0.004935989    0.002058755    0.000397545
     17        6           0.000564191   -0.006172882    0.000556681
     18        1           0.000133822   -0.000365536   -0.000183220
     19        1           0.000018368   -0.000327257   -0.000005226
     20        1           0.000121288   -0.000301313    0.000245297
     21        6          -0.000564126    0.006172743    0.000558464
     22        1          -0.000133958    0.000365347   -0.000183505
     23        1          -0.000018369    0.000327260   -0.000005283
     24        1          -0.000121161    0.000301529    0.000245004
 -------------------------------------------------------------------
 Cartesian Forces:  Max     0.009864949 RMS     0.003468835

 GradGradGradGradGradGradGradGradGradGradGradGradGradGradGradGradGradGrad
 Berny optimization.
 FormGI is forming the generalized inverse of G from B-inverse, IUseBI=4.
 Internal  Forces:  Max     0.009650053 RMS     0.002552363
 Search for a local minimum.
 Step number   1 out of a maximum of  121
 All quantities printed in internal units (Hartrees-Bohrs-Radians)
 Mixed Optimization -- RFO/linear search
 Second derivative matrix not updated -- first step.
 ITU=  0
     Eigenvalues ---    0.01407   0.01407   0.01605   0.01609   0.01613
     Eigenvalues ---    0.01688   0.01979   0.01987   0.02100   0.02100
     Eigenvalues ---    0.02112   0.02113   0.02173   0.02173   0.02275
     Eigenvalues ---    0.02275   0.10067   0.10067   0.10655   0.10655
     Eigenvalues ---    0.16000   0.16000   0.16000   0.16000   0.16000
     Eigenvalues ---    0.16000   0.16000   0.16000   0.16000   0.16000
     Eigenvalues ---    0.22532   0.22532   0.24749   0.24749   0.25000
     Eigenvalues ---    0.25000   0.25000   0.25000   0.25000   0.25000
     Eigenvalues ---    0.29143   0.29143   0.32171   0.32171   0.34228
     Eigenvalues ---    0.34228   0.34228   0.34228   0.34973   0.34973
     Eigenvalues ---    0.35945   0.35945   0.36108   0.36108   0.39085
     Eigenvalues ---    0.40753   0.40753   0.42229   0.42229   0.45570
     Eigenvalues ---    0.45570   0.50101   0.50101   0.52226   0.52226
     Eigenvalues --- 1000.000001000.000001000.000001000.000001000.00000
     Eigenvalues --- 1000.000001000.000001000.000001000.000001000.00000
     Eigenvalues --- 1000.000001000.000001000.000001000.000001000.00000
     Eigenvalues --- 1000.000001000.000001000.000001000.000001000.00000
     Eigenvalues --- 1000.000001000.000001000.000001000.000001000.00000
     Eigenvalues --- 1000.000001000.000001000.000001000.000001000.00000
     Eigenvalues --- 1000.000001000.000001000.000001000.000001000.00000
     Eigenvalues --- 1000.000001000.000001000.000001000.000001000.00000
     Eigenvalues --- 1000.000001000.000001000.000001000.000001000.00000
     Eigenvalues --- 1000.00000
 RFO step:  Lambda=-1.90467889D-03 EMin= 1.40683391D-02
 Linear search not attempted -- first point.
 Iteration  1 RMS(Cart)=  0.02853476 RMS(Int)=  0.00018143
 Iteration  2 RMS(Cart)=  0.00044482 RMS(Int)=  0.00002226
 Iteration  3 RMS(Cart)=  0.00000004 RMS(Int)=  0.00002226
 Iteration  1 RMS(Cart)=  0.00000567 RMS(Int)=  0.00000186
 Iteration  2 RMS(Cart)=  0.00000306 RMS(Int)=  0.00000208
 Iteration  3 RMS(Cart)=  0.00000166 RMS(Int)=  0.00000234
 Iteration  4 RMS(Cart)=  0.00000089 RMS(Int)=  0.00000252
 Variable       Old X    -DE/DX   Delta X   Delta X   Delta X     New X
                                 (Linear)    (Quad)   (Total)
    R1        2.62118  -0.00965   0.00000  -0.02040  -0.02038   2.60081
    R2        3.32335  -0.00751   0.00000  -0.02513  -0.02511   3.29824
    R3        2.72816   0.00099   0.00000   0.00251   0.00251   2.73068
    R4        2.69003  -0.00210   0.00000  -0.00526  -0.00527   2.68476
    R5        2.57684  -0.00768   0.00000  -0.01465  -0.01465   2.56219
    R6        2.58219  -0.00584   0.00000  -0.01115  -0.01118   2.57102
    R7        2.04168   0.00025   0.00000   0.00068   0.00068   2.04236
    R8        3.26175  -0.00627   0.00000  -0.01844  -0.01846   3.24329
    R9        2.03912   0.00014   0.00000   0.00038   0.00038   2.03950
   R10        2.62118  -0.00965   0.00000  -0.02040  -0.02040   2.60079
   R11        3.32335  -0.00751   0.00000  -0.02513  -0.02513   3.29822
   R12        2.69003  -0.00210   0.00000  -0.00526  -0.00526   2.68477
   R13        2.57684  -0.00768   0.00000  -0.01465  -0.01465   2.56219
   R14        3.26175  -0.00627   0.00000  -0.01844  -0.01844   3.24330
   R15        2.58219  -0.00584   0.00000  -0.01115  -0.01115   2.57104
   R16        2.04168   0.00025   0.00000   0.00068   0.00068   2.04236
   R17        2.03912   0.00014   0.00000   0.00038   0.00038   2.03950
   R18        2.68632  -0.00710   0.00000  -0.01673  -0.01673   2.66960
   R19        2.68632  -0.00710   0.00000  -0.01673  -0.01673   2.66960
   R20        2.06947   0.00012   0.00000   0.00035   0.00035   2.06983
   R21        2.05719  -0.00013   0.00000  -0.00038  -0.00038   2.05682
   R22        2.06947   0.00014   0.00000   0.00040   0.00040   2.06987
   R23        2.06947   0.00012   0.00000   0.00036   0.00036   2.06983
   R24        2.05719  -0.00013   0.00000  -0.00038  -0.00038   2.05682
   R25        2.06947   0.00014   0.00000   0.00040   0.00040   2.06987
    A1        1.90639   0.00133   0.00000   0.00474   0.00470   1.91109
    A2        2.23296  -0.00087   0.00000  -0.00319  -0.00332   2.22964
    A3        2.14384  -0.00046   0.00000  -0.00155  -0.00168   2.14215
    A4        1.99480  -0.00007   0.00000  -0.00123  -0.00121   1.99359
    A5        2.08497   0.00055   0.00000   0.00266   0.00263   2.08760
    A6        2.20341  -0.00048   0.00000  -0.00143  -0.00147   2.20195
    A7        1.95572  -0.00100   0.00000  -0.00474  -0.00475   1.95098
    A8        2.17384   0.00047   0.00000   0.00217   0.00218   2.17602
    A9        2.15362   0.00053   0.00000   0.00256   0.00256   2.15618
   A10        1.96177   0.00014   0.00000   0.00154   0.00150   1.96327
   A11        2.23094  -0.00033   0.00000  -0.00236  -0.00236   2.22858
   A12        2.09048   0.00019   0.00000   0.00082   0.00082   2.09130
   A13        1.60610  -0.00040   0.00000  -0.00031  -0.00027   1.60583
   A14        2.23296  -0.00087   0.00000  -0.00319  -0.00319   2.22977
   A15        2.14384  -0.00046   0.00000  -0.00155  -0.00155   2.14228
   A16        1.90639   0.00133   0.00000   0.00474   0.00474   1.91112
   A17        1.99480  -0.00007   0.00000  -0.00123  -0.00126   1.99354
   A18        2.08497   0.00055   0.00000   0.00266   0.00265   2.08762
   A19        2.20341  -0.00048   0.00000  -0.00143  -0.00145   2.20197
   A20        1.60610  -0.00040   0.00000  -0.00031  -0.00032   1.60577
   A21        1.95572  -0.00100   0.00000  -0.00473  -0.00475   1.95098
   A22        2.17384   0.00047   0.00000   0.00217   0.00218   2.17602
   A23        2.15362   0.00053   0.00000   0.00256   0.00257   2.15618
   A24        1.96177   0.00014   0.00000   0.00154   0.00149   1.96326
   A25        2.09048   0.00019   0.00000   0.00082   0.00080   2.09128
   A26        2.23094  -0.00033   0.00000  -0.00236  -0.00238   2.22856
   A27        2.05933  -0.00411   0.00000  -0.01633  -0.01633   2.04300
   A28        2.05933  -0.00411   0.00000  -0.01633  -0.01633   2.04300
   A29        1.94159  -0.00048   0.00000  -0.00305  -0.00305   1.93854
   A30        1.84964  -0.00024   0.00000  -0.00136  -0.00136   1.84828
   A31        1.94160  -0.00040   0.00000  -0.00253  -0.00254   1.93906
   A32        1.90836   0.00036   0.00000   0.00228   0.00228   1.91064
   A33        1.91300   0.00039   0.00000   0.00216   0.00216   1.91516
   A34        1.90835   0.00038   0.00000   0.00257   0.00257   1.91092
   A35        1.94159  -0.00048   0.00000  -0.00305  -0.00305   1.93854
   A36        1.84964  -0.00024   0.00000  -0.00136  -0.00136   1.84828
   A37        1.94160  -0.00040   0.00000  -0.00253  -0.00254   1.93906
   A38        1.90836   0.00036   0.00000   0.00228   0.00228   1.91064
   A39        1.91300   0.00039   0.00000   0.00216   0.00216   1.91516
   A40        1.90835   0.00038   0.00000   0.00257   0.00257   1.91091
    D1        0.00007  -0.00006   0.00000   0.00300   0.00302   0.00310
    D2       -3.14152   0.00015   0.00000   0.01290   0.01293  -3.12859
    D3       -3.14157  -0.00026   0.00000  -0.02291  -0.02292   3.11870
    D4        0.00003  -0.00005   0.00000  -0.01302  -0.01302  -0.01299
    D5       -0.00007   0.00012   0.00000   0.00064   0.00062   0.00055
    D6        3.14156   0.00030   0.00000   0.02496   0.02501  -3.11661
    D7        2.96711   0.00089   0.00000   0.02912   0.02908   2.99619
    D8       -0.17453   0.00067   0.00000   0.03386   0.03383  -0.14070
    D9       -0.17453   0.00067   0.00000   0.00000   0.00000  -0.17453
   D10        2.96701   0.00045   0.00000   0.00475   0.00475   2.97177
   D11       -0.00003  -0.00005   0.00000  -0.00629  -0.00629  -0.00632
   D12        3.14157  -0.00002   0.00000  -0.00286  -0.00286   3.13871
   D13        3.14156  -0.00028   0.00000  -0.01697  -0.01696   3.12461
   D14       -0.00002  -0.00025   0.00000  -0.01354  -0.01353  -0.01355
   D15       -3.14122  -0.00016   0.00000  -0.00746  -0.00746   3.13451
   D16        0.00037   0.00007   0.00000   0.00373   0.00373   0.00411
   D17       -0.00003   0.00014   0.00000   0.00663   0.00662   0.00660
   D18       -3.14157  -0.00011   0.00000  -0.00290  -0.00290   3.13871
   D19        3.14155   0.00011   0.00000   0.00325   0.00325  -3.13838
   D20        0.00001  -0.00014   0.00000  -0.00629  -0.00628  -0.00627
   D21        0.00006  -0.00015   0.00000  -0.00424  -0.00425  -0.00419
   D22       -3.14158   0.00008   0.00000   0.00444   0.00444  -3.13713
   D23       -3.14156  -0.00026   0.00000  -0.00528  -0.00527   3.13635
   D24        0.00003  -0.00005   0.00000   0.00566   0.00567   0.00570
   D25        0.00007  -0.00006   0.00000  -0.00950  -0.00951  -0.00944
   D26       -3.14152   0.00015   0.00000   0.00143   0.00143  -3.14009
   D27        3.14156   0.00030   0.00000   0.00804   0.00804  -3.13358
   D28       -0.00007   0.00012   0.00000   0.01201   0.01203   0.01196
   D29       -0.00003  -0.00005   0.00000   0.00080   0.00079   0.00076
   D30        3.14157  -0.00002   0.00000   0.00134   0.00133  -3.14029
   D31        3.14157  -0.00028   0.00000  -0.01101  -0.01099   3.13057
   D32       -0.00002  -0.00025   0.00000  -0.01046  -0.01045  -0.01047
   D33       -3.14125  -0.00016   0.00000  -0.00804  -0.00804   3.13390
   D34        0.00034   0.00007   0.00000   0.00432   0.00432   0.00466
   D35        0.00006  -0.00015   0.00000  -0.01201  -0.01201  -0.01195
   D36       -3.14158   0.00008   0.00000   0.00068   0.00070  -3.14088
   D37       -0.00003   0.00014   0.00000   0.00865   0.00864   0.00862
   D38       -3.14157  -0.00011   0.00000  -0.00529  -0.00529   3.13633
   D39        3.14156   0.00011   0.00000   0.00812   0.00811  -3.13352
   D40        0.00001  -0.00014   0.00000  -0.00583  -0.00582  -0.00581
   D41        1.06888  -0.00007   0.00000  -0.00152  -0.00151   1.06737
   D42        3.14139  -0.00004   0.00000  -0.00124  -0.00124   3.14015
   D43       -1.06931   0.00006   0.00000  -0.00034  -0.00034  -1.06965
   D44        1.06890  -0.00007   0.00000  -0.00152  -0.00152   1.06738
   D45        3.14140  -0.00004   0.00000  -0.00124  -0.00124   3.14016
   D46       -1.06929   0.00006   0.00000  -0.00034  -0.00034  -1.06963
         Item               Value     Threshold  Converged?
 Maximum Force            0.009650     0.000450     NO 
 RMS     Force            0.002562     0.000300     NO 
 Maximum Displacement     0.094719     0.001800     NO 
 RMS     Displacement     0.028590     0.001200     NO 
 Predicted change in Energy=-9.619781D-04
 GradGradGradGradGradGradGradGradGradGradGradGradGradGradGradGradGradGrad

                          Input orientation:                          
 ---------------------------------------------------------------------
 Center     Atomic      Atomic             Coordinates (Angstroms)
 Number     Number       Type             X           Y           Z
 ---------------------------------------------------------------------
      1          6           0       -0.594443   -0.412003   -0.040144
      2          6           0       -0.665772   -1.784291   -0.117005
      3          6           0       -1.987889   -2.302586   -0.074431
      4          6           0       -2.914454   -1.313294    0.043057
      5         16           0       -2.204517    0.248471    0.092869
      6          1           0       -2.238630   -3.352655   -0.124972
      7          1           0       -3.987422   -1.417064    0.095671
      8          6           0        0.591844    0.413039   -0.030902
      9          6           0        0.664811    1.784980   -0.112112
     10         16           0        2.202102   -0.250166    0.085088
     11          6           0        1.987508    2.301839   -0.070049
     12          6           0        2.913308    1.311243    0.042521
     13          1           0        2.239338    3.351674   -0.120033
     14          1           0        3.986571    1.413675    0.091621
     15          8           0        0.475497   -2.510224   -0.211132
     16          8           0       -0.475587    2.512006   -0.208354
     17          6           0       -0.338361    3.916242   -0.278946
     18          1           0        0.234020    4.211920   -1.164750
     19          1           0       -1.349890    4.311369   -0.352057
     20          1           0        0.143948    4.311074    0.621737
     21          6           0        0.339938   -3.914802   -0.278031
     22          1           0       -0.231957   -4.213498   -1.163137
     23          1           0        1.351943   -4.308929   -0.349942
     24          1           0       -0.142046   -4.307820    0.623620
 ---------------------------------------------------------------------
                    Distance matrix (angstroms):
                    1          2          3          4          5
     1  C    0.000000
     2  C    1.376288   0.000000
     3  C    2.348865   1.420716   0.000000
     4  C    2.490321   2.303047   1.360524   0.000000
     5  S    1.745353   2.558106   2.565699   1.716276   0.000000
     6  H    3.370160   2.221196   1.080773   2.154986   3.607870
     7  H    3.541312   3.348648   2.193448   1.079257   2.439828
     8  C    1.445012   2.533233   3.745869   3.908941   2.803933
     9  C    2.533305   3.809221   4.873031   4.736509   3.261276
    10  S    2.804022   3.258693   4.668393   5.226007   4.434748
    11  C    3.745972   4.872223   6.083134   6.091897   4.670753
    12  C    3.909058   4.734722   6.090580   6.391479   5.227251
    13  H    4.711896   5.900661   7.059899   6.953423   5.424301
    14  H    4.933169   5.649319   7.037921   7.420435   6.299784
    15  O    2.361470   1.355852   2.475898   3.604029   3.858147
    16  O    2.931254   4.301474   5.048295   4.543589   2.864179
    17  C    4.342385   5.712223   6.437125   5.838491   4.131988
    18  H    4.830296   6.153206   6.968821   6.472996   4.820477
    19  H    4.793561   6.138430   6.650452   5.851564   4.175582
    20  H    4.826051   6.193130   6.983543   6.428235   4.722259
    21  C    3.633079   2.361454   2.838921   4.178757   4.893329
    22  H    3.980436   2.680231   2.814278   4.130603   5.037630
    23  H    4.366969   3.240252   3.905866   5.227850   5.797791
    24  H    3.977768   2.681607   2.813428   4.121952   5.029441
                    6          7          8          9         10
     6  H    0.000000
     7  H    2.617913   0.000000
     8  C    4.711781   4.933049   0.000000
     9  C    5.901307   5.651506   1.376278   0.000000
    10  S    5.421223   6.298568   1.745343   2.558119   0.000000
    11  C    7.059501   7.039708   2.348824   1.420718   2.565706
    12  C    6.951436   7.420684   2.490252   2.303059   1.716282
    13  H    8.062273   7.846013   3.370127   2.221200   3.607868
    14  H    7.843337   8.461540   3.541250   3.348651   2.439823
    15  O    2.843167   4.605081   2.931124   4.300514   2.859506
    16  O    6.124501   5.278541   2.361474   1.355852   3.858201
    17  C    7.514758   6.473031   3.633075   2.361454   4.893406
    18  H    8.026078   7.148055   3.980597   2.680236   5.034447
    19  H    7.718723   6.322339   4.366972   3.240252   5.797874
    20  H    8.060210   7.082127   3.977590   2.681601   5.032782
    21  C    2.643567   5.010428   4.342205   5.711444   4.126630
    22  H    2.417762   4.848521   4.833782   6.155533   4.815673
    23  H    3.722537   6.088536   4.793382   6.137136   4.169601
    24  H    2.422477   4.839640   4.822189   6.189873   4.716948
                   11         12         13         14         15
    11  C    0.000000
    12  C    1.360536   0.000000
    13  H    1.080773   2.154998   0.000000
    14  H    2.193450   1.079257   2.617912   0.000000
    15  O    5.045992   4.539920   6.122196   5.274114   0.000000
    16  O    2.475911   3.604078   2.843178   4.605124   5.111493
    17  C    2.838944   4.178841   2.643581   5.010509   6.478150
    18  H    2.814516   4.129167   2.419247   4.846678   6.793742
    19  H    3.905888   5.227935   3.722553   6.088620   7.063004
    20  H    2.813238   4.123570   2.421018   4.841663   6.879950
    21  C    6.434623   5.834085   7.512281   6.467399   1.412690
    22  H    6.969252   6.470631   8.026655   7.143911   2.075559
    23  H    6.647144   5.846214   7.715255   6.315412   2.005683
    24  H    6.978808   6.422362   8.055548   7.075592   2.075939
                   16         17         18         19         20
    16  O    0.000000
    17  C    1.412690   0.000000
    18  H    2.075559   1.095305   0.000000
    19  H    2.005683   1.088421   1.783011   0.000000
    20  H    2.075939   1.095329   1.791502   1.783207   0.000000
    21  C    6.478719   7.860365   8.175642   8.398267   8.277261
    22  H    6.797306   8.178373   8.438294   8.636028   8.717535
    23  H    7.062936   8.397356   8.632412   9.033794   8.758302
    24  H    6.878478   8.275769   8.713534   8.757925   8.623638
                   21         22         23         24
    21  C    0.000000
    22  H    1.095305   0.000000
    23  H    1.088421   1.783012   0.000000
    24  H    1.095329   1.791502   1.783207   0.000000
 Stoichiometry    C10H10O2S2
 Framework group  C1[X(C10H10O2S2)]
 Deg. of freedom    66
 Full point group                 C1      NOp   1
 Largest Abelian subgroup         C1      NOp   1
 Largest concise Abelian subgroup C1      NOp   1
                         Standard orientation:                         
 ---------------------------------------------------------------------
 Center     Atomic      Atomic             Coordinates (Angstroms)
 Number     Number       Type             X           Y           Z
 ---------------------------------------------------------------------
      1          6           0       -0.598493   -0.405342   -0.026141
      2          6           0       -1.904071    0.023387    0.050179
      3          6           0       -2.864527   -1.022654    0.008255
      4          6           0       -2.276224   -2.243868   -0.108200
      5         16           0       -0.563496   -2.145369   -0.157812
      6          1           0       -3.934334   -0.877543    0.058512
      7          1           0       -2.760176   -3.207137   -0.160152
      8          6           0        0.599037    0.403292   -0.035813
      9          6           0        1.904858   -0.023663    0.045937
     10         16           0        0.561600    2.144285   -0.153147
     11          6           0        2.864197    1.023373    0.003224
     12          6           0        2.274439    2.244167   -0.110380
     13          1           0        3.934162    0.879439    0.053490
     14          1           0        2.757266    3.208116   -0.160143
     15          8           0       -2.169279    1.349788    0.143244
     16          8           0        2.171368   -1.349498    0.143241
     17          6           0        3.530498   -1.728185    0.214343
     18          1           0        4.012657   -1.300385    1.099896
     19          1           0        3.533978   -2.814086    0.288289
     20          1           0        4.072915   -1.421541   -0.686489
     21          6           0       -3.528149    1.730258    0.209632
     22          1           0       -4.013231    1.305361    1.094986
     23          1           0       -3.530547    2.816353    0.280707
     24          1           0       -4.068465    1.421877   -0.691870
 ---------------------------------------------------------------------
 Rotational constants (GHZ):           0.8068072           0.4896141           0.3073902
 Standard basis: 6-311+G(d,p) (5D, 7F)
 There are   398 symmetry adapted cartesian basis functions of A   symmetry.
 There are   384 symmetry adapted basis functions of A   symmetry.
   384 basis functions,   612 primitive gaussians,   398 cartesian basis functions
    59 alpha electrons       59 beta electrons
       nuclear repulsion energy      1111.5899139691 Hartrees.
 NAtoms=   24 NActive=   24 NUniq=   24 SFac= 1.00D+00 NAtFMM=   60 NAOKFM=F Big=F
 Integral buffers will be    131072 words long.
 Raffenetti 2 integral format.
 Two-electron integral symmetry is turned on.
 Nuclear repulsion after empirical dispersion term =     1111.5765722105 Hartrees.
 One-electron integrals computed using PRISM.
 NBasis=   384 RedAO= T EigKep=  1.04D-06  NBF=   384
 NBsUse=   382 1.00D-06 EigRej=  5.90D-07 NBFU=   382
 Initial guess from the checkpoint file:  "gT2_innerdihscan.chk"
 B after Tr=     0.000000    0.000000    0.000000
         Rot=    0.999999    0.000071    0.000006    0.001684 Ang=   0.19 deg.
 ExpMin= 4.05D-02 ExpMax= 9.34D+04 ExpMxC= 3.17D+03 IAcc=2 IRadAn=         4 AccDes= 0.00D+00
 Harris functional with IExCor= 4639 and IRadAn=       4 diagonalized for initial guess.
 HarFok:  IExCor= 4639 AccDes= 0.00D+00 IRadAn=         4 IDoV= 1 UseB2=F ITyADJ=14
 ICtDFT=  3500011 ScaDFX=  1.000000  1.000000  1.000000  1.000000
 FoFCou: FMM=F IPFlag=           0 FMFlag=      100000 FMFlg1=           0
         NFxFlg=           0 DoJE=T BraDBF=F KetDBF=T FulRan=T
         wScrn=  0.000000 ICntrl=       500 IOpCl=  0 I1Cent=   200000004 NGrid=           0
         NMat0=    1 NMatS0=      1 NMatT0=    0 NMatD0=    1 NMtDS0=    0 NMtDT0=    0
 Petite list used in FoFCou.
 Requested convergence on RMS density matrix=1.00D-08 within 128 cycles.
 Requested convergence on MAX density matrix=1.00D-06.
 Requested convergence on             energy=1.00D-06.
 No special actions if energy rises.
 SCF Done:  E(RwB97XD) =  -1333.82678804     A.U. after   13 cycles
            NFock= 13  Conv=0.83D-08     -V/T= 2.0023
 Calling FoFJK, ICntrl=      2127 FMM=F ISym2X=0 I1Cent= 0 IOpClX= 0 NMat=1 NMatS=1 NMatT=0.
 ***** Axes restored to original set *****
 -------------------------------------------------------------------
 Center     Atomic                   Forces (Hartrees/Bohr)
 Number     Number              X              Y              Z
 -------------------------------------------------------------------
      1        6          -0.004390392    0.000524789    0.000723118
      2        6           0.002748484    0.000335008    0.000253854
      3        6          -0.001119211   -0.001269035    0.000390084
      4        6          -0.000108919    0.002096684    0.000141922
      5       16           0.000656819   -0.001547772   -0.000542803
      6        1          -0.000170246    0.000288338   -0.000047808
      7        1          -0.000073692   -0.000190919   -0.000224572
      8        6           0.004444299   -0.000643003   -0.001323473
      9        6          -0.002793147   -0.000247650    0.000882936
     10       16          -0.000620201    0.001624118    0.000296873
     11        6           0.001123169    0.001267181    0.000313090
     12        6           0.000109387   -0.002121241   -0.000332951
     13        1           0.000162170   -0.000280433    0.000042362
     14        1           0.000069502    0.000196946   -0.000134076
     15        8          -0.001327336   -0.001332627   -0.000181689
     16        8           0.001282913    0.001306507   -0.000111989
     17        6          -0.001289514   -0.001557890    0.000042121
     18        1          -0.000061000    0.000464394   -0.000049183
     19        1           0.000095507    0.000665870   -0.000046840
     20        1          -0.000047138    0.000421765   -0.000001998
     21        6           0.001290618    0.001544157    0.000005343
     22        1           0.000070650   -0.000463712   -0.000048603
     23        1          -0.000094522   -0.000666561   -0.000043354
     24        1           0.000041800   -0.000414914   -0.000002361
 -------------------------------------------------------------------
 Cartesian Forces:  Max     0.004444299 RMS     0.001159432

 GradGradGradGradGradGradGradGradGradGradGradGradGradGradGradGradGradGrad
 Berny optimization.
 Using GEDIIS/GDIIS optimizer.
 FormGI is forming the generalized inverse of G from B-inverse, IUseBI=4.
 Internal  Forces:  Max     0.003069067 RMS     0.000696039
 Search for a local minimum.
 Step number   2 out of a maximum of  121
 All quantities printed in internal units (Hartrees-Bohrs-Radians)
 Mixed Optimization -- En-DIIS/RFO-DIIS
 Update second derivatives using D2CorX and points    1    2
 DE= -9.10D-04 DEPred=-9.62D-04 R= 9.46D-01
 TightC=F SS=  1.41D+00  RLast= 1.01D-01 DXNew= 5.0454D-01 3.0187D-01
 Trust test= 9.46D-01 RLast= 1.01D-01 DXMaxT set to 3.02D-01
 ITU=  1  0
 Use linear search instead of GDIIS.
     Eigenvalues ---    0.01407   0.01407   0.01584   0.01607   0.01642
     Eigenvalues ---    0.01683   0.01979   0.01994   0.02100   0.02101
     Eigenvalues ---    0.02112   0.02113   0.02173   0.02173   0.02274
     Eigenvalues ---    0.02274   0.10098   0.10099   0.10673   0.10673
     Eigenvalues ---    0.15929   0.15999   0.16000   0.16000   0.16000
     Eigenvalues ---    0.16000   0.16000   0.16000   0.16000   0.16129
     Eigenvalues ---    0.22452   0.22533   0.23762   0.24750   0.24937
     Eigenvalues ---    0.24993   0.24998   0.24999   0.25000   0.25432
     Eigenvalues ---    0.28374   0.29137   0.31257   0.32162   0.34226
     Eigenvalues ---    0.34228   0.34228   0.34228   0.34973   0.34976
     Eigenvalues ---    0.35945   0.35953   0.36107   0.36108   0.38634
     Eigenvalues ---    0.40743   0.40983   0.42229   0.42963   0.45541
     Eigenvalues ---    0.46563   0.50096   0.51302   0.52226   0.56591
     Eigenvalues --- 1000.000001000.000001000.000001000.000001000.00000
     Eigenvalues --- 1000.000001000.000001000.000001000.000001000.00000
     Eigenvalues --- 1000.000001000.000001000.000001000.000001000.00000
     Eigenvalues --- 1000.000001000.000001000.000001000.000001000.00000
     Eigenvalues --- 1000.000001000.000001000.000001000.000001000.00000
     Eigenvalues --- 1000.000001000.000001000.000001000.000001000.00000
     Eigenvalues --- 1000.000001000.000001000.000001000.000001000.00000
     Eigenvalues --- 1000.000001000.000001000.000001000.000001000.00000
     Eigenvalues --- 1000.000001000.000001000.000001000.000001000.00000
     Eigenvalues --- 1000.00000
 RFO step:  Lambda=-1.90808010D-04 EMin= 1.40682423D-02
 Quartic linear search produced a step of -0.04813.
 Iteration  1 RMS(Cart)=  0.01216665 RMS(Int)=  0.00003786
 Iteration  2 RMS(Cart)=  0.00006937 RMS(Int)=  0.00000763
 Iteration  3 RMS(Cart)=  0.00000000 RMS(Int)=  0.00000763
 Iteration  1 RMS(Cart)=  0.00000143 RMS(Int)=  0.00000047
 Iteration  2 RMS(Cart)=  0.00000077 RMS(Int)=  0.00000052
 Variable       Old X    -DE/DX   Delta X   Delta X   Delta X     New X
                                 (Linear)    (Quad)   (Total)
    R1        2.60081   0.00116   0.00098  -0.00059   0.00039   2.60120
    R2        3.29824  -0.00109   0.00121  -0.00743  -0.00622   3.29202
    R3        2.73068   0.00266  -0.00012   0.00685   0.00673   2.73741
    R4        2.68476   0.00176   0.00025   0.00345   0.00370   2.68847
    R5        2.56219   0.00071   0.00070  -0.00088  -0.00017   2.56202
    R6        2.57102   0.00088   0.00054   0.00000   0.00054   2.57155
    R7        2.04236  -0.00024  -0.00003  -0.00053  -0.00056   2.04180
    R8        3.24329  -0.00119   0.00089  -0.00642  -0.00554   3.23775
    R9        2.03950   0.00008  -0.00002   0.00027   0.00025   2.03975
   R10        2.60079   0.00115   0.00098  -0.00063   0.00036   2.60115
   R11        3.29822  -0.00105   0.00121  -0.00729  -0.00608   3.29214
   R12        2.68477   0.00174   0.00025   0.00340   0.00366   2.68842
   R13        2.56219   0.00072   0.00070  -0.00086  -0.00016   2.56203
   R14        3.24330  -0.00117   0.00089  -0.00637  -0.00548   3.23782
   R15        2.57104   0.00089   0.00054   0.00002   0.00056   2.57160
   R16        2.04236  -0.00024  -0.00003  -0.00053  -0.00056   2.04181
   R17        2.03950   0.00008  -0.00002   0.00027   0.00025   2.03975
   R18        2.66960  -0.00012   0.00081  -0.00275  -0.00195   2.66765
   R19        2.66960  -0.00013   0.00081  -0.00278  -0.00197   2.66763
   R20        2.06983   0.00013  -0.00002   0.00043   0.00041   2.07024
   R21        2.05682   0.00015   0.00002   0.00037   0.00038   2.05720
   R22        2.06987   0.00013  -0.00002   0.00042   0.00040   2.07027
   R23        2.06983   0.00013  -0.00002   0.00041   0.00040   2.07022
   R24        2.05682   0.00016   0.00002   0.00037   0.00038   2.05720
   R25        2.06987   0.00013  -0.00002   0.00042   0.00040   2.07027
    A1        1.91109   0.00051  -0.00023   0.00261   0.00237   1.91347
    A2        2.22964  -0.00049   0.00016  -0.00248  -0.00234   2.22730
    A3        2.14215  -0.00002   0.00008  -0.00043  -0.00037   2.14178
    A4        1.99359  -0.00108   0.00006  -0.00362  -0.00356   1.99003
    A5        2.08760   0.00047  -0.00013   0.00186   0.00173   2.08933
    A6        2.20195   0.00061   0.00007   0.00178   0.00185   2.20380
    A7        1.95098  -0.00014   0.00023  -0.00076  -0.00054   1.95044
    A8        2.17602   0.00030  -0.00010   0.00175   0.00164   2.17766
    A9        2.15618  -0.00016  -0.00012  -0.00097  -0.00110   2.15508
   A10        1.96327   0.00013  -0.00007   0.00058   0.00050   1.96377
   A11        2.22858  -0.00027   0.00011  -0.00173  -0.00161   2.22697
   A12        2.09130   0.00014  -0.00004   0.00113   0.00110   2.09240
   A13        1.60583   0.00058   0.00001   0.00122   0.00122   1.60705
   A14        2.22977  -0.00072   0.00015  -0.00324  -0.00308   2.22669
   A15        2.14228   0.00021   0.00007   0.00054   0.00062   2.14290
   A16        1.91112   0.00051  -0.00023   0.00271   0.00246   1.91359
   A17        1.99354  -0.00106   0.00006  -0.00357  -0.00352   1.99002
   A18        2.08762   0.00040  -0.00013   0.00162   0.00150   2.08912
   A19        2.20197   0.00065   0.00007   0.00198   0.00205   2.20402
   A20        1.60577   0.00056   0.00002   0.00114   0.00112   1.60689
   A21        1.95098  -0.00016   0.00023  -0.00081  -0.00061   1.95037
   A22        2.17602   0.00031  -0.00010   0.00175   0.00164   2.17767
   A23        2.15618  -0.00015  -0.00012  -0.00094  -0.00106   2.15512
   A24        1.96326   0.00015  -0.00007   0.00074   0.00064   1.96390
   A25        2.09128   0.00012  -0.00004   0.00109   0.00106   2.09234
   A26        2.22856  -0.00028   0.00011  -0.00176  -0.00164   2.22692
   A27        2.04300   0.00307   0.00079   0.00924   0.01003   2.05303
   A28        2.04300   0.00305   0.00079   0.00917   0.00996   2.05296
   A29        1.93854   0.00043   0.00015   0.00209   0.00223   1.94077
   A30        1.84828   0.00078   0.00007   0.00439   0.00445   1.85273
   A31        1.93906   0.00035   0.00012   0.00171   0.00183   1.94089
   A32        1.91064  -0.00059  -0.00011  -0.00321  -0.00333   1.90731
   A33        1.91516  -0.00040  -0.00010  -0.00199  -0.00210   1.91306
   A34        1.91092  -0.00056  -0.00012  -0.00295  -0.00308   1.90783
   A35        1.93854   0.00043   0.00015   0.00209   0.00224   1.94078
   A36        1.84828   0.00078   0.00007   0.00440   0.00447   1.85275
   A37        1.93906   0.00034   0.00012   0.00166   0.00178   1.94083
   A38        1.91064  -0.00059  -0.00011  -0.00323  -0.00334   1.90729
   A39        1.91516  -0.00040  -0.00010  -0.00197  -0.00208   1.91308
   A40        1.91091  -0.00055  -0.00012  -0.00292  -0.00305   1.90786
    D1        0.00310  -0.00009  -0.00015   0.00367   0.00352   0.00662
    D2       -3.12859  -0.00015  -0.00062   0.00145   0.00082  -3.12777
    D3        3.11870   0.00006   0.00110  -0.00958  -0.00848   3.11021
    D4       -0.01299  -0.00001   0.00063  -0.01181  -0.01118  -0.02418
    D5        0.00055   0.00002  -0.00003  -0.00598  -0.00602  -0.00547
    D6       -3.11661  -0.00011  -0.00120   0.00652   0.00532  -3.11128
[...]
       Virtual   (A) (A) (A) (A) (A) (A) (A) (A) (A) (A) (A) (A)
                 (A) (A) (A) (A) (A) (A) (A) (A) (A) (A) (A) (A)
                 (A) (A) (A) (A) (A) (A) (A) (A) (A) (A) (A) (A)
                 (A) (A) (A) (A) (A) (A) (A) (A) (A) (A) (A) (A)
                 (A) (A) (A) (A) (A) (A) (A) (A) (A) (A) (A) (A)
                 (A) (A) (A) (A) (A) (A) (A) (A) (A) (A) (A) (A)
                 (A) (A) (A) (A) (A) (A) (A) (A) (A) (A) (A) (A)
                 (A) (A) (A) (A) (A) (A) (A) (A) (A) (A) (A) (A)
                 (A) (A) (A) (A) (A) (A) (A) (A) (A) (A) (A) (A)
                 (A) (A) (A) (A) (A) (A) (A) (A) (A) (A) (A) (A)
                 (A) (A) (A) (A) (A) (A) (A) (A) (A) (A) (A) (A)
                 (A) (A) (A) (A) (A) (A) (A) (A) (A) (A) (A) (A)
                 (A) (A) (A) (A) (A) (A) (A) (A) (A) (A) (A) (A)
                 (A) (A) (A) (A) (A) (A) (A) (A) (A) (A) (A) (A)
                 (A) (A) (A) (A) (A) (A) (A) (A) (A) (A) (A) (A)
                 (A) (A) (A) (A) (A) (A) (A) (A) (A) (A) (A) (A)
                 (A) (A) (A) (A) (A) (A) (A) (A) (A) (A) (A) (A)
                 (A) (A) (A) (A) (A) (A) (A) (A) (A) (A) (A) (A)
                 (A) (A) (A) (A) (A) (A) (A) (A) (A) (A) (A) (A)
                 (A) (A) (A) (A) (A) (A) (A) (A) (A) (A) (A) (A)
                 (A) (A) (A) (A) (A) (A) (A) (A) (A) (A) (A) (A)
                 (A) (A) (A) (A) (A) (A) (A) (A) (A) (A) (A) (A)
                 (A) (A) (A) (A) (A) (A) (A) (A) (A) (A) (A) (A)
                 (A) (A) (A) (A) (A) (A) (A) (A) (A) (A) (A) (A)
                 (A) (A) (A) (A) (A) (A) (A) (A) (A) (A) (A) (A)
                 (A) (A) (A) (A) (A) (A) (A) (A) (A) (A) (A) (A)
                 (A) (A) (A) (A) (A) (A) (A) (A) (A) (A) (A)
 The electronic state is 1-A.
 Alpha  occ. eigenvalues --  -89.03805 -89.03801 -19.28167 -19.28164 -10.34415
 Alpha  occ. eigenvalues --  -10.34410 -10.33931 -10.33927 -10.31545 -10.31509
 Alpha  occ. eigenvalues --  -10.30908 -10.30907 -10.28891 -10.28891  -8.07831
 Alpha  occ. eigenvalues --   -8.07828  -6.02673  -6.02670  -6.02278  -6.02275
 Alpha  occ. eigenvalues --   -6.01921  -6.01918  -1.17904  -1.17825  -0.99286
 Alpha  occ. eigenvalues --   -0.97492  -0.87153  -0.85337  -0.83832  -0.81512
 Alpha  occ. eigenvalues --   -0.78950  -0.76901  -0.68819  -0.67492  -0.64228
 Alpha  occ. eigenvalues --   -0.64223  -0.62721  -0.57152  -0.56674  -0.56356
 Alpha  occ. eigenvalues --   -0.55928  -0.54247  -0.52797  -0.52439  -0.49575
 Alpha  occ. eigenvalues --   -0.49405  -0.48699  -0.46645  -0.45529  -0.44417
 Alpha  occ. eigenvalues --   -0.43245  -0.41663  -0.40893  -0.40550  -0.40503
 Alpha  occ. eigenvalues --   -0.35244  -0.31124  -0.30834  -0.25241
 Alpha virt. eigenvalues --    0.02756   0.05921   0.06355   0.06869   0.07704
 Alpha virt. eigenvalues --    0.07781   0.08143   0.08544   0.09396   0.09420
 Alpha virt. eigenvalues --    0.09874   0.10619   0.11560   0.11599   0.11850
 Alpha virt. eigenvalues --    0.12448   0.12482   0.12871   0.13729   0.13834
 Alpha virt. eigenvalues --    0.14135   0.15134   0.15465   0.15921   0.16360
 Alpha virt. eigenvalues --    0.17222   0.18009   0.18247   0.18354   0.18941
 Alpha virt. eigenvalues --    0.19607   0.20089   0.20380   0.20439   0.21386
 Alpha virt. eigenvalues --    0.21631   0.22035   0.22471   0.22785   0.23969
 Alpha virt. eigenvalues --    0.24246   0.24559   0.24922   0.25288   0.25533
 Alpha virt. eigenvalues --    0.25987   0.26057   0.26551   0.27219   0.27403
 Alpha virt. eigenvalues --    0.27628   0.27660   0.28264   0.28514   0.29511
 Alpha virt. eigenvalues --    0.29973   0.30229   0.31031   0.32044   0.32193
 Alpha virt. eigenvalues --    0.32774   0.32952   0.33542   0.34290   0.34761
 Alpha virt. eigenvalues --    0.34936   0.35705   0.37224   0.37592   0.38059
 Alpha virt. eigenvalues --    0.38566   0.39761   0.41792   0.42486   0.42811
 Alpha virt. eigenvalues --    0.43090   0.43715   0.44247   0.44522   0.46118
 Alpha virt. eigenvalues --    0.47212   0.50333   0.50352   0.51324   0.52034
 Alpha virt. eigenvalues --    0.53245   0.53303   0.54693   0.55127   0.57664
 Alpha virt. eigenvalues --    0.57682   0.58432   0.59427   0.61218   0.61550
 Alpha virt. eigenvalues --    0.64092   0.64225   0.65001   0.65075   0.66613
 Alpha virt. eigenvalues --    0.66799   0.67064   0.69303   0.70378   0.70512
 Alpha virt. eigenvalues --    0.71117   0.71819   0.73627   0.73671   0.74225
 Alpha virt. eigenvalues --    0.74823   0.75766   0.77012   0.79591   0.80355
 Alpha virt. eigenvalues --    0.80491   0.81967   0.82819   0.83096   0.84122
 Alpha virt. eigenvalues --    0.84670   0.85316   0.86534   0.87110   0.87213
 Alpha virt. eigenvalues --    0.87507   0.90343   0.91086   0.91762   0.92541
 Alpha virt. eigenvalues --    0.94051   0.95229   0.95403   0.99195   0.99745
 Alpha virt. eigenvalues --    1.00285   1.00667   1.04587   1.05760   1.06192
 Alpha virt. eigenvalues --    1.08087   1.08751   1.09134   1.10090   1.10828
 Alpha virt. eigenvalues --    1.11195   1.13748   1.13839   1.14556   1.15975
 Alpha virt. eigenvalues --    1.16375   1.16660   1.17323   1.17476   1.19646
 Alpha virt. eigenvalues --    1.21255   1.25721   1.27477   1.30707   1.32106
 Alpha virt. eigenvalues --    1.34133   1.35374   1.40170   1.41367   1.42629
 Alpha virt. eigenvalues --    1.45419   1.45834   1.49321   1.49631   1.51975
 Alpha virt. eigenvalues --    1.51996   1.52916   1.54616   1.54933   1.57044
 Alpha virt. eigenvalues --    1.62452   1.63363   1.63594   1.64468   1.65167
 Alpha virt. eigenvalues --    1.69974   1.70081   1.71335   1.71837   1.73374
 Alpha virt. eigenvalues --    1.73620   1.74546   1.76872   1.78026   1.79181
 Alpha virt. eigenvalues --    1.79409   1.79677   1.81912   1.85221   1.85939
 Alpha virt. eigenvalues --    1.86767   1.87954   1.88723   1.89870   1.90621
 Alpha virt. eigenvalues --    1.91559   1.93969   1.95657   1.96239   1.97602
 Alpha virt. eigenvalues --    2.01030   2.03865   2.04651   2.08803   2.10226
 Alpha virt. eigenvalues --    2.10781   2.11808   2.13480   2.14385   2.15815
 Alpha virt. eigenvalues --    2.16201   2.17451   2.18592   2.20622   2.21008
 Alpha virt. eigenvalues --    2.22739   2.22965   2.23483   2.25294   2.25738
 Alpha virt. eigenvalues --    2.28651   2.29478   2.30355   2.32918   2.49109
 Alpha virt. eigenvalues --    2.51969   2.53380   2.53457   2.55563   2.56605
 Alpha virt. eigenvalues --    2.57332   2.59897   2.61093   2.61898   2.62398
 Alpha virt. eigenvalues --    2.64297   2.65700   2.67455   2.71199   2.74238
 Alpha virt. eigenvalues --    2.76858   2.78294   2.78742   2.81178   2.83258
 Alpha virt. eigenvalues --    2.84765   2.85670   2.87968   2.88863   2.89987
 Alpha virt. eigenvalues --    2.95809   2.96142   2.97346   3.03481   3.07541
 Alpha virt. eigenvalues --    3.10419   3.11544   3.12767   3.14627   3.14746
 Alpha virt. eigenvalues --    3.18759   3.19246   3.25483   3.27728   3.32344
 Alpha virt. eigenvalues --    3.34225   3.34694   3.35166   3.42073   3.42511
 Alpha virt. eigenvalues --    3.44945   3.46437   3.52085   3.56587   3.58436
 Alpha virt. eigenvalues --    3.62586   3.67183   3.86425   3.87410   3.87562
 Alpha virt. eigenvalues --    3.92650   3.95798   4.11617   4.17683   4.20347
 Alpha virt. eigenvalues --    4.22403   4.25179   4.33715   4.41054   4.70402
 Alpha virt. eigenvalues --    5.13494   5.14171   5.54915   5.55543   5.88865
 Alpha virt. eigenvalues --    5.93261   8.14673   8.15002  17.43348  17.44893
 Alpha virt. eigenvalues --   17.63152  17.65264  17.69066  17.72558  23.66438
 Alpha virt. eigenvalues --   23.86275  23.95547  23.98446  24.04703  24.05331
 Alpha virt. eigenvalues --   24.20243  24.21651  24.30755  24.31213  50.11078
 Alpha virt. eigenvalues --   50.12246 189.39906 189.40366
          Condensed to atoms (all electrons):
               1          2          3          4          5          6
     1  C   12.603537   2.456554  -1.367336  -0.161016  -0.809600   0.013767
     2  C    2.456554  12.948288  -3.196382   1.148886  -0.050437  -0.132371
     3  C   -1.367336  -3.196382  11.071859  -0.570340   0.015664   0.472470
     4  C   -0.161016   1.148886  -0.570340   6.613668  -0.065411   0.005600
     5  S   -0.809600  -0.050437   0.015664  -0.065411  17.418164   0.009452
     6  H    0.013767  -0.132371   0.472470   0.005600   0.009452   0.495843
     7  H    0.025600  -0.051663   0.064779   0.351395  -0.030615  -0.003835
     8  C   -0.935889  -4.205577   0.014963  -0.673415  -0.337839  -0.001415
     9  C   -5.199700  -2.983530   0.420285  -0.469546  -0.046525   0.001596
    10  S   -0.518962  -0.205097  -0.090502   0.088863   0.089070  -0.001380
    11  C    0.209615   0.429765  -0.117152   0.026231  -0.060094   0.000009
    12  C   -0.576645  -0.366723   0.023590  -0.036772   0.091909   0.000085
    13  H    0.000128   0.001818   0.000007   0.000095  -0.001475   0.000000
    14  H    0.004472   0.004495   0.000216   0.000010  -0.000662   0.000000
    15  O   -0.151163   0.337436  -0.102970   0.031880   0.045795  -0.008866
    16  O   -0.259362  -0.075078  -0.005008   0.001624  -0.019079   0.000027
    17  C   -0.200913  -0.077870   0.005720  -0.000459  -0.015034  -0.000009
    18  H    0.003912   0.000784  -0.000084  -0.000513  -0.002241   0.000000
    19  H    0.004481   0.000261  -0.000024   0.000590   0.000281   0.000000
    20  H   -0.014360  -0.000763   0.000267  -0.000358  -0.002117   0.000000
    21  C    0.073561   0.114561  -0.263228  -0.045885   0.065087  -0.002819
    22  H   -0.006231  -0.041037   0.044540  -0.004567   0.000716  -0.000661
    23  H   -0.003072   0.028826  -0.001200   0.003502  -0.000982   0.000240
    24  H   -0.007443  -0.013267   0.021792   0.004511  -0.000867  -0.000466
               7          8          9         10         11         12
     1  C    0.025600  -0.935889  -5.199700  -0.518962   0.209615  -0.576645
     2  C   -0.051663  -4.205577  -2.983530  -0.205097   0.429765  -0.366723
     3  C    0.064779   0.014963   0.420285  -0.090502  -0.117152   0.023590
     4  C    0.351395  -0.673415  -0.469546   0.088863   0.026231  -0.036772
     5  S   -0.030615  -0.337839  -0.046525   0.089070  -0.060094   0.091909
     6  H   -0.003835  -0.001415   0.001596  -0.001380   0.000009   0.000085
     7  H    0.453634   0.003458   0.004501  -0.000646   0.000195   0.000011
     8  C    0.003458  12.500866   1.756210  -0.756976  -1.219735  -0.293514
     9  C    0.004501   1.756210  14.770515   0.199535  -3.614093   1.212488
    10  S   -0.000646  -0.756976   0.199535  17.445801   0.013196  -0.026427
    11  C    0.000195  -1.219735  -3.614093   0.013196  11.137542  -0.594396
    12  C    0.000011  -0.293514   1.212488  -0.026427  -0.594396   6.485889
    13  H    0.000000   0.016818  -0.137833   0.009691   0.475941   0.002919
    14  H    0.000000   0.031770  -0.058141  -0.031449   0.068248   0.348039
    15  O   -0.000273  -0.250359  -0.080388  -0.014505  -0.005497   0.003147
    16  O   -0.000020  -0.173630   0.369969   0.044401  -0.099925   0.035170
    17  C   -0.000044   0.033229   0.205486   0.068718  -0.278617  -0.038201
    18  H    0.000000  -0.004142  -0.043494   0.000925   0.045213  -0.004961
    19  H   -0.000001  -0.002321   0.027203  -0.000966  -0.001682   0.003323
    20  H    0.000000  -0.013820  -0.007510  -0.000910   0.022079   0.005385
    21  C    0.000624  -0.154272  -0.068578  -0.017981   0.006903   0.001418
    22  H    0.000025   0.003808   0.001156  -0.002347  -0.000132  -0.000454
    23  H   -0.000000   0.002733  -0.000044   0.000264  -0.000035   0.000577
    24  H    0.000026  -0.012363  -0.001052  -0.002096   0.000302  -0.000395
              13         14         15         16         17         18
     1  C    0.000128   0.004472  -0.151163  -0.259362  -0.200913   0.003912
     2  C    0.001818   0.004495   0.337436  -0.075078  -0.077870   0.000784
     3  C    0.000007   0.000216  -0.102970  -0.005008   0.005720  -0.000084
     4  C    0.000095   0.000010   0.031880   0.001624  -0.000459  -0.000513
     5  S   -0.001475  -0.000662   0.045795  -0.019079  -0.015034  -0.002241
     6  H    0.000000   0.000000  -0.008866   0.000027  -0.000009   0.000000
     7  H    0.000000   0.000000  -0.000273  -0.000020  -0.000044   0.000000
     8  C    0.016818   0.031770  -0.250359  -0.173630   0.033229  -0.004142
     9  C   -0.137833  -0.058141  -0.080388   0.369969   0.205486  -0.043494
    10  S    0.009691  -0.031449  -0.014505   0.044401   0.068718   0.000925
    11  C    0.475941   0.068248  -0.005497  -0.099925  -0.278617   0.045213
    12  C    0.002919   0.348039   0.003147   0.035170  -0.038201  -0.004961
    13  H    0.495804  -0.003852   0.000028  -0.008831  -0.003013  -0.000601
    14  H   -0.003852   0.453659  -0.000023  -0.000268   0.000554   0.000027
    15  O    0.000028  -0.000023   8.262323  -0.001518  -0.000669   0.000001
    16  O   -0.008831  -0.000268  -0.001518   8.255741   0.189934  -0.046812
    17  C   -0.003013   0.000554  -0.000669   0.189934   5.165967   0.421636
    18  H   -0.000601   0.000027   0.000001  -0.046812   0.421636   0.548308
    19  H    0.000239  -0.000000  -0.000003  -0.059084   0.400754  -0.022850
    20  H   -0.000543   0.000023  -0.000004  -0.041805   0.424810  -0.047722
    21  C   -0.000009  -0.000055   0.190170  -0.000682  -0.001385   0.000004
    22  H    0.000000   0.000000  -0.046634   0.000002   0.000005  -0.000000
    23  H    0.000000  -0.000001  -0.058924  -0.000003  -0.000000  -0.000000
    24  H    0.000000   0.000000  -0.042295  -0.000005  -0.000005   0.000000
              19         20         21         22         23         24
     1  C    0.004481  -0.014360   0.073561  -0.006231  -0.003072  -0.007443
     2  C    0.000261  -0.000763   0.114561  -0.041037   0.028826  -0.013267
     3  C   -0.000024   0.000267  -0.263228   0.044540  -0.001200   0.021792
     4  C    0.000590  -0.000358  -0.045885  -0.004567   0.003502   0.004511
     5  S    0.000281  -0.002117   0.065087   0.000716  -0.000982  -0.000867
     6  H    0.000000   0.000000  -0.002819  -0.000661   0.000240  -0.000466
     7  H   -0.000001   0.000000   0.000624   0.000025  -0.000000   0.000026
     8  C   -0.002321  -0.013820  -0.154272   0.003808   0.002733  -0.012363
     9  C    0.027203  -0.007510  -0.068578   0.001156  -0.000044  -0.001052
    10  S   -0.000966  -0.000910  -0.017981  -0.002347   0.000264  -0.002096
    11  C   -0.001682   0.022079   0.006903  -0.000132  -0.000035   0.000302
    12  C    0.003323   0.005385   0.001418  -0.000454   0.000577  -0.000395
    13  H    0.000239  -0.000543  -0.000009   0.000000   0.000000   0.000000
    14  H   -0.000000   0.000023  -0.000055   0.000000  -0.000001   0.000000
    15  O   -0.000003  -0.000004   0.190170  -0.046634  -0.058924  -0.042295
    16  O   -0.059084  -0.041805  -0.000682   0.000002  -0.000003  -0.000005
    17  C    0.400754   0.424810  -0.001385   0.000005  -0.000000  -0.000005
    18  H   -0.022850  -0.047722   0.000004  -0.000000  -0.000000   0.000000
    19  H    0.495464  -0.023267  -0.000000  -0.000000  -0.000000   0.000000
    20  H   -0.023267   0.543150  -0.000003   0.000000   0.000000  -0.000000
    21  C   -0.000000  -0.000003   5.153785   0.421996   0.401302   0.423076
    22  H   -0.000000   0.000000   0.421996   0.548190  -0.022819  -0.047739
    23  H   -0.000000   0.000000   0.401302  -0.022819   0.495383  -0.023201
    24  H    0.000000  -0.000000   0.423076  -0.047739  -0.023201   0.543232
 Mulliken charges:
               1
     1  C    0.816066
     2  C   -0.071878
     3  C   -0.441926
     4  C   -0.248572
     5  S   -0.293159
     6  H    0.152736
     7  H    0.182848
     8  C    0.671412
     9  C   -0.258510
    10  S   -0.290221
    11  C   -0.443884
    12  C   -0.275463
    13  H    0.152668
    14  H    0.182939
    15  O   -0.106689
    16  O   -0.105756
    17  C   -0.300595
    18  H    0.152612
    19  H    0.177604
    20  H    0.157467
    21  C   -0.297589
    22  H    0.152183
    23  H    0.177454
    24  H    0.158254
 Sum of Mulliken charges =  -0.00000
 Mulliken charges with hydrogens summed into heavy atoms:
               1
     1  C    0.816066
     2  C   -0.071878
     3  C   -0.289190
     4  C   -0.065724
     5  S   -0.293159
     8  C    0.671412
     9  C   -0.258510
    10  S   -0.290221
    11  C   -0.291216
    12  C   -0.092524
    15  O   -0.106689
    16  O   -0.105756
    17  C    0.187088
    21  C    0.190302
 Electronic spatial extent (au):  <R**2>=           3474.2696
 Charge=             -0.0000 electrons
 Dipole moment (field-independent basis, Debye):
    X=             -0.0013    Y=              0.0044    Z=              0.1516  Tot=              0.1517
 Quadrupole moment (field-independent basis, Debye-Ang):
   XX=            -70.0964   YY=            -88.9582   ZZ=           -101.2651
   XY=             -2.8477   XZ=             -0.0001   YZ=              0.0348
 Traceless Quadrupole moment (field-independent basis, Debye-Ang):
   XX=             16.6768   YY=             -2.1850   ZZ=            -14.4919
   XY=             -2.8477   XZ=             -0.0001   YZ=              0.0348
 Octapole moment (field-independent basis, Debye-Ang**2):
  XXX=              0.0191  YYY=              0.0556  ZZZ=              2.4413  XYY=             -0.0016
  XXY=              0.0149  XXZ=              4.9434  XZZ=             -0.0045  YZZ=              0.0001
  YYZ=             -0.9645  XYZ=             -2.8780
 Hexadecapole moment (field-independent basis, Debye-Ang**3):
 XXXX=          -2468.3387 YYYY=          -1544.7760 ZZZZ=           -141.8980 XXXY=           -115.4937
 XXXZ=              0.1257 YYYX=              2.1781 YYYZ=              0.3415 ZZZX=             -0.0514
 ZZZY=              0.0557 XXYY=           -639.9415 XXZZ=           -524.4063 YYZZ=           -330.2622
 XXYZ=              0.0985 YYXZ=              0.0405 ZZXY=            -30.8036
 N-N= 1.111294211475D+03 E-N=-5.370584182011D+03  KE= 1.330755876614D+03
 1\1\GINC-CX1-141-15-4\FOpt\RwB97XD\6-311+G(d,p)\C10H10O2S2\NS5018\06-F
 eb-2020\0\\# opt=modredundant wb97xd/6-311+g(d,p) geom=connectivity\\T
 itle Card Required\\0,1\C,-0.5973657729,-0.4110103542,-0.0563807942\C,
 -0.6673636117,-1.7852515935,-0.1207537607\C,-1.9931219962,-2.300238457
 5,-0.0757950063\C,-2.9169628063,-1.3056547987,0.030573472\S,-2.2030937
 817,0.2516139044,0.0715596029\H,-2.2484850987,-3.3491512443,-0.1221502
 785\H,-3.990640955,-1.4076468802,0.0740531762\C,0.5956241308,0.4122725
 897,-0.0397853451\C,0.6670706547,1.7857863096,-0.1171370242\S,2.201713
 7477,-0.2522366708,0.0717968358\C,1.9933064163,2.2997872259,-0.0765289
 758\C,2.9166723423,1.3044320565,0.0269650433\H,2.2493810669,3.34846293
 9,-0.1243378519\H,3.9903814118,1.4057226201,0.071194727\O,0.4718186971
 ,-2.5142109221,-0.2094854785\O,-0.4714918254,2.5147286434,-0.213570096
 9\C,-0.3456964291,3.9191871905,-0.2625901293\H,0.2254276296,4.23643753
 19,-1.1422717116\H,-1.3586589815,4.3121272961,-0.3316913056\H,0.132077
 8486,4.307089407,0.6440088837\C,0.3462478764,-3.9185261678,-0.26301096
 36\H,-0.2216325137,-4.2330931528,-1.1457410983\H,1.3594828341,-4.31123
 04442,-0.3293854559\H,-0.1348311842,-4.3091942379,0.6406507854\\Versio
 n=ES64L-G16RevA.03\State=1-A\HF=-1333.8268893\RMSD=8.839e-09\RMSF=2.97
 8e-04\Dipole=0.0014449,-0.0011128,-0.0596595\Quadrupole=-1.2359462,12.
 0102828,-10.7743366,3.1272996,-0.0241617,0.0093393\PG=C01 [X(C10H10O2S
 2)]\\@


 SLITHERY-DITHERY
 FRIEDRICH A. KEKULE
 DREAMT ON A BUS OF THINGS
 FREUD WOULD THINK KEEN.
 MOST OF THE TIME THEY WERE
 HERPETOLOGICAL
 BITING THEIR TAILS IN THE
 SHAPE OF BENZENE.
 Job cpu time:       0 days  4 hours 10 minutes 10.1 seconds.
 Elapsed time:       0 days  1 hours  2 minutes 34.0 seconds.
 File lengths (MBytes):  RWF=     93 Int=      0 D2E=      0 Chk=     12 Scr=      1
 Normal termination of Gaussian 16 at Thu Feb  6 20:45:39 2020.
