 Entering Gaussian System, Link 0=g16
 Input=NDI_-120.gjf
 Output=NDI_-120.log
 Initial command:
 /apps/gaussian/g16-c01-avx/g16/l1.exe "/tmp/pbs.4768676[55].pbs/Gau-1321049.inp" -scrdir="/tmp/pbs.4768676[55].pbs/"
 Entering Link 1 = /apps/gaussian/g16-c01-avx/g16/l1.exe PID=   1321050.
  
 Copyright (c) 1988-2019, Gaussian, Inc.  All Rights Reserved.
  
 This is part of the Gaussian(R) 16 program.  It is based on
 the Gaussian(R) 09 system (copyright 2009, Gaussian, Inc.),
 the Gaussian(R) 03 system (copyright 2003, Gaussian, Inc.),
 the Gaussian(R) 98 system (copyright 1998, Gaussian, Inc.),
 the Gaussian(R) 94 system (copyright 1995, Gaussian, Inc.),
 the Gaussian 92(TM) system (copyright 1992, Gaussian, Inc.),
 the Gaussian 90(TM) system (copyright 1990, Gaussian, Inc.),
 the Gaussian 88(TM) system (copyright 1988, Gaussian, Inc.),
 the Gaussian 86(TM) system (copyright 1986, Carnegie Mellon
 University), and the Gaussian 82(TM) system (copyright 1983,
 Carnegie Mellon University). Gaussian is a federally registered
 trademark of Gaussian, Inc.
  
 This software contains proprietary and confidential information,
 including trade secrets, belonging to Gaussian, Inc.
  
 This software is provided under written license and may be
 used, copied, transmitted, or stored only in accord with that
 written license.
  
 The following legend is applicable only to US Government
 contracts under FAR:
  
                    RESTRICTED RIGHTS LEGEND
  
 Use, reproduction and disclosure by the US Government is
 subject to restrictions as set forth in subparagraphs (a)
 and (c) of the Commercial Computer Software - Restricted
 Rights clause in FAR 52.227-19.
  
 Gaussian, Inc.
 340 Quinnipiac St., Bldg. 40, Wallingford CT 06492
  
  
 ---------------------------------------------------------------
 Warning -- This program may not be used in any manner that
 competes with the business of Gaussian, Inc. or will provide
 assistance to any competitor of Gaussian, Inc.  The licensee
 of this program is prohibited from giving any competitor of
 Gaussian, Inc. access to this program.  By using this program,
 the user acknowledges that Gaussian, Inc. is engaged in the
 business of creating and licensing software in the field of
 computational chemistry and represents and warrants to the
 licensee that it is not a competitor of Gaussian, Inc. and that
 it will not use this program in any manner prohibited above.
 ---------------------------------------------------------------
  

 Cite this work as:
 Gaussian 16, Revision C.01,
 M. J. Frisch, G. W. Trucks, H. B. Schlegel, G. E. Scuseria, 
 M. A. Robb, J. R. Cheeseman, G. Scalmani, V. Barone, 
 G. A. Petersson, H. Nakatsuji, X. Li, M. Caricato, A. V. Marenich, 
 J. Bloino, B. G. Janesko, R. Gomperts, B. Mennucci, H. P. Hratchian, 
 J. V. Ortiz, A. F. Izmaylov, J. L. Sonnenberg, D. Williams-Young, 
 F. Ding, F. Lipparini, F. Egidi, J. Goings, B. Peng, A. Petrone, 
 T. Henderson, D. Ranasinghe, V. G. Zakrzewski, J. Gao, N. Rega, 
 G. Zheng, W. Liang, M. Hada, M. Ehara, K. Toyota, R. Fukuda, 
 J. Hasegawa, M. Ishida, T. Nakajima, Y. Honda, O. Kitao, H. Nakai, 
 T. Vreven, K. Throssell, J. A. Montgomery, Jr., J. E. Peralta, 
 F. Ogliaro, M. J. Bearpark, J. J. Heyd, E. N. Brothers, K. N. Kudin, 
 V. N. Staroverov, T. A. Keith, R. Kobayashi, J. Normand, 
 K. Raghavachari, A. P. Rendell, J. C. Burant, S. S. Iyengar, 
 J. Tomasi, M. Cossi, J. M. Millam, M. Klene, C. Adamo, R. Cammi, 
 J. W. Ochterski, R. L. Martin, K. Morokuma, O. Farkas, 
 J. B. Foresman, and D. J. Fox, Gaussian, Inc., Wallingford CT, 2019.
 
 ******************************************
 Gaussian 16:  ES64L-G16RevC.01  3-Jul-2019
                28-Oct-2021 
 ******************************************
 %mem=100GB
 %nprocshared=16
 Will use up to   16 processors via shared memory.
 ---------------------------------------------------------------
 # opt=modredundant b3lyp/6-311+g(d,p) scrf=(pcm, solvent=water)
 ---------------------------------------------------------------
 1/18=120,19=15,26=3,38=1/1,3;
 2/9=110,12=2,17=6,18=5,40=1/2;
 3/5=4,6=6,7=111,11=2,25=1,30=1,70=2201,71=1,72=1,74=-5/1,2,3;
 4//1;
 5/5=2,38=5,53=1/2;
 6/7=2,8=2,9=2,10=2,28=1/1;
 7//1,2,3,16;
 1/18=20,19=15,26=3/3(2);
 2/9=110/2;
 99//99;
 2/9=110/2;
 3/5=4,6=6,7=111,11=2,25=1,30=1,70=2205,71=1,72=1,74=-5/1,2,3;
 4/5=5,16=3,69=1/1;
 5/5=2,38=5,53=1/2;
 7//1,2,3,16;
 1/18=20,19=15,26=3/3(-5);
 2/9=110/2;
 6/7=2,8=2,9=2,10=2,19=2,28=1/1;
 99/9=1/99;
 ------------
 NDI_-120.pdb
 ------------
 Symbolic Z-matrix:
 Charge = -2 Multiplicity = 1
 C                    -2.563    -2.994    -0.409 
 C                    -2.257    -1.551    -0.224 
 C                    -3.301    -0.607    -0.083 
 C                    -4.65     -1.024    -0.115 
 C                    -4.992    -2.459    -0.304 
 C                    -0.949    -1.137    -0.215 
 C                    -2.962     0.764     0.102 
 C                    -1.595     1.188     0.123 
 C                    -0.561     0.232    -0.072 
 C                    -1.328     2.616     0.446 
 C                    -3.777     3.115     0.508 
 C                    -4.035     1.679     0.268 
 C                    -5.356     1.252     0.23 
 C                    -5.672    -0.098     0.036 
 H                    -6.699    -0.442     0.008 
 H                    -6.133     1.997     0.361 
 H                    -0.19     -1.895    -0.369 
 N                    -2.432     3.476     0.608 
 N                    -3.916    -3.353    -0.438 
 O                    -1.695    -3.847    -0.532 
 O                    -6.149    -2.85     -0.34 
 O                    -4.676     3.938     0.629 
 O                    -0.212     3.097     0.596 
 C                    -2.111     4.875     0.912 
 H                    -1.54      4.931     1.84 
 H                    -1.5       5.299     0.111 
 H                    -3.05      5.414     1.003 
 C                    -4.206    -4.779    -0.625 
 H                    -3.759    -5.126    -1.559 
 H                    -3.775    -5.355     0.196 
 H                    -5.286    -4.897    -0.649 
 C                     0.876     0.482    -0.178 
 C                     1.766     0.219    -1.201 
 S                     1.74      1.086     1.236 
 C                     3.106     0.497    -0.866 
 H                     1.456    -0.156    -2.163 
 C                     3.288     0.992     0.429 
 O                     4.192     0.33     -1.668 
 C                     4.517     1.406     1.046 
 C                     3.957    -0.039    -3.024 
 C                     4.699     1.877     2.344 
 S                     6.068     1.381     0.211 
 H                     4.934    -0.04     -3.508 
 H                     3.517    -1.041    -3.092 
 H                     3.298     0.683    -3.523 
 C                     6.048     2.209     2.66 
 O                     3.625     1.982     3.17 
 C                     6.889     1.99      1.602 
 H                     6.377     2.589     3.617 
 C                     3.848     2.433     4.501 
 H                     7.957     2.154     1.567 
 H                     4.257     3.451     4.513 
 H                     2.874     2.429     4.988 
 H                     4.528     1.762     5.04 
 
 The following ModRedundant input section has been read:
 D       8       9      32      33 F                                           
 

 GradGradGradGradGradGradGradGradGradGradGradGradGradGradGradGradGradGrad
 Berny optimization.
 Initialization pass.
                           ----------------------------
                           !    Initial Parameters    !
                           ! (Angstroms and Degrees)  !
 --------------------------                            --------------------------
 ! Name  Definition              Value          Derivative Info.                !
 --------------------------------------------------------------------------------
 ! R1    R(1,2)                  1.4866         estimate D2E/DX2                !
 ! R2    R(1,19)                 1.4001         estimate D2E/DX2                !
 ! R3    R(1,20)                 1.2232         estimate D2E/DX2                !
 ! R4    R(2,3)                  1.4146         estimate D2E/DX2                !
 ! R5    R(2,6)                  1.372          estimate D2E/DX2                !
 ! R6    R(3,4)                  1.4123         estimate D2E/DX2                !
 ! R7    R(3,7)                  1.4244         estimate D2E/DX2                !
 ! R8    R(4,5)                  1.4872         estimate D2E/DX2                !
 ! R9    R(4,14)                 1.3874         estimate D2E/DX2                !
 ! R10   R(5,19)                 1.4053         estimate D2E/DX2                !
 ! R11   R(5,21)                 1.2218         estimate D2E/DX2                !
 ! R12   R(6,9)                  1.4301         estimate D2E/DX2                !
 ! R13   R(6,17)                 1.0837         estimate D2E/DX2                !
 ! R14   R(7,8)                  1.4314         estimate D2E/DX2                !
 ! R15   R(7,12)                 1.4199         estimate D2E/DX2                !
 ! R16   R(8,9)                  1.4217         estimate D2E/DX2                !
 ! R17   R(8,10)                 1.4882         estimate D2E/DX2                !
 ! R18   R(9,32)                 1.4624         estimate D2E/DX2                !
 ! R19   R(10,18)                1.4088         estimate D2E/DX2                !
 ! R20   R(10,23)                1.2245         estimate D2E/DX2                !
 ! R21   R(11,12)                1.4786         estimate D2E/DX2                !
 ! R22   R(11,18)                1.3962         estimate D2E/DX2                !
 ! R23   R(11,22)                1.2248         estimate D2E/DX2                !
 ! R24   R(12,13)                1.3888         estimate D2E/DX2                !
 ! R25   R(13,14)                1.4            estimate D2E/DX2                !
 ! R26   R(13,16)                1.0844         estimate D2E/DX2                !
 ! R27   R(14,15)                1.0834         estimate D2E/DX2                !
 ! R28   R(18,24)                1.4672         estimate D2E/DX2                !
 ! R29   R(19,28)                1.4672         estimate D2E/DX2                !
 ! R30   R(24,25)                1.091          estimate D2E/DX2                !
 ! R31   R(24,26)                1.093          estimate D2E/DX2                !
 ! R32   R(24,27)                1.0865         estimate D2E/DX2                !
 ! R33   R(28,29)                1.0921         estimate D2E/DX2                !
 ! R34   R(28,30)                1.0916         estimate D2E/DX2                !
 ! R35   R(28,31)                1.0867         estimate D2E/DX2                !
 ! R36   R(32,33)                1.3812         estimate D2E/DX2                !
 ! R37   R(32,34)                1.7637         estimate D2E/DX2                !
 ! R38   R(33,35)                1.4089         estimate D2E/DX2                !
 ! R39   R(33,36)                1.078          estimate D2E/DX2                !
 ! R40   R(34,37)                1.7483         estimate D2E/DX2                !
 ! R41   R(35,37)                1.3983         estimate D2E/DX2                !
 ! R42   R(35,38)                1.3603         estimate D2E/DX2                !
 ! R43   R(37,39)                1.4361         estimate D2E/DX2                !
 ! R44   R(38,40)                1.4248         estimate D2E/DX2                !
 ! R45   R(39,41)                1.3928         estimate D2E/DX2                !
 ! R46   R(39,42)                1.7617         estimate D2E/DX2                !
 ! R47   R(40,43)                1.0903         estimate D2E/DX2                !
 ! R48   R(40,44)                1.0965         estimate D2E/DX2                !
 ! R49   R(40,45)                1.0975         estimate D2E/DX2                !
 ! R50   R(41,46)                1.4247         estimate D2E/DX2                !
 ! R51   R(41,47)                1.359          estimate D2E/DX2                !
 ! R52   R(42,48)                1.7262         estimate D2E/DX2                !
 ! R53   R(46,48)                1.3692         estimate D2E/DX2                !
 ! R54   R(46,49)                1.081          estimate D2E/DX2                !
 ! R55   R(47,50)                1.4229         estimate D2E/DX2                !
 ! R56   R(48,51)                1.0811         estimate D2E/DX2                !
 ! R57   R(50,52)                1.0972         estimate D2E/DX2                !
 ! R58   R(50,53)                1.089          estimate D2E/DX2                !
 ! R59   R(50,54)                1.0969         estimate D2E/DX2                !
 ! A1    A(2,1,19)             116.767          estimate D2E/DX2                !
 ! A2    A(2,1,20)             122.9113         estimate D2E/DX2                !
 ! A3    A(19,1,20)            120.3217         estimate D2E/DX2                !
 ! A4    A(1,2,3)              120.5473         estimate D2E/DX2                !
 ! A5    A(1,2,6)              119.3369         estimate D2E/DX2                !
 ! A6    A(3,2,6)              120.1056         estimate D2E/DX2                !
 ! A7    A(2,3,4)              120.3743         estimate D2E/DX2                !
 ! A8    A(2,3,7)              118.662          estimate D2E/DX2                !
 ! A9    A(4,3,7)              120.9617         estimate D2E/DX2                !
 ! A10   A(3,4,5)              120.4909         estimate D2E/DX2                !
 ! A11   A(3,4,14)             120.2702         estimate D2E/DX2                !
 ! A12   A(5,4,14)             119.2382         estimate D2E/DX2                !
 ! A13   A(4,5,19)             116.7341         estimate D2E/DX2                !
 ! A14   A(4,5,21)             122.024          estimate D2E/DX2                !
 ! A15   A(19,5,21)            121.2418         estimate D2E/DX2                !
 ! A16   A(2,6,9)              123.2421         estimate D2E/DX2                !
 ! A17   A(2,6,17)             117.1119         estimate D2E/DX2                !
 ! A18   A(9,6,17)             119.589          estimate D2E/DX2                !
 ! A19   A(3,7,8)              120.9519         estimate D2E/DX2                !
 ! A20   A(3,7,12)             117.1037         estimate D2E/DX2                !
 ! A21   A(8,7,12)             121.944          estimate D2E/DX2                !
 ! A22   A(7,8,9)              119.5639         estimate D2E/DX2                !
 ! A23   A(7,8,10)             117.3064         estimate D2E/DX2                !
 ! A24   A(9,8,10)             122.9922         estimate D2E/DX2                !
 ! A25   A(6,9,8)              117.3944         estimate D2E/DX2                !
 ! A26   A(6,9,32)             115.0236         estimate D2E/DX2                !
 ! A27   A(8,9,32)             127.5648         estimate D2E/DX2                !
 ! A28   A(8,10,18)            118.042          estimate D2E/DX2                !
 ! A29   A(8,10,23)            124.5436         estimate D2E/DX2                !
 ! A30   A(18,10,23)           117.4097         estimate D2E/DX2                !
 ! A31   A(12,11,18)           115.5202         estimate D2E/DX2                !
 ! A32   A(12,11,22)           122.7205         estimate D2E/DX2                !
 ! A33   A(18,11,22)           121.7534         estimate D2E/DX2                !
 ! A34   A(7,12,11)            120.8614         estimate D2E/DX2                !
 ! A35   A(7,12,13)            121.162          estimate D2E/DX2                !
 ! A36   A(11,12,13)           117.9699         estimate D2E/DX2                !
 ! A37   A(12,13,14)           120.9948         estimate D2E/DX2                !
 ! A38   A(12,13,16)           117.8401         estimate D2E/DX2                !
 ! A39   A(14,13,16)           121.1642         estimate D2E/DX2                !
 ! A40   A(4,14,13)            119.5003         estimate D2E/DX2                !
 ! A41   A(4,14,15)            118.9169         estimate D2E/DX2                !
 ! A42   A(13,14,15)           121.5811         estimate D2E/DX2                !
 ! A43   A(10,18,11)           126.0753         estimate D2E/DX2                !
 ! A44   A(10,18,24)           115.7508         estimate D2E/DX2                !
 ! A45   A(11,18,24)           118.1737         estimate D2E/DX2                !
 ! A46   A(1,19,5)             125.0856         estimate D2E/DX2                !
 ! A47   A(1,19,28)            116.2868         estimate D2E/DX2                !
 ! A48   A(5,19,28)            118.6276         estimate D2E/DX2                !
 ! A49   A(18,24,25)           109.8574         estimate D2E/DX2                !
 ! A50   A(18,24,26)           109.8979         estimate D2E/DX2                !
 ! A51   A(18,24,27)           107.5355         estimate D2E/DX2                !
 ! A52   A(25,24,26)           108.1108         estimate D2E/DX2                !
 ! A53   A(25,24,27)           110.8301         estimate D2E/DX2                !
 ! A54   A(26,24,27)           110.6124         estimate D2E/DX2                !
 ! A55   A(19,28,29)           109.6906         estimate D2E/DX2                !
 ! A56   A(19,28,30)           109.8136         estimate D2E/DX2                !
 ! A57   A(19,28,31)           107.7461         estimate D2E/DX2                !
 ! A58   A(29,28,30)           108.2991         estimate D2E/DX2                !
 ! A59   A(29,28,31)           110.6959         estimate D2E/DX2                !
 ! A60   A(30,28,31)           110.5924         estimate D2E/DX2                !
 ! A61   A(9,32,33)            130.8652         estimate D2E/DX2                !
 ! A62   A(9,32,34)            118.8022         estimate D2E/DX2                !
 ! A63   A(33,32,34)           110.0805         estimate D2E/DX2                !
 ! A64   A(32,33,35)           113.5253         estimate D2E/DX2                !
 ! A65   A(32,33,36)           122.8108         estimate D2E/DX2                !
 ! A66   A(35,33,36)           123.6624         estimate D2E/DX2                !
 ! A67   A(32,34,37)            92.5949         estimate D2E/DX2                !
 ! A68   A(33,35,37)           114.4468         estimate D2E/DX2                !
 ! A69   A(33,35,38)           126.5036         estimate D2E/DX2                !
 ! A70   A(37,35,38)           119.0496         estimate D2E/DX2                !
 ! A71   A(34,37,35)           109.3473         estimate D2E/DX2                !
 ! A72   A(34,37,39)           122.9511         estimate D2E/DX2                !
 ! A73   A(35,37,39)           127.6854         estimate D2E/DX2                !
 ! A74   A(35,38,40)           117.4651         estimate D2E/DX2                !
 ! A75   A(37,39,41)           127.5683         estimate D2E/DX2                !
 ! A76   A(37,39,42)           123.0727         estimate D2E/DX2                !
 ! A77   A(41,39,42)           109.359          estimate D2E/DX2                !
 ! A78   A(38,40,43)           105.9568         estimate D2E/DX2                !
 ! A79   A(38,40,44)           111.2155         estimate D2E/DX2                !
 ! A80   A(38,40,45)           111.1838         estimate D2E/DX2                !
 ! A81   A(43,40,44)           109.3427         estimate D2E/DX2                !
 ! A82   A(43,40,45)           109.6829         estimate D2E/DX2                !
 ! A83   A(44,40,45)           109.3914         estimate D2E/DX2                !
 ! A84   A(39,41,46)           114.157          estimate D2E/DX2                !
 ! A85   A(39,41,47)           119.2958         estimate D2E/DX2                !
 ! A86   A(46,41,47)           126.5469         estimate D2E/DX2                !
 ! A87   A(39,42,48)            91.8215         estimate D2E/DX2                !
 ! A88   A(41,46,48)           111.8964         estimate D2E/DX2                !
 ! A89   A(41,46,49)           124.5033         estimate D2E/DX2                !
 ! A90   A(48,46,49)           123.6003         estimate D2E/DX2                !
 ! A91   A(41,47,50)           117.9814         estimate D2E/DX2                !
 ! A92   A(42,48,46)           112.7661         estimate D2E/DX2                !
 ! A93   A(42,48,51)           119.8204         estimate D2E/DX2                !
 ! A94   A(46,48,51)           127.4134         estimate D2E/DX2                !
 ! A95   A(47,50,52)           111.2686         estimate D2E/DX2                !
 ! A96   A(47,50,53)           106.0803         estimate D2E/DX2                !
 ! A97   A(47,50,54)           111.2792         estimate D2E/DX2                !
 ! A98   A(52,50,53)           109.3866         estimate D2E/DX2                !
 ! A99   A(52,50,54)           109.3369         estimate D2E/DX2                !
 ! A100  A(53,50,54)           109.4195         estimate D2E/DX2                !
 ! D1    D(19,1,2,3)             0.1578         estimate D2E/DX2                !
 ! D2    D(19,1,2,6)          -178.6792         estimate D2E/DX2                !
 ! D3    D(20,1,2,3)          -179.8231         estimate D2E/DX2                !
 ! D4    D(20,1,2,6)             1.3399         estimate D2E/DX2                !
 ! D5    D(2,1,19,5)            -0.124          estimate D2E/DX2                !
 ! D6    D(2,1,19,28)          179.8267         estimate D2E/DX2                !
 ! D7    D(20,1,19,5)          179.8575         estimate D2E/DX2                !
 ! D8    D(20,1,19,28)          -0.1919         estimate D2E/DX2                !
 ! D9    D(1,2,3,4)              0.0571         estimate D2E/DX2                !
 ! D10   D(1,2,3,7)            179.5453         estimate D2E/DX2                !
 ! D11   D(6,2,3,4)            178.8851         estimate D2E/DX2                !
 ! D12   D(6,2,3,7)             -1.6266         estimate D2E/DX2                !
 ! D13   D(1,2,6,9)            178.625          estimate D2E/DX2                !
 ! D14   D(1,2,6,17)             1.3881         estimate D2E/DX2                !
 ! D15   D(3,2,6,9)             -0.2173         estimate D2E/DX2                !
 ! D16   D(3,2,6,17)          -177.4541         estimate D2E/DX2                !
 ! D17   D(2,3,4,5)             -0.3074         estimate D2E/DX2                !
 ! D18   D(2,3,4,14)           179.3968         estimate D2E/DX2                !
 ! D19   D(7,3,4,5)           -179.7837         estimate D2E/DX2                !
 ! D20   D(7,3,4,14)            -0.0795         estimate D2E/DX2                !
 ! D21   D(2,3,7,8)              1.0523         estimate D2E/DX2                !
 ! D22   D(2,3,7,12)          -178.712          estimate D2E/DX2                !
 ! D23   D(4,3,7,8)           -179.4626         estimate D2E/DX2                !
 ! D24   D(4,3,7,12)             0.7731         estimate D2E/DX2                !
 ! D25   D(3,4,5,19)             0.3343         estimate D2E/DX2                !
 ! D26   D(3,4,5,21)          -179.7799         estimate D2E/DX2                !
 ! D27   D(14,4,5,19)         -179.3729         estimate D2E/DX2                !
 ! D28   D(14,4,5,21)            0.5129         estimate D2E/DX2                !
 ! D29   D(3,4,14,13)           -0.4559         estimate D2E/DX2                !
 ! D30   D(3,4,14,15)         -179.9937         estimate D2E/DX2                !
 ! D31   D(5,4,14,13)          179.252          estimate D2E/DX2                !
 ! D32   D(5,4,14,15)           -0.2858         estimate D2E/DX2                !
 ! D33   D(4,5,19,1)            -0.1141         estimate D2E/DX2                !
 ! D34   D(4,5,19,28)          179.9364         estimate D2E/DX2                !
 ! D35   D(21,5,19,1)          179.9992         estimate D2E/DX2                !
 ! D36   D(21,5,19,28)           0.0496         estimate D2E/DX2                !
 ! D37   D(2,6,9,8)              2.5984         estimate D2E/DX2                !
 ! D38   D(2,6,9,32)          -176.0103         estimate D2E/DX2                !
 ! D39   D(17,6,9,8)           179.77           estimate D2E/DX2                !
 ! D40   D(17,6,9,32)            1.1613         estimate D2E/DX2                !
 ! D41   D(3,7,8,9)              1.3551         estimate D2E/DX2                !
 ! D42   D(3,7,8,10)          -174.5099         estimate D2E/DX2                !
 ! D43   D(12,7,8,9)          -178.8921         estimate D2E/DX2                !
 ! D44   D(12,7,8,10)            5.2428         estimate D2E/DX2                !
 ! D45   D(3,7,12,11)          178.0768         estimate D2E/DX2                !
 ! D46   D(3,7,12,13)           -0.9621         estimate D2E/DX2                !
 ! D47   D(8,7,12,11)           -1.685          estimate D2E/DX2                !
 ! D48   D(8,7,12,13)          179.2761         estimate D2E/DX2                !
 ! D49   D(7,8,9,6)             -3.0809         estimate D2E/DX2                !
 ! D50   D(7,8,9,32)           175.3285         estimate D2E/DX2                !
 ! D51   D(10,8,9,6)           172.5381         estimate D2E/DX2                !
 ! D52   D(10,8,9,32)           -9.0525         estimate D2E/DX2                !
 ! D53   D(7,8,10,18)           -4.7549         estimate D2E/DX2                !
 ! D54   D(7,8,10,23)          174.4235         estimate D2E/DX2                !
 ! D55   D(9,8,10,18)          179.5335         estimate D2E/DX2                !
 ! D56   D(9,8,10,23)           -1.2882         estimate D2E/DX2                !
 ! D57   D(6,9,32,33)           58.4783         estimate D2E/DX2                !
 ! D58   D(6,9,32,34)         -115.1226         estimate D2E/DX2                !
 ! D59   D(8,9,32,33)         -119.9632         Frozen                          !
 ! D60   D(8,9,32,34)           66.4359         estimate D2E/DX2                !
 ! D61   D(8,10,18,11)           0.7189         estimate D2E/DX2                !
 ! D62   D(8,10,18,24)        -179.4089         estimate D2E/DX2                !
 ! D63   D(23,10,18,11)       -178.5188         estimate D2E/DX2                !
 ! D64   D(23,10,18,24)          1.3535         estimate D2E/DX2                !
 ! D65   D(18,11,12,7)          -2.3856         estimate D2E/DX2                !
 ! D66   D(18,11,12,13)        176.6833         estimate D2E/DX2                !
 ! D67   D(22,11,12,7)         178.4862         estimate D2E/DX2                !
 ! D68   D(22,11,12,13)         -2.445          estimate D2E/DX2                !
 ! D69   D(12,11,18,10)          2.8444         estimate D2E/DX2                !
 ! D70   D(12,11,18,24)       -177.0251         estimate D2E/DX2                !
 ! D71   D(22,11,18,10)       -178.0181         estimate D2E/DX2                !
 ! D72   D(22,11,18,24)          2.1124         estimate D2E/DX2                !
 ! D73   D(7,12,13,14)           0.461          estimate D2E/DX2                !
 ! D74   D(7,12,13,16)        -179.8781         estimate D2E/DX2                !
 ! D75   D(11,12,13,14)       -178.6049         estimate D2E/DX2                !
 ! D76   D(11,12,13,16)          1.056          estimate D2E/DX2                !
 ! D77   D(12,13,14,4)           0.2708         estimate D2E/DX2                !
 ! D78   D(12,13,14,15)        179.7958         estimate D2E/DX2                !
 ! D79   D(16,13,14,4)        -179.3788         estimate D2E/DX2                !
 ! D80   D(16,13,14,15)          0.1463         estimate D2E/DX2                !
 ! D81   D(10,18,24,25)        -59.609          estimate D2E/DX2                !
 ! D82   D(10,18,24,26)         59.2209         estimate D2E/DX2                !
 ! D83   D(10,18,24,27)        179.6858         estimate D2E/DX2                !
 ! D84   D(11,18,24,25)        120.2739         estimate D2E/DX2                !
 ! D85   D(11,18,24,26)       -120.8962         estimate D2E/DX2                !
 ! D86   D(11,18,24,27)         -0.4313         estimate D2E/DX2                !
 ! D87   D(1,19,28,29)         -58.1407         estimate D2E/DX2                !
 ! D88   D(1,19,28,30)          60.7668         estimate D2E/DX2                !
 ! D89   D(1,19,28,31)        -178.7139         estimate D2E/DX2                !
 ! D90   D(5,19,28,29)         121.8132         estimate D2E/DX2                !
 ! D91   D(5,19,28,30)        -119.2792         estimate D2E/DX2                !
 ! D92   D(5,19,28,31)           1.2401         estimate D2E/DX2                !
 ! D93   D(9,32,33,35)        -174.2194         estimate D2E/DX2                !
 ! D94   D(9,32,33,36)           6.207          estimate D2E/DX2                !
 ! D95   D(34,32,33,35)         -0.1882         estimate D2E/DX2                !
 ! D96   D(34,32,33,36)       -179.7618         estimate D2E/DX2                !
 ! D97   D(9,32,34,37)         175.3529         estimate D2E/DX2                !
 ! D98   D(33,32,34,37)          0.5016         estimate D2E/DX2                !
 ! D99   D(32,33,35,37)         -0.3437         estimate D2E/DX2                !
 ! D100  D(32,33,35,38)        179.6824         estimate D2E/DX2                !
 ! D101  D(36,33,35,37)        179.2258         estimate D2E/DX2                !
 ! D102  D(36,33,35,38)         -0.7482         estimate D2E/DX2                !
 ! D103  D(32,34,37,35)         -0.6784         estimate D2E/DX2                !
 ! D104  D(32,34,37,39)        177.9597         estimate D2E/DX2                !
 ! D105  D(33,35,37,34)          0.7063         estimate D2E/DX2                !
 ! D106  D(33,35,37,39)       -177.8497         estimate D2E/DX2                !
 ! D107  D(38,35,37,34)       -179.3176         estimate D2E/DX2                !
 ! D108  D(38,35,37,39)          2.1264         estimate D2E/DX2                !
 ! D109  D(33,35,38,40)          6.5234         estimate D2E/DX2                !
 ! D110  D(37,35,38,40)       -173.4495         estimate D2E/DX2                !
 ! D111  D(34,37,39,41)          2.8355         estimate D2E/DX2                !
 ! D112  D(34,37,39,42)       -177.1492         estimate D2E/DX2                !
 ! D113  D(35,37,39,41)       -178.7882         estimate D2E/DX2                !
 ! D114  D(35,37,39,42)          1.2271         estimate D2E/DX2                !
 ! D115  D(35,38,40,43)        175.4378         estimate D2E/DX2                !
 ! D116  D(35,38,40,44)        -65.8423         estimate D2E/DX2                !
 ! D117  D(35,38,40,45)         56.3262         estimate D2E/DX2                !
 ! D118  D(37,39,41,46)       -179.9905         estimate D2E/DX2                !
 ! D119  D(37,39,41,47)         -0.1474         estimate D2E/DX2                !
 ! D120  D(42,39,41,46)         -0.0041         estimate D2E/DX2                !
 ! D121  D(42,39,41,47)        179.839          estimate D2E/DX2                !
 ! D122  D(37,39,42,48)        179.9892         estimate D2E/DX2                !
 ! D123  D(41,39,42,48)          0.002          estimate D2E/DX2                !
 ! D124  D(39,41,46,48)          0.0045         estimate D2E/DX2                !
 ! D125  D(39,41,46,49)        179.9828         estimate D2E/DX2                !
 ! D126  D(47,41,46,48)       -179.8251         estimate D2E/DX2                !
 ! D127  D(47,41,46,49)          0.1532         estimate D2E/DX2                !
 ! D128  D(39,41,47,50)        178.3817         estimate D2E/DX2                !
 ! D129  D(46,41,47,50)         -1.7966         estimate D2E/DX2                !
 ! D130  D(39,42,48,46)          0.0005         estimate D2E/DX2                !
 ! D131  D(39,42,48,51)        179.8809         estimate D2E/DX2                !
 ! D132  D(41,46,48,42)         -0.0028         estimate D2E/DX2                !
 ! D133  D(41,46,48,51)       -179.8722         estimate D2E/DX2                !
 ! D134  D(49,46,48,42)       -179.9814         estimate D2E/DX2                !
 ! D135  D(49,46,48,51)          0.1493         estimate D2E/DX2                !
 ! D136  D(41,47,50,52)         61.9909         estimate D2E/DX2                !
 ! D137  D(41,47,50,53)       -179.1333         estimate D2E/DX2                !
 ! D138  D(41,47,50,54)        -60.2121         estimate D2E/DX2                !
 --------------------------------------------------------------------------------
 Trust Radius=3.00D-01 FncErr=1.00D-07 GrdErr=1.00D-06 EigMax=2.50D+02 EigMin=1.00D-04
 Number of steps in this run=    307 maximum allowed number of steps=    324.
 GradGradGradGradGradGradGradGradGradGradGradGradGradGradGradGradGradGrad

 Stoichiometry    C26H18N2O6S2(2-)
 Framework group  C1[X(C26H18N2O6S2)]
 Deg. of freedom   156
 Full point group                 C1      NOp   1
 Largest Abelian subgroup         C1      NOp   1
 Largest concise Abelian subgroup C1      NOp   1
                         Standard orientation:                         
 ---------------------------------------------------------------------
 Center     Atomic      Atomic             Coordinates (Angstroms)
 Number     Number       Type             X           Y           Z
 ---------------------------------------------------------------------
      1          6           0       -3.435022   -2.701172    0.610912
      2          6           0       -2.730197   -1.438318    0.266627
      3          6           0       -3.453755   -0.235092    0.094399
      4          6           0       -4.857531   -0.217586    0.248733
      5          6           0       -5.595072   -1.463867    0.587448
      6          6           0       -1.369336   -1.453872    0.092968
      7          6           0       -2.736841    0.953415   -0.225405
      8          6           0       -1.315429    0.933202   -0.392993
      9          6           0       -0.611652   -0.295571   -0.266766
     10          6           0       -0.633958    2.239641   -0.601834
     11          6           0       -2.828371    3.436491   -0.652270
     12          6           0       -3.492643    2.147517   -0.363223
     13          6           0       -4.873173    2.145749   -0.211746
     14          6           0       -5.563649    0.966250    0.091599
     15          1           0       -6.639973    0.954600    0.215050
     16          1           0       -5.396871    3.087847   -0.330513
     17          1           0       -0.869302   -2.409829    0.195304
     18          7           0       -1.434680    3.392372   -0.723142
     19          7           0       -4.826597   -2.629513    0.747709
     20          8           0       -2.852553   -3.764518    0.772739
     21          8           0       -6.809149   -1.481554    0.723577
     22          8           0       -3.448765    4.481527   -0.804534
     23          8           0        0.580036    2.387704   -0.661942
     24          6           0       -0.711959    4.650491   -0.941018
     25          1           0       -0.031609    4.836027   -0.108514
     26          1           0       -0.118589    4.584899   -1.856609
     27          1           0       -1.450940    5.443068   -1.020084
     28          6           0       -5.511833   -3.882556    1.083686
     29          1           0       -5.299965   -4.633985    0.320115
     30          1           0       -5.149256   -4.256888    2.042848
     31          1           0       -6.577315   -3.674584    1.132640
     32          6           0        0.813194   -0.534347   -0.493712
     33          6           0        1.458876   -1.371711   -1.382370
     34         16           0        1.983848    0.214944    0.592032
     35          6           0        2.855919   -1.411384   -1.204027
     36          1           0        0.937213   -1.932020   -2.141377
     37          6           0        3.330977   -0.595840   -0.172339
     38          8           0        3.743170   -2.148360   -1.925235
     39          6           0        4.695331   -0.387784    0.224872
     40          6           0        3.243576   -2.855285   -3.056953
     41          6           0        5.164311    0.407241    1.267830
     42         16           0        6.060283   -1.146843   -0.590106
     43          1           0        4.112801   -3.306398   -3.536255
     44          1           0        2.544894   -3.644545   -2.755058
     45          1           0        2.744548   -2.176259   -3.760132
     46          6           0        6.582028    0.407025    1.409109
     47          8           0        4.274918    1.092982    2.033020
     48          6           0        7.188268   -0.387836    0.473548
     49          1           0        7.122520    0.964511    2.161152
     50          6           0        4.781913    1.868735    3.112767
     51          1           0        8.247040   -0.570429    0.353518
     52          1           0        5.448060    2.663135    2.753706
     53          1           0        3.914592    2.315461    3.596556
     54          1           0        5.319911    1.242321    3.834795
 ---------------------------------------------------------------------
 Rotational constants (GHZ):           0.1645983           0.0553496           0.0464126
 Standard basis: 6-311+G(d,p) (5D, 7F)
 There are   952 symmetry adapted cartesian basis functions of A   symmetry.
 There are   916 symmetry adapted basis functions of A   symmetry.
   916 basis functions,  1468 primitive gaussians,   952 cartesian basis functions
   135 alpha electrons      135 beta electrons
       nuclear repulsion energy      4090.9641025849 Hartrees.
 NAtoms=   54 NActive=   54 NUniq=   54 SFac= 1.00D+00 NAtFMM=   60 NAOKFM=F Big=F
 Integral buffers will be    131072 words long.
 Raffenetti 2 integral format.
 Two-electron integral symmetry is turned on.
 ------------------------------------------------------------------------------
 Polarizable Continuum Model (PCM)
 =================================
 Model                : PCM.
 Atomic radii         : UFF (Universal Force Field).
 Polarization charges : Total charges.
 Charge compensation  : None.
 Solution method      : On-the-fly selection.
 Cavity type          : Scaled VdW (van der Waals Surface) (Alpha=1.100).
 Cavity algorithm     : GePol (No added spheres)
                        Default sphere list used, NSphG=   54.
                        Lebedev-Laikov grids with approx.  5.0 points / Ang**2.
                        Smoothing algorithm: York/Karplus (Gamma=1.0000).
                        Polarization charges: spherical gaussians, with
                                              point-specific exponents (IZeta= 3).
                        Self-potential: point-specific (ISelfS= 7).
                        Self-field    : sphere-specific E.n sum rule (ISelfD= 2).
 1st derivatives      : Analytical E(r).r(x)/FMM algorithm (CHGder, D1EAlg=3).
                        Cavity 1st derivative terms included.
 Solvent              : Water, Eps=  78.355300 Eps(inf)=   1.777849
 ------------------------------------------------------------------------------
 One-electron integrals computed using PRISM.
 NBasis=   916 RedAO= T EigKep=  1.11D-06  NBF=   916
 NBsUse=   902 1.00D-06 EigRej=  6.71D-07 NBFU=   902
 ExpMin= 4.05D-02 ExpMax= 9.34D+04 ExpMxC= 3.17D+03 IAcc=3 IRadAn=         5 AccDes= 0.00D+00
 Harris functional with IExCor=  402 and IRadAn=       5 diagonalized for initial guess.
 HarFok:  IExCor=  402 AccDes= 0.00D+00 IRadAn=         5 IDoV= 1 UseB2=F ITyADJ=14
 ICtDFT=  3500011 ScaDFX=  1.000000  1.000000  1.000000  1.000000
 FoFCou: FMM=F IPFlag=           0 FMFlag=      100000 FMFlg1=           0
         NFxFlg=           0 DoJE=T BraDBF=F KetDBF=T FulRan=T
         wScrn=  0.000000 ICntrl=       500 IOpCl=  0 I1Cent=   200000004 NGrid=           0
         NMat0=    1 NMatS0=      1 NMatT0=    0 NMatD0=    1 NMtDS0=    0 NMtDT0=    0
 Petite list used in FoFCou.
 Requested convergence on RMS density matrix=1.00D-08 within 128 cycles.
 Requested convergence on MAX density matrix=1.00D-06.
 Requested convergence on             energy=1.00D-06.
 No special actions if energy rises.
 Inv3:  Mode=1 IEnd=    52091667.
 Iteration    1 A*A^-1 deviation from unit magnitude is 6.77D-15 for   4144.
 Iteration    1 A*A^-1 deviation from orthogonality  is 3.13D-15 for   4166   4027.
 Iteration    1 A^-1*A deviation from unit magnitude is 6.99D-15 for   4144.
 Iteration    1 A^-1*A deviation from orthogonality  is 2.13D-14 for   2491   2463.
 Error on total polarization charges =  0.03053
 SCF Done:  E(RB3LYP) =  -2359.60065984     A.U. after   17 cycles
            NFock= 17  Conv=0.36D-08     -V/T= 2.0030

 **********************************************************************

            Population analysis using the SCF Density.

 **********************************************************************

 Orbital symmetries:
       Occupied  (A) (A) (A) (A) (A) (A) (A) (A) (A) (A) (A) (A)
                 (A) (A) (A) (A) (A) (A) (A) (A) (A) (A) (A) (A)
                 (A) (A) (A) (A) (A) (A) (A) (A) (A) (A) (A) (A)
                 (A) (A) (A) (A) (A) (A) (A) (A) (A) (A) (A) (A)
                 (A) (A) (A) (A) (A) (A) (A) (A) (A) (A) (A) (A)
                 (A) (A) (A) (A) (A) (A) (A) (A) (A) (A) (A) (A)
                 (A) (A) (A) (A) (A) (A) (A) (A) (A) (A) (A) (A)
                 (A) (A) (A) (A) (A) (A) (A) (A) (A) (A) (A) (A)
                 (A) (A) (A) (A) (A) (A) (A) (A) (A) (A) (A) (A)
                 (A) (A) (A) (A) (A) (A) (A) (A) (A) (A) (A) (A)
                 (A) (A) (A) (A) (A) (A) (A) (A) (A) (A) (A) (A)
                 (A) (A) (A)
       Virtual   (A) (A) (A) (A) (A) (A) (A) (A) (A) (A) (A) (A)
                 (A) (A) (A) (A) (A) (A) (A) (A) (A) (A) (A) (A)
                 (A) (A) (A) (A) (A) (A) (A) (A) (A) (A) (A) (A)
                 (A) (A) (A) (A) (A) (A) (A) (A) (A) (A) (A) (A)
                 (A) (A) (A) (A) (A) (A) (A) (A) (A) (A) (A) (A)
                 (A) (A) (A) (A) (A) (A) (A) (A) (A) (A) (A) (A)
                 (A) (A) (A) (A) (A) (A) (A) (A) (A) (A) (A) (A)
                 (A) (A) (A) (A) (A) (A) (A) (A) (A) (A) (A) (A)
                 (A) (A) (A) (A) (A) (A) (A) (A) (A) (A) (A) (A)
                 (A) (A) (A) (A) (A) (A) (A) (A) (A) (A) (A) (A)
                 (A) (A) (A) (A) (A) (A) (A) (A) (A) (A) (A) (A)
                 (A) (A) (A) (A) (A) (A) (A) (A) (A) (A) (A) (A)
                 (A) (A) (A) (A) (A) (A) (A) (A) (A) (A) (A) (A)
                 (A) (A) (A) (A) (A) (A) (A) (A) (A) (A) (A) (A)
                 (A) (A) (A) (A) (A) (A) (A) (A) (A) (A) (A) (A)
                 (A) (A) (A) (A) (A) (A) (A) (A) (A) (A) (A) (A)
                 (A) (A) (A) (A) (A) (A) (A) (A) (A) (A) (A) (A)
                 (A) (A) (A) (A) (A) (A) (A) (A) (A) (A) (A) (A)
                 (A) (A) (A) (A) (A) (A) (A) (A) (A) (A) (A) (A)
                 (A) (A) (A) (A) (A) (A) (A) (A) (A) (A) (A) (A)
                 (A) (A) (A) (A) (A) (A) (A) (A) (A) (A) (A) (A)
                 (A) (A) (A) (A) (A) (A) (A) (A) (A) (A) (A) (A)
                 (A) (A) (A) (A) (A) (A) (A) (A) (A) (A) (A) (A)
                 (A) (A) (A) (A) (A) (A) (A) (A) (A) (A) (A) (A)
                 (A) (A) (A) (A) (A) (A) (A) (A) (A) (A) (A) (A)
                 (A) (A) (A) (A) (A) (A) (A) (A) (A) (A) (A) (A)
                 (A) (A) (A) (A) (A) (A) (A) (A) (A) (A) (A) (A)
                 (A) (A) (A) (A) (A) (A) (A) (A) (A) (A) (A) (A)
                 (A) (A) (A) (A) (A) (A) (A) (A) (A) (A) (A) (A)
                 (A) (A) (A) (A) (A) (A) (A) (A) (A) (A) (A) (A)
                 (A) (A) (A) (A) (A) (A) (A) (A) (A) (A) (A) (A)
                 (A) (A) (A) (A) (A) (A) (A) (A) (A) (A) (A) (A)
                 (A) (A) (A) (A) (A) (A) (A) (A) (A) (A) (A) (A)
                 (A) (A) (A) (A) (A) (A) (A) (A) (A) (A) (A) (A)
                 (A) (A) (A) (A) (A) (A) (A) (A) (A) (A) (A) (A)
                 (A) (A) (A) (A) (A) (A) (A) (A) (A) (A) (A) (A)
                 (A) (A) (A) (A) (A) (A) (A) (A) (A) (A) (A) (A)
                 (A) (A) (A) (A) (A) (A) (A) (A) (A) (A) (A) (A)
                 (A) (A) (A) (A) (A) (A) (A) (A) (A) (A) (A) (A)
                 (A) (A) (A) (A) (A) (A) (A) (A) (A) (A) (A) (A)
                 (A) (A) (A) (A) (A) (A) (A) (A) (A) (A) (A) (A)
                 (A) (A) (A) (A) (A) (A) (A) (A) (A) (A) (A) (A)
                 (A) (A) (A) (A) (A) (A) (A) (A) (A) (A) (A) (A)
                 (A) (A) (A) (A) (A) (A) (A) (A) (A) (A) (A) (A)
                 (A) (A) (A) (A) (A) (A) (A) (A) (A) (A) (A) (A)
                 (A) (A) (A) (A) (A) (A) (A) (A) (A) (A) (A) (A)
                 (A) (A) (A) (A) (A) (A) (A) (A) (A) (A) (A) (A)
                 (A) (A) (A) (A) (A) (A) (A) (A) (A) (A) (A) (A)
                 (A) (A) (A) (A) (A) (A) (A) (A) (A) (A) (A) (A)
                 (A) (A) (A) (A) (A) (A) (A) (A) (A) (A) (A) (A)
                 (A) (A) (A) (A) (A) (A) (A) (A) (A) (A) (A) (A)
                 (A) (A) (A) (A) (A) (A) (A) (A) (A) (A) (A) (A)
                 (A) (A) (A) (A) (A) (A) (A) (A) (A) (A) (A) (A)
                 (A) (A) (A) (A) (A) (A) (A) (A) (A) (A) (A) (A)
                 (A) (A) (A) (A) (A) (A) (A) (A) (A) (A) (A) (A)
                 (A) (A) (A) (A) (A) (A) (A) (A) (A) (A) (A) (A)
                 (A) (A) (A) (A) (A) (A) (A) (A) (A) (A) (A) (A)
                 (A) (A) (A) (A) (A) (A) (A) (A) (A) (A) (A) (A)
                 (A) (A) (A) (A) (A) (A) (A) (A) (A) (A) (A) (A)
                 (A) (A) (A) (A) (A) (A) (A) (A) (A) (A) (A) (A)
                 (A) (A) (A) (A) (A) (A) (A) (A) (A) (A) (A) (A)
                 (A) (A) (A) (A) (A) (A) (A) (A) (A) (A) (A) (A)
                 (A) (A) (A) (A) (A) (A) (A) (A) (A) (A) (A) (A)
                 (A) (A) (A) (A) (A) (A) (A) (A) (A) (A) (A)
 The electronic state is 1-A.
 Alpha  occ. eigenvalues --  -88.87551 -88.85716 -19.15882 -19.15740 -19.07192
 Alpha  occ. eigenvalues --  -19.07113 -19.06777 -19.06129 -14.34584 -14.34102
 Alpha  occ. eigenvalues --  -10.25269 -10.25067 -10.24738 -10.24696 -10.23356
 Alpha  occ. eigenvalues --  -10.22787 -10.22270 -10.22168 -10.20647 -10.19763
 Alpha  occ. eigenvalues --  -10.19691 -10.19645 -10.18830 -10.18502 -10.17932
 Alpha  occ. eigenvalues --  -10.17352 -10.17024 -10.16925 -10.16675 -10.15637
 Alpha  occ. eigenvalues --  -10.15187 -10.14892 -10.14744 -10.14676 -10.14658
 Alpha  occ. eigenvalues --  -10.14647  -7.96121  -7.94314  -5.92425  -5.92046
 Alpha  occ. eigenvalues --   -5.91695  -5.90630  -5.90238  -5.89861  -1.07510
 Alpha  occ. eigenvalues --   -1.07256  -1.03819  -1.03371  -1.01913  -1.01355
 Alpha  occ. eigenvalues --   -0.91783  -0.91201  -0.88701  -0.87011  -0.85991
 Alpha  occ. eigenvalues --   -0.80938  -0.78432  -0.77113  -0.75356  -0.73977
 Alpha  occ. eigenvalues --   -0.73075  -0.72256  -0.71415  -0.71050  -0.69121
 Alpha  occ. eigenvalues --   -0.68838  -0.67120  -0.65187  -0.62613  -0.61250
 Alpha  occ. eigenvalues --   -0.60724  -0.59623  -0.58726  -0.57045  -0.54984
 Alpha  occ. eigenvalues --   -0.54804  -0.53287  -0.52976  -0.52471  -0.50191
 Alpha  occ. eigenvalues --   -0.49081  -0.47991  -0.47403  -0.47171  -0.47039
 Alpha  occ. eigenvalues --   -0.46454  -0.46267  -0.45883  -0.45254  -0.44807
 Alpha  occ. eigenvalues --   -0.44565  -0.44287  -0.44103  -0.42784  -0.42423
 Alpha  occ. eigenvalues --   -0.41488  -0.41074  -0.40720  -0.40571  -0.40449
 Alpha  occ. eigenvalues --   -0.40094  -0.39988  -0.39134  -0.38515  -0.38494
 Alpha  occ. eigenvalues --   -0.38009  -0.37818  -0.37352  -0.37202  -0.36944
 Alpha  occ. eigenvalues --   -0.36402  -0.36166  -0.35192  -0.35100  -0.34365
 Alpha  occ. eigenvalues --   -0.33285  -0.32976  -0.32330  -0.31965  -0.31849
 Alpha  occ. eigenvalues --   -0.29906  -0.27512  -0.26858  -0.26614  -0.25895
 Alpha  occ. eigenvalues --   -0.25474  -0.25202  -0.24650  -0.24185  -0.24076
 Alpha  occ. eigenvalues --   -0.23355  -0.22176  -0.21006  -0.17695  -0.11424
 Alpha virt. eigenvalues --   -0.04369  -0.02394  -0.01157  -0.00310  -0.00014
 Alpha virt. eigenvalues --    0.00611   0.00978   0.01061   0.01222   0.01514
 Alpha virt. eigenvalues --    0.02088   0.02585   0.02851   0.03094   0.03229
 Alpha virt. eigenvalues --    0.03577   0.03782   0.04248   0.04356   0.04417
 Alpha virt. eigenvalues --    0.04600   0.05029   0.05154   0.05257   0.05431
 Alpha virt. eigenvalues --    0.05683   0.05773   0.06118   0.06409   0.06674
 Alpha virt. eigenvalues --    0.06899   0.07065   0.07308   0.07835   0.08019
 Alpha virt. eigenvalues --    0.08304   0.08467   0.08663   0.08904   0.09198
 Alpha virt. eigenvalues --    0.09525   0.09597   0.09851   0.10030   0.10348
 Alpha virt. eigenvalues --    0.10740   0.11137   0.11238   0.11395   0.11971
 Alpha virt. eigenvalues --    0.12052   0.12168   0.12354   0.12736   0.12923
 Alpha virt. eigenvalues --    0.13182   0.13658   0.13926   0.14330   0.14608
 Alpha virt. eigenvalues --    0.14737   0.14901   0.15137   0.15376   0.15535
 Alpha virt. eigenvalues --    0.15761   0.15950   0.16362   0.16530   0.16658
 Alpha virt. eigenvalues --    0.16790   0.17072   0.17180   0.17516   0.17819
 Alpha virt. eigenvalues --    0.18100   0.18478   0.18595   0.18640   0.18897
 Alpha virt. eigenvalues --    0.19223   0.19409   0.19580   0.19922   0.20026
 Alpha virt. eigenvalues --    0.20160   0.20313   0.20502   0.20633   0.20972
 Alpha virt. eigenvalues --    0.21235   0.21411   0.21561   0.21788   0.21841
 Alpha virt. eigenvalues --    0.22224   0.22464   0.22577   0.22728   0.22956
 Alpha virt. eigenvalues --    0.23056   0.23557   0.23648   0.23858   0.24088
 Alpha virt. eigenvalues --    0.24141   0.24356   0.24549   0.24753   0.24984
 Alpha virt. eigenvalues --    0.25285   0.25408   0.25540   0.25866   0.26076
 Alpha virt. eigenvalues --    0.26329   0.26505   0.26768   0.26991   0.27075
 Alpha virt. eigenvalues --    0.27202   0.27275   0.27381   0.27650   0.27770
 Alpha virt. eigenvalues --    0.28086   0.28300   0.28325   0.28842   0.28925
 Alpha virt. eigenvalues --    0.29080   0.29448   0.29492   0.29711   0.29840
 Alpha virt. eigenvalues --    0.30060   0.30320   0.30430   0.30645   0.30771
 Alpha virt. eigenvalues --    0.30970   0.31048   0.31215   0.31585   0.31830
 Alpha virt. eigenvalues --    0.31966   0.32169   0.32582   0.32635   0.32821
 Alpha virt. eigenvalues --    0.33017   0.33271   0.33586   0.33842   0.33995
 Alpha virt. eigenvalues --    0.34517   0.34635   0.35061   0.35491   0.35570
 Alpha virt. eigenvalues --    0.35965   0.36346   0.36543   0.36682   0.36849
 Alpha virt. eigenvalues --    0.37527   0.37739   0.38236   0.38667   0.39041
 Alpha virt. eigenvalues --    0.39428   0.39975   0.40486   0.41038   0.41291
 Alpha virt. eigenvalues --    0.41930   0.42084   0.42353   0.42570   0.43467
 Alpha virt. eigenvalues --    0.43936   0.44251   0.44595   0.44915   0.44932
 Alpha virt. eigenvalues --    0.45663   0.46105   0.46272   0.46550   0.46876
 Alpha virt. eigenvalues --    0.47168   0.47275   0.47604   0.47917   0.48308
 Alpha virt. eigenvalues --    0.48877   0.49525   0.50291   0.50593   0.51098
 Alpha virt. eigenvalues --    0.51440   0.51559   0.52296   0.53047   0.53529
 Alpha virt. eigenvalues --    0.54323   0.54899   0.55242   0.56087   0.56166
 Alpha virt. eigenvalues --    0.56858   0.56930   0.57202   0.57579   0.58033
 Alpha virt. eigenvalues --    0.58264   0.58429   0.58680   0.59656   0.59915
 Alpha virt. eigenvalues --    0.60213   0.60439   0.60998   0.61545   0.61656
 Alpha virt. eigenvalues --    0.62286   0.62625   0.63134   0.63597   0.63895
 Alpha virt. eigenvalues --    0.64367   0.64746   0.65273   0.65478   0.65694
 Alpha virt. eigenvalues --    0.65889   0.66411   0.66557   0.67138   0.67397
 Alpha virt. eigenvalues --    0.67970   0.68275   0.68518   0.68823   0.69288
 Alpha virt. eigenvalues --    0.69572   0.69831   0.70116   0.70471   0.70609
 Alpha virt. eigenvalues --    0.71549   0.71815   0.72112   0.72345   0.73052
 Alpha virt. eigenvalues --    0.73524   0.73629   0.74194   0.74529   0.74946
 Alpha virt. eigenvalues --    0.75452   0.75655   0.76222   0.76366   0.76603
 Alpha virt. eigenvalues --    0.76734   0.77342   0.77441   0.77649   0.77869
 Alpha virt. eigenvalues --    0.78458   0.78863   0.78935   0.79365   0.79774
 Alpha virt. eigenvalues --    0.80195   0.80531   0.81144   0.81421   0.81853
 Alpha virt. eigenvalues --    0.82438   0.83130   0.83350   0.83498   0.84066
 Alpha virt. eigenvalues --    0.84444   0.85416   0.85574   0.86958   0.88303
 Alpha virt. eigenvalues --    0.88586   0.89494   0.89849   0.90203   0.91060
 Alpha virt. eigenvalues --    0.91585   0.91915   0.92528   0.92728   0.93504
 Alpha virt. eigenvalues --    0.93896   0.94729   0.95340   0.96024   0.96479
 Alpha virt. eigenvalues --    0.96768   0.97226   0.97513   0.98086   0.98560
 Alpha virt. eigenvalues --    0.99393   0.99576   0.99908   1.00618   1.00763
 Alpha virt. eigenvalues --    1.01282   1.01993   1.02113   1.02566   1.03171
 Alpha virt. eigenvalues --    1.03456   1.03660   1.04164   1.04522   1.05041
 Alpha virt. eigenvalues --    1.05472   1.06244   1.06365   1.07372   1.07674
 Alpha virt. eigenvalues --    1.07891   1.07997   1.08313   1.08420   1.08771
 Alpha virt. eigenvalues --    1.09579   1.09842   1.10332   1.10814   1.10836
 Alpha virt. eigenvalues --    1.11154   1.11741   1.12662   1.13314   1.14230
 Alpha virt. eigenvalues --    1.14623   1.15783   1.16053   1.16444   1.17381
 Alpha virt. eigenvalues --    1.17621   1.18243   1.19438   1.19717   1.20098
 Alpha virt. eigenvalues --    1.21346   1.21494   1.22169   1.22987   1.23305
 Alpha virt. eigenvalues --    1.23825   1.24434   1.25913   1.26187   1.27351
 Alpha virt. eigenvalues --    1.27833   1.28453   1.29273   1.30703   1.31017
 Alpha virt. eigenvalues --    1.31169   1.31768   1.32711   1.32918   1.33343
 Alpha virt. eigenvalues --    1.33431   1.35213   1.35843   1.36303   1.36859
 Alpha virt. eigenvalues --    1.37652   1.39026   1.39999   1.40869   1.41098
 Alpha virt. eigenvalues --    1.43619   1.43958   1.44471   1.44762   1.45067
 Alpha virt. eigenvalues --    1.45178   1.45734   1.45847   1.46746   1.46882
 Alpha virt. eigenvalues --    1.47075   1.47693   1.48651   1.49587   1.50148
 Alpha virt. eigenvalues --    1.50329   1.51087   1.51673   1.52387   1.52779
 Alpha virt. eigenvalues --    1.53741   1.55140   1.55216   1.55679   1.55881
 Alpha virt. eigenvalues --    1.56314   1.56796   1.57082   1.57263   1.57479
 Alpha virt. eigenvalues --    1.57611   1.57849   1.58671   1.59383   1.60949
 Alpha virt. eigenvalues --    1.61949   1.62161   1.62940   1.64014   1.64103
 Alpha virt. eigenvalues --    1.64255   1.65129   1.65224   1.65499   1.66618
 Alpha virt. eigenvalues --    1.67404   1.67682   1.68858   1.69542   1.70194
 Alpha virt. eigenvalues --    1.70279   1.70891   1.71137   1.71599   1.72977
 Alpha virt. eigenvalues --    1.73190   1.73771   1.74276   1.74810   1.75641
 Alpha virt. eigenvalues --    1.76121   1.77027   1.77553   1.78308   1.78572
 Alpha virt. eigenvalues --    1.78698   1.79905   1.80059   1.80537   1.81402
 Alpha virt. eigenvalues --    1.82047   1.82801   1.83908   1.84592   1.85377
 Alpha virt. eigenvalues --    1.85768   1.86704   1.87341   1.88372   1.89562
 Alpha virt. eigenvalues --    1.89882   1.90341   1.90670   1.92251   1.92764
 Alpha virt. eigenvalues --    1.93501   1.93750   1.94174   1.95117   1.95411
 Alpha virt. eigenvalues --    1.95722   1.96410   1.96791   1.97145   1.98801
 Alpha virt. eigenvalues --    1.99501   2.00235   2.00742   2.01234   2.02487
 Alpha virt. eigenvalues --    2.02708   2.03244   2.04161   2.04792   2.04958
 Alpha virt. eigenvalues --    2.05474   2.06067   2.06539   2.06799   2.07210
 Alpha virt. eigenvalues --    2.07818   2.08289   2.09561   2.10054   2.10475
 Alpha virt. eigenvalues --    2.11283   2.12256   2.13107   2.13487   2.13784
 Alpha virt. eigenvalues --    2.14193   2.15212   2.15674   2.16608   2.17681
 Alpha virt. eigenvalues --    2.18308   2.19943   2.20386   2.21700   2.22133
 Alpha virt. eigenvalues --    2.22793   2.23114   2.23611   2.24752   2.25496
 Alpha virt. eigenvalues --    2.26261   2.29229   2.29622   2.30866   2.32545
 Alpha virt. eigenvalues --    2.36811   2.36836   2.37127   2.39475   2.40879
 Alpha virt. eigenvalues --    2.41943   2.42244   2.43636   2.44128   2.44309
 Alpha virt. eigenvalues --    2.44691   2.45223   2.47306   2.47713   2.48880
 Alpha virt. eigenvalues --    2.49634   2.49960   2.50834   2.52378   2.52703
 Alpha virt. eigenvalues --    2.53317   2.53707   2.53908   2.54489   2.54667
 Alpha virt. eigenvalues --    2.55084   2.55545   2.55836   2.56935   2.59076
 Alpha virt. eigenvalues --    2.59372   2.59519   2.61963   2.62078   2.62966
 Alpha virt. eigenvalues --    2.64802   2.66115   2.68316   2.68647   2.68760
 Alpha virt. eigenvalues --    2.69322   2.70223   2.70355   2.70675   2.71149
 Alpha virt. eigenvalues --    2.73003   2.73523   2.74469   2.75331   2.75784
 Alpha virt. eigenvalues --    2.75858   2.76047   2.76634   2.76922   2.78284
 Alpha virt. eigenvalues --    2.79679   2.80223   2.81020   2.82149   2.83550
 Alpha virt. eigenvalues --    2.84988   2.85276   2.86257   2.86948   2.88321
 Alpha virt. eigenvalues --    2.88549   2.89251   2.90181   2.90651   2.90921
 Alpha virt. eigenvalues --    2.92044   2.92732   2.93939   2.94179   2.94851
 Alpha virt. eigenvalues --    2.95086   2.96240   2.96542   2.97439   2.97772
 Alpha virt. eigenvalues --    2.98434   2.98967   3.00519   3.00661   3.01352
 Alpha virt. eigenvalues --    3.03391   3.04532   3.05714   3.06955   3.08025
 Alpha virt. eigenvalues --    3.09673   3.10324   3.11970   3.12009   3.12692
 Alpha virt. eigenvalues --    3.15211   3.15660   3.18242   3.18524   3.18894
 Alpha virt. eigenvalues --    3.20053   3.20750   3.23027   3.23423   3.24372
 Alpha virt. eigenvalues --    3.24774   3.26070   3.26965   3.30251   3.31189
 Alpha virt. eigenvalues --    3.32478   3.33103   3.34399   3.35223   3.36934
 Alpha virt. eigenvalues --    3.38311   3.38786   3.39045   3.40132   3.40578
 Alpha virt. eigenvalues --    3.42675   3.43022   3.45014   3.46980   3.47192
 Alpha virt. eigenvalues --    3.47748   3.49400   3.50149   3.51786   3.53770
 Alpha virt. eigenvalues --    3.55049   3.56179   3.59252   3.62464   3.63736
 Alpha virt. eigenvalues --    3.64931   3.66387   3.69320   3.69920   3.71416
 Alpha virt. eigenvalues --    3.73725   3.74490   3.74851   3.75329   3.77423
 Alpha virt. eigenvalues --    3.77567   3.77846   3.83415   3.85750   3.86473
 Alpha virt. eigenvalues --    3.88242   3.89189   3.94403   3.96281   3.96925
 Alpha virt. eigenvalues --    3.97702   3.98044   4.01493   4.04840   4.05978
 Alpha virt. eigenvalues --    4.08741   4.09333   4.11623   4.15350   4.17791
 Alpha virt. eigenvalues --    4.21359   4.25653   4.29750   4.31135   4.40670
 Alpha virt. eigenvalues --    4.42227   4.45759   4.54857   4.69051   4.90075
 Alpha virt. eigenvalues --    4.90948   4.92115   4.94273   5.02787   5.03606
 Alpha virt. eigenvalues --    5.08290   5.09675   5.10022   5.13431   5.15890
 Alpha virt. eigenvalues --    5.17475   5.29071   5.31015   5.33053   5.35795
 Alpha virt. eigenvalues --    5.43405   5.44819   5.77682   5.79943   5.81233
 Alpha virt. eigenvalues --    5.84416   5.86144   5.89795   8.03133   8.08376
 Alpha virt. eigenvalues --   17.29861  17.37271  17.50515  17.53556  17.59348
 Alpha virt. eigenvalues --   17.65782  23.53458  23.59975  23.74412  23.82924
 Alpha virt. eigenvalues --   23.86043  23.88026  23.89697  23.91122  23.91445
 Alpha virt. eigenvalues --   23.92467  23.92579  23.93137  23.94366  23.96996
 Alpha virt. eigenvalues --   23.97641  24.00594  24.01870  24.03463  24.03908
 Alpha virt. eigenvalues --   24.04925  24.06208  24.11570  24.14569  24.15418
 Alpha virt. eigenvalues --   24.19692  24.20452  35.59998  35.62867  49.97164
 Alpha virt. eigenvalues --   49.98474  50.07013  50.08817  50.10796  50.12472
 Alpha virt. eigenvalues --  189.20450 189.26577
          Condensed to atoms (all electrons):
 Mulliken charges:
               1
     1  C    0.355167
     2  C   -0.126297
     3  C    0.084756
     4  C    0.096432
     5  C    0.233185
     6  C   -0.447899
     7  C    0.164409
     8  C   -0.077944
     9  C    0.261261
    10  C   -0.254749
    11  C    0.344042
    12  C    0.051255
    13  C   -0.523679
    14  C   -0.667525
    15  H    0.117831
    16  H    0.120066
    17  H    0.114876
    18  N   -0.166470
    19  N   -0.158937
    20  O   -0.487810
    21  O   -0.475621
    22  O   -0.485125
    23  O   -0.394935
    24  C   -0.201761
    25  H    0.161877
    26  H    0.160129
    27  H    0.167282
    28  C   -0.200258
    29  H    0.160774
    30  H    0.161962
    31  H    0.167927
    32  C   -0.206457
    33  C   -0.255344
    34  S   -0.312556
    35  C   -0.161985
    36  H    0.138555
    37  C    0.366086
    38  O   -0.152365
    39  C    0.751571
    40  C   -0.257245
    41  C    0.045405
    42  S   -0.219934
    43  H    0.170179
    44  H    0.158689
    45  H    0.158786
    46  C   -0.527780
    47  O   -0.162734
    48  C   -0.353010
    49  H    0.155958
    50  C   -0.252054
    51  H    0.181590
    52  H    0.155427
    53  H    0.170544
    54  H    0.154450
 Sum of Mulliken charges =  -2.00000
 Mulliken charges with hydrogens summed into heavy atoms:
               1
     1  C    0.355167
     2  C   -0.126297
     3  C    0.084756
     4  C    0.096432
     5  C    0.233185
     6  C   -0.333024
     7  C    0.164409
     8  C   -0.077944
     9  C    0.261261
    10  C   -0.254749
    11  C    0.344042
    12  C    0.051255
    13  C   -0.403612
    14  C   -0.549694
    18  N   -0.166470
    19  N   -0.158937
    20  O   -0.487810
    21  O   -0.475621
    22  O   -0.485125
    23  O   -0.394935
    24  C    0.287527
    28  C    0.290406
    32  C   -0.206457
    33  C   -0.116790
    34  S   -0.312556
    35  C   -0.161985
    37  C    0.366086
    38  O   -0.152365
    39  C    0.751571
    40  C    0.230410
    41  C    0.045405
    42  S   -0.219934
    46  C   -0.371821
    47  O   -0.162734
    48  C   -0.171419
    50  C    0.228367
 Electronic spatial extent (au):  <R**2>=          22482.9712
 Charge=             -2.0000 electrons
 Dipole moment (field-independent basis, Debye):
    X=             26.1898    Y=             -3.4288    Z=              0.2662  Tot=             26.4146
 Quadrupole moment (field-independent basis, Debye-Ang):
   XX=           -377.9264   YY=           -296.0667   ZZ=           -219.1137
   XY=             15.0095   XZ=             14.2330   YZ=             28.7732
 Traceless Quadrupole moment (field-independent basis, Debye-Ang):
   XX=            -80.2241   YY=              1.6356   ZZ=             78.5886
   XY=             15.0095   XZ=             14.2330   YZ=             28.7732
 Octapole moment (field-independent basis, Debye-Ang**2):
  XXX=           1017.6194  YYY=            -97.9816  ZZZ=              4.7256  XYY=            250.7232
  XXY=             13.7622  XXZ=             35.5003  XZZ=             96.6362  YZZ=            -12.3692
  YYZ=              2.5698  XYZ=             11.1265
 Hexadecapole moment (field-independent basis, Debye-Ang**3):
 XXXX=         -26977.7386 YYYY=          -7795.4411 ZZZZ=          -1827.9705 XXXY=            116.6493
 XXXZ=            817.1824 YYYX=            608.5300 YYYZ=            349.2067 ZZZX=             51.2105
 ZZZY=            186.0299 XXYY=          -5636.9271 XXZZ=          -3966.0009 YYZZ=          -1361.5382
 XXYZ=            443.4181 YYXZ=           -101.9226 ZZXY=             84.1448
 N-N= 4.090964102585D+03 E-N=-1.378505021493D+04  KE= 2.352551312216D+03
 D1PCM: PCM CHGder 1st derivatives, ID1Alg=3 FixD1E=F DoIter=F DoCFld=F I1PDM=0.
 Calling FoFJK, ICntrl=      2127 FMM=F ISym2X=0 I1Cent= 0 IOpClX= 0 NMat=1 NMatS=1 NMatT=0.
 ***** Axes restored to original set *****
 -------------------------------------------------------------------
 Center     Atomic                   Forces (Hartrees/Bohr)
 Number     Number              X              Y              Z
 -------------------------------------------------------------------
      1        6          -0.012660155    0.051875368    0.008260454
      2        6          -0.032751339   -0.034549079   -0.002992901
      3        6          -0.000298722   -0.009314885   -0.001670017
      4        6           0.012429227   -0.040846102   -0.005966122
      5        6           0.035132413    0.040188503    0.004838082
      6        6           0.041101668    0.038365235   -0.004262463
      7        6           0.001833002    0.007772642    0.001517000
      8        6          -0.012010090    0.038281438    0.013929066
      9        6          -0.002077649   -0.051740290   -0.012222927
     10        6          -0.026949581   -0.037559440   -0.010362104
     11        6           0.016685833   -0.049224940   -0.007744484
     12        6           0.027345753    0.032692447    0.005197951
     13        6          -0.033126593   -0.030217725   -0.004216608
     14        6          -0.016144232    0.040982127    0.006358516
     15        1          -0.000306547    0.001889162    0.000286077
     16        1          -0.000688396   -0.001835043   -0.000411754
     17        1           0.002591202    0.002444638    0.001044673
     18        7          -0.002802433    0.000704462   -0.000847711
     19        7          -0.000537070   -0.000201086   -0.000372630
     20        8           0.022547059   -0.029181001   -0.004383983
     21        8          -0.034072251   -0.017243947   -0.001789363
     22        8          -0.023709674    0.028192221    0.004544153
     23        8           0.028316739    0.015619543    0.000247894
     24        6           0.000165724   -0.002179459   -0.001727531
     25        1          -0.000537219    0.001117897    0.000178419
     26        1          -0.000965487    0.000615474    0.001100874
     27        1           0.001240574    0.000513308    0.000259921
     28        6           0.000809476    0.002496329   -0.000101043
     29        1          -0.001116268   -0.000658062    0.000483440
     30        1          -0.000855363   -0.000832493   -0.000255127
     31        1           0.000984199   -0.000899516   -0.000084719
     32        6           0.008248594    0.009504554    0.012361633
     33        6          -0.011569087   -0.003056779    0.002312476
     34       16          -0.001193483   -0.004870422   -0.004837119
     35        6           0.005731614    0.005298450    0.014156807
     36        1          -0.001863821   -0.000768804   -0.001329381
     37        6           0.002094227   -0.004560832   -0.009670614
     38        8           0.002189047    0.000436992   -0.002731422
     39        6           0.001333145    0.000967965    0.003816542
     40        6          -0.000173899   -0.000768064   -0.004177365
     41        6           0.003359094   -0.001252648   -0.005809185
     42       16          -0.000881801   -0.000085205    0.000745248
     43        1          -0.001240615   -0.000044201    0.000047602
     44        1           0.000554883    0.001248162    0.000275278
     45        1           0.001819162   -0.001212826    0.000876906
     46        6           0.000097136   -0.000590414   -0.002329210
     47        8          -0.002011669   -0.000327584    0.000993659
     48        6           0.004260223    0.002171873    0.004134390
     49        1           0.000228198   -0.000163241   -0.000470153
     50        6           0.002168182    0.001883282    0.004288874
     51        1          -0.001099662   -0.000315855   -0.000283861
     52        1          -0.000852735   -0.001531596   -0.000218345
     53        1           0.000378734    0.000057023   -0.000096039
     54        1          -0.001149271    0.000712442   -0.000891755
 -------------------------------------------------------------------
 Cartesian Forces:  Max     0.051875368 RMS     0.014731975

 GradGradGradGradGradGradGradGradGradGradGradGradGradGradGradGradGradGrad
 Berny optimization.
 FormGI is forming the generalized inverse of G from B-inverse, IUseBI=4.
 Internal  Forces:  Max     0.037836185 RMS     0.007074711
 Search for a local minimum.
 Step number   1 out of a maximum of  307
 All quantities printed in internal units (Hartrees-Bohrs-Radians)
 Mixed Optimization -- RFO/linear search
 Second derivative matrix not updated -- first step.
 ITU=  0
     Eigenvalues ---    0.00803   0.00803   0.01176   0.01203   0.01245
     Eigenvalues ---    0.01292   0.01308   0.01311   0.01363   0.01389
     Eigenvalues ---    0.01419   0.01429   0.01459   0.01496   0.01516
     Eigenvalues ---    0.01568   0.01576   0.01577   0.01611   0.01652
     Eigenvalues ---    0.01693   0.01709   0.01711   0.01719   0.01754
     Eigenvalues ---    0.01783   0.01803   0.01847   0.01960   0.02040
     Eigenvalues ---    0.02047   0.02067   0.02073   0.02080   0.02135
     Eigenvalues ---    0.02149   0.02163   0.02178   0.02197   0.02217
     Eigenvalues ---    0.02235   0.02245   0.07556   0.07572   0.07690
     Eigenvalues ---    0.07700   0.10064   0.10069   0.10629   0.10636
     Eigenvalues ---    0.15983   0.15999   0.15999   0.16000   0.16000
     Eigenvalues ---    0.16000   0.16000   0.16000   0.16000   0.16000
     Eigenvalues ---    0.16000   0.16000   0.16000   0.16000   0.16000
     Eigenvalues ---    0.16000   0.16000   0.16000   0.22530   0.22583
     Eigenvalues ---    0.23518   0.23582   0.24516   0.24747   0.24867
     Eigenvalues ---    0.24931   0.24952   0.24985   0.24987   0.24988
     Eigenvalues ---    0.24991   0.24994   0.24997   0.24997   0.24998
     Eigenvalues ---    0.24998   0.25000   0.25000   0.25000   0.25000
     Eigenvalues ---    0.25000   0.25000   0.25000   0.25000   0.25000
     Eigenvalues ---    0.25000   0.28837   0.28889   0.30110   0.32153
     Eigenvalues ---    0.32582   0.32774   0.33111   0.33787   0.33957
     Eigenvalues ---    0.33999   0.34029   0.34076   0.34354   0.34466
     Eigenvalues ---    0.34577   0.34629   0.34693   0.34776   0.34932
     Eigenvalues ---    0.35198   0.35218   0.35468   0.35553   0.35582
     Eigenvalues ---    0.35864   0.35878   0.36078   0.36083   0.36232
     Eigenvalues ---    0.36396   0.36662   0.39352   0.40118   0.40194
     Eigenvalues ---    0.40586   0.40651   0.41524   0.41742   0.42024
     Eigenvalues ---    0.42300   0.42704   0.43455   0.43939   0.44092
     Eigenvalues ---    0.44594   0.44729   0.45014   0.45406   0.46251
     Eigenvalues ---    0.47305   0.47622   0.49310   0.49543   0.52882
     Eigenvalues ---    0.53158   0.93281   0.93432   0.93989   0.94585
     Eigenvalues --- 1000.000001000.000001000.000001000.000001000.00000
     Eigenvalues --- 1000.000001000.000001000.000001000.000001000.00000
     Eigenvalues --- 1000.000001000.000001000.000001000.000001000.00000
     Eigenvalues --- 1000.000001000.000001000.000001000.000001000.00000
     Eigenvalues --- 1000.000001000.000001000.000001000.000001000.00000
     Eigenvalues --- 1000.000001000.000001000.000001000.000001000.00000
     Eigenvalues --- 1000.000001000.000001000.000001000.000001000.00000
     Eigenvalues --- 1000.000001000.000001000.000001000.000001000.00000
     Eigenvalues --- 1000.000001000.000001000.000001000.000001000.00000
     Eigenvalues --- 1000.000001000.000001000.000001000.000001000.00000
     Eigenvalues --- 1000.000001000.000001000.000001000.000001000.00000
     Eigenvalues --- 1000.000001000.000001000.000001000.000001000.00000
     Eigenvalues --- 1000.000001000.000001000.000001000.000001000.00000
     Eigenvalues --- 1000.000001000.000001000.000001000.000001000.00000
     Eigenvalues --- 1000.000001000.000001000.000001000.000001000.00000
     Eigenvalues --- 1000.000001000.000001000.000001000.000001000.00000
     Eigenvalues --- 1000.000001000.000001000.000001000.000001000.00000
     Eigenvalues --- 1000.000001000.000001000.000001000.000001000.00000
     Eigenvalues --- 1000.000001000.000001000.000001000.000001000.00000
     Eigenvalues --- 1000.000001000.000001000.000001000.000001000.00000
     Eigenvalues --- 1000.000001000.000001000.000001000.000001000.00000
     Eigenvalues --- 1000.000001000.000001000.000001000.000001000.00000
     Eigenvalues --- 1000.000001000.000001000.000001000.000001000.00000
     Eigenvalues --- 1000.000001000.000001000.000001000.000001000.00000
     Eigenvalues --- 1000.000001000.000001000.000001000.000001000.00000
     Eigenvalues --- 1000.000001000.000001000.000001000.000001000.00000
     Eigenvalues --- 1000.000001000.000001000.000001000.000001000.00000
     Eigenvalues --- 1000.000001000.000001000.000001000.000001000.00000
     Eigenvalues --- 1000.000001000.00000
 RFO step:  Lambda=-3.24555054D-02 EMin= 8.02933640D-03
 Linear search not attempted -- first point.
 Iteration  1 RMS(Cart)=  0.20911746 RMS(Int)=  0.00283353
 Iteration  2 RMS(Cart)=  0.00854358 RMS(Int)=  0.00034628
 Iteration  3 RMS(Cart)=  0.00001149 RMS(Int)=  0.00034625
 Iteration  4 RMS(Cart)=  0.00000002 RMS(Int)=  0.00034625
 Iteration  1 RMS(Cart)=  0.00009320 RMS(Int)=  0.00001501
 Iteration  2 RMS(Cart)=  0.00005297 RMS(Int)=  0.00001675
 Iteration  3 RMS(Cart)=  0.00003011 RMS(Int)=  0.00001901
 Iteration  4 RMS(Cart)=  0.00001711 RMS(Int)=  0.00002057
 Iteration  5 RMS(Cart)=  0.00000973 RMS(Int)=  0.00002153
 Iteration  6 RMS(Cart)=  0.00000553 RMS(Int)=  0.00002209
 Iteration  7 RMS(Cart)=  0.00000314 RMS(Int)=  0.00002242
 Iteration  8 RMS(Cart)=  0.00000179 RMS(Int)=  0.00002260
 Iteration  9 RMS(Cart)=  0.00000101 RMS(Int)=  0.00002271
 Iteration 10 RMS(Cart)=  0.00000058 RMS(Int)=  0.00002277
 Variable       Old X    -DE/DX   Delta X   Delta X   Delta X     New X
                                 (Linear)    (Quad)   (Total)
    R1        2.80935  -0.02415   0.00000  -0.06513  -0.06513   2.74422
    R2        2.64584   0.00304   0.00000   0.00562   0.00564   2.65148
    R3        2.31147   0.03679   0.00000   0.03784   0.03784   2.34931
    R4        2.67311   0.00480   0.00000   0.01197   0.01193   2.68504
    R5        2.59267   0.03260   0.00000   0.06045   0.06037   2.65305
    R6        2.66894   0.00537   0.00000   0.01263   0.01263   2.68157
    R7        2.69164   0.00969   0.00000   0.02366   0.02371   2.71535
    R8        2.81049  -0.02295   0.00000  -0.06204  -0.06203   2.74847
    R9        2.62173   0.02987   0.00000   0.05816   0.05818   2.67990
   R10        2.65570   0.00218   0.00000   0.00392   0.00394   2.65964
   R11        2.30889   0.03784   0.00000   0.03868   0.03868   2.34757
   R12        2.70248  -0.03278   0.00000  -0.07529  -0.07534   2.62713
   R13        2.04786  -0.00004   0.00000  -0.00011  -0.00011   2.04774
   R14        2.70495   0.00513   0.00000   0.01234   0.01241   2.71736
   R15        2.68322   0.00599   0.00000   0.01398   0.01391   2.69713
   R16        2.68655   0.02781   0.00000   0.06015   0.06018   2.74673
   R17        2.81233  -0.02283   0.00000  -0.06191  -0.06188   2.75045
   R18        2.76359   0.00991   0.00000   0.02482   0.02482   2.78842
   R19        2.66221   0.00440   0.00000   0.00878   0.00883   2.67104
   R20        2.31391   0.03197   0.00000   0.03307   0.03307   2.34698
   R21        2.79415  -0.02230   0.00000  -0.05876  -0.05881   2.73534
   R22        2.63842   0.00166   0.00000   0.00288   0.00290   2.64132
   R23        2.31456   0.03680   0.00000   0.03812   0.03812   2.35268
   R24        2.62448   0.02960   0.00000   0.05777   0.05776   2.68224
   R25        2.64561  -0.02396   0.00000  -0.04996  -0.04996   2.59565
   R26        2.04921  -0.00082   0.00000  -0.00211  -0.00211   2.04710
   R27        2.04741  -0.00032   0.00000  -0.00082  -0.00082   2.04660
   R28        2.77259   0.00001   0.00000   0.00001   0.00001   2.77261
   R29        2.77252  -0.00007   0.00000  -0.00019  -0.00019   2.77233
   R30        2.06176  -0.00007   0.00000  -0.00019  -0.00019   2.06157
   R31        2.06551  -0.00111   0.00000  -0.00293  -0.00293   2.06258
   R32        2.05322  -0.00080   0.00000  -0.00207  -0.00207   2.05115
   R33        2.06368  -0.00066   0.00000  -0.00175  -0.00175   2.06192
   R34        2.06281  -0.00009   0.00000  -0.00023  -0.00023   2.06258
   R35        2.05355  -0.00088   0.00000  -0.00228  -0.00228   2.05127
   R36        2.61015  -0.00479   0.00000  -0.00908  -0.00896   2.60118
   R37        3.33295  -0.00184   0.00000  -0.00557  -0.00546   3.32749
   R38        2.66251   0.00939   0.00000   0.01984   0.01983   2.68234
   R39        2.03720   0.00199   0.00000   0.00504   0.00504   2.04224
   R40        3.30372   0.00669   0.00000   0.01960   0.01951   3.32323
   R41        2.64236  -0.00695   0.00000  -0.01425  -0.01438   2.62797
   R42        2.57065   0.00592   0.00000   0.01055   0.01055   2.58119
   R43        2.71393   0.00710   0.00000   0.01636   0.01636   2.73029
   R44        2.69253   0.00288   0.00000   0.00640   0.00640   2.69893
   R45        2.63193  -0.00006   0.00000  -0.00007  -0.00007   2.63186
   R46        3.32906   0.00108   0.00000   0.00358   0.00358   3.33263
   R47        2.06040  -0.00113   0.00000  -0.00298  -0.00298   2.05742
   R48        2.07201  -0.00138   0.00000  -0.00369  -0.00369   2.06832
   R49        2.07403  -0.00229   0.00000  -0.00615  -0.00615   2.06787
   R50        2.69237   0.00140   0.00000   0.00299   0.00299   2.69535
   R51        2.56807   0.00369   0.00000   0.00655   0.00655   2.57461
   R52        3.26207   0.00121   0.00000   0.00335   0.00334   3.26541
   R53        2.58734  -0.00287   0.00000  -0.00541  -0.00541   2.58193
   R54        2.04273  -0.00041   0.00000  -0.00104  -0.00104   2.04170
   R55        2.68892   0.00332   0.00000   0.00734   0.00734   2.69626
   R56        2.04295  -0.00112   0.00000  -0.00288  -0.00288   2.04008
   R57        2.07332  -0.00174   0.00000  -0.00467  -0.00467   2.06865
   R58        2.05786  -0.00038   0.00000  -0.00100  -0.00100   2.05686
   R59        2.07282  -0.00159   0.00000  -0.00426  -0.00426   2.06856
    A1        2.03797  -0.00188   0.00000  -0.00657  -0.00658   2.03139
    A2        2.14521   0.00678   0.00000   0.02395   0.02395   2.16915
    A3        2.10001  -0.00490   0.00000  -0.01738  -0.01738   2.08263
    A4        2.10395  -0.00170   0.00000  -0.00525  -0.00524   2.09871
    A5        2.08282   0.00215   0.00000   0.00496   0.00504   2.08786
    A6        2.09624  -0.00045   0.00000   0.00040   0.00029   2.09653
    A7        2.10093   0.00322   0.00000   0.01007   0.01001   2.11094
    A8        2.07104  -0.00106   0.00000  -0.00226  -0.00225   2.06879
    A9        2.11118  -0.00216   0.00000  -0.00773  -0.00773   2.10345
   A10        2.10296  -0.00241   0.00000  -0.00718  -0.00721   2.09576
   A11        2.09911   0.00101   0.00000   0.00424   0.00424   2.10335
   A12        2.08110   0.00140   0.00000   0.00296   0.00297   2.08407
   A13        2.03739  -0.00163   0.00000  -0.00574  -0.00572   2.03167
   A14        2.12972   0.00713   0.00000   0.02522   0.02521   2.15493
   A15        2.11607  -0.00550   0.00000  -0.01948  -0.01949   2.09658
   A16        2.15098   0.00065   0.00000   0.00242   0.00200   2.15298
   A17        2.04399   0.00345   0.00000   0.01906   0.01887   2.06286
   A18        2.08722  -0.00400   0.00000  -0.01969  -0.01989   2.06734
   A19        2.11101  -0.00198   0.00000  -0.00686  -0.00672   2.10428
   A20        2.04385  -0.00057   0.00000  -0.00136  -0.00140   2.04245
   A21        2.12832   0.00255   0.00000   0.00826   0.00811   2.13643
   A22        2.08678  -0.00066   0.00000  -0.00262  -0.00297   2.08382
   A23        2.04738  -0.00121   0.00000  -0.00133  -0.00178   2.04560
   A24        2.14662   0.00203   0.00000   0.00732   0.00694   2.15356
[...]
 Alpha  occ. eigenvalues --   -0.46615  -0.46065  -0.45779  -0.45446  -0.44810
 Alpha  occ. eigenvalues --   -0.44450  -0.44341  -0.44170  -0.42680  -0.42205
 Alpha  occ. eigenvalues --   -0.41531  -0.41126  -0.40908  -0.40520  -0.40362
 Alpha  occ. eigenvalues --   -0.40144  -0.39989  -0.39214  -0.38257  -0.38217
 Alpha  occ. eigenvalues --   -0.37886  -0.37672  -0.37411  -0.36905  -0.36787
 Alpha  occ. eigenvalues --   -0.36415  -0.36225  -0.35109  -0.34816  -0.34493
 Alpha  occ. eigenvalues --   -0.33327  -0.33036  -0.32693  -0.32394  -0.31654
 Alpha  occ. eigenvalues --   -0.30052  -0.27771  -0.26699  -0.26308  -0.25760
 Alpha  occ. eigenvalues --   -0.25571  -0.25040  -0.24456  -0.24131  -0.23972
 Alpha  occ. eigenvalues --   -0.23594  -0.23230  -0.20853  -0.18218  -0.13197
 Alpha virt. eigenvalues --   -0.04397  -0.03428  -0.01176  -0.00426  -0.00055
 Alpha virt. eigenvalues --    0.00523   0.00630   0.00974   0.01144   0.01469
 Alpha virt. eigenvalues --    0.01822   0.02563   0.02729   0.03088   0.03113
 Alpha virt. eigenvalues --    0.03394   0.03674   0.04133   0.04209   0.04340
 Alpha virt. eigenvalues --    0.04533   0.04894   0.04950   0.05028   0.05315
 Alpha virt. eigenvalues --    0.05588   0.05665   0.05986   0.06244   0.06602
 Alpha virt. eigenvalues --    0.06897   0.07015   0.07372   0.07794   0.07886
 Alpha virt. eigenvalues --    0.08177   0.08466   0.08567   0.08933   0.09024
 Alpha virt. eigenvalues --    0.09412   0.09493   0.09715   0.09991   0.10227
 Alpha virt. eigenvalues --    0.10754   0.11010   0.11112   0.11474   0.11685
 Alpha virt. eigenvalues --    0.11927   0.12260   0.12409   0.12635   0.13002
 Alpha virt. eigenvalues --    0.13179   0.13586   0.13838   0.14170   0.14438
 Alpha virt. eigenvalues --    0.14639   0.14779   0.14963   0.15284   0.15345
 Alpha virt. eigenvalues --    0.15843   0.15875   0.15997   0.16548   0.16755
 Alpha virt. eigenvalues --    0.16824   0.16885   0.17047   0.17376   0.17869
 Alpha virt. eigenvalues --    0.18040   0.18137   0.18461   0.18491   0.18966
 Alpha virt. eigenvalues --    0.19132   0.19215   0.19681   0.19872   0.19914
 Alpha virt. eigenvalues --    0.19988   0.20268   0.20453   0.20624   0.20901
 Alpha virt. eigenvalues --    0.21000   0.21353   0.21524   0.21575   0.21651
 Alpha virt. eigenvalues --    0.21998   0.22279   0.22373   0.22587   0.22789
 Alpha virt. eigenvalues --    0.22995   0.23391   0.23505   0.23613   0.23853
 Alpha virt. eigenvalues --    0.24059   0.24167   0.24614   0.24689   0.24831
 Alpha virt. eigenvalues --    0.25096   0.25228   0.25567   0.25738   0.25827
 Alpha virt. eigenvalues --    0.26083   0.26548   0.26695   0.26864   0.27063
 Alpha virt. eigenvalues --    0.27098   0.27188   0.27364   0.27720   0.27741
 Alpha virt. eigenvalues --    0.27836   0.28056   0.28259   0.28437   0.28760
 Alpha virt. eigenvalues --    0.28856   0.29207   0.29283   0.29497   0.29694
 Alpha virt. eigenvalues --    0.29819   0.30092   0.30304   0.30404   0.30457
 Alpha virt. eigenvalues --    0.30747   0.31100   0.31183   0.31283   0.31581
 Alpha virt. eigenvalues --    0.31698   0.32097   0.32323   0.32542   0.32874
 Alpha virt. eigenvalues --    0.32888   0.33239   0.33519   0.33798   0.33920
 Alpha virt. eigenvalues --    0.34448   0.34689   0.34795   0.35483   0.35617
 Alpha virt. eigenvalues --    0.35776   0.36102   0.36331   0.36732   0.36950
 Alpha virt. eigenvalues --    0.37747   0.37921   0.38294   0.38557   0.38961
 Alpha virt. eigenvalues --    0.39821   0.39975   0.40437   0.40953   0.41228
 Alpha virt. eigenvalues --    0.41576   0.41746   0.42043   0.42636   0.42812
 Alpha virt. eigenvalues --    0.43421   0.43670   0.44070   0.44421   0.44814
 Alpha virt. eigenvalues --    0.45071   0.45532   0.45828   0.46425   0.46648
 Alpha virt. eigenvalues --    0.47039   0.47720   0.47893   0.48029   0.48270
 Alpha virt. eigenvalues --    0.49046   0.49247   0.50154   0.50365   0.50790
 Alpha virt. eigenvalues --    0.51392   0.51795   0.52063   0.52471   0.52797
 Alpha virt. eigenvalues --    0.53954   0.54393   0.54544   0.55182   0.55536
 Alpha virt. eigenvalues --    0.56182   0.56578   0.56718   0.57525   0.57962
 Alpha virt. eigenvalues --    0.58201   0.58311   0.58524   0.58779   0.59110
 Alpha virt. eigenvalues --    0.59991   0.60047   0.60351   0.61269   0.61556
 Alpha virt. eigenvalues --    0.62196   0.62631   0.62941   0.63338   0.63872
 Alpha virt. eigenvalues --    0.64267   0.64463   0.64854   0.65416   0.65899
 Alpha virt. eigenvalues --    0.66169   0.66269   0.66628   0.66913   0.67243
 Alpha virt. eigenvalues --    0.68024   0.68425   0.68439   0.68584   0.69012
 Alpha virt. eigenvalues --    0.69309   0.69685   0.70419   0.70729   0.71041
 Alpha virt. eigenvalues --    0.71256   0.71451   0.72034   0.72092   0.72360
 Alpha virt. eigenvalues --    0.73207   0.73482   0.74109   0.74384   0.74863
 Alpha virt. eigenvalues --    0.75124   0.75365   0.75601   0.75785   0.75974
 Alpha virt. eigenvalues --    0.76658   0.76889   0.77043   0.77203   0.77748
 Alpha virt. eigenvalues --    0.77970   0.78264   0.78704   0.78816   0.79252
 Alpha virt. eigenvalues --    0.79668   0.80301   0.80683   0.81293   0.81426
 Alpha virt. eigenvalues --    0.82035   0.82614   0.82997   0.83549   0.83789
 Alpha virt. eigenvalues --    0.84528   0.84920   0.86089   0.86511   0.87790
 Alpha virt. eigenvalues --    0.88104   0.89097   0.89938   0.90243   0.90945
 Alpha virt. eigenvalues --    0.91654   0.92025   0.92455   0.93059   0.93386
 Alpha virt. eigenvalues --    0.93833   0.94022   0.95266   0.95509   0.95836
 Alpha virt. eigenvalues --    0.96337   0.96592   0.97345   0.97561   0.97880
 Alpha virt. eigenvalues --    0.98451   0.99313   0.99749   1.00123   1.00527
 Alpha virt. eigenvalues --    1.00965   1.01411   1.01771   1.02027   1.02711
 Alpha virt. eigenvalues --    1.02725   1.03903   1.04049   1.04296   1.04684
 Alpha virt. eigenvalues --    1.05399   1.05587   1.05898   1.06478   1.07070
 Alpha virt. eigenvalues --    1.07492   1.07651   1.08034   1.08335   1.08640
 Alpha virt. eigenvalues --    1.08980   1.09341   1.09447   1.10463   1.10643
 Alpha virt. eigenvalues --    1.11088   1.11803   1.12542   1.13050   1.14077
 Alpha virt. eigenvalues --    1.14219   1.14820   1.16487   1.16543   1.16995
 Alpha virt. eigenvalues --    1.17649   1.18355   1.18691   1.19097   1.20110
 Alpha virt. eigenvalues --    1.21654   1.21729   1.22341   1.23262   1.23654
 Alpha virt. eigenvalues --    1.24275   1.24923   1.25758   1.26110   1.26554
 Alpha virt. eigenvalues --    1.27805   1.28221   1.28681   1.30026   1.30274
 Alpha virt. eigenvalues --    1.30955   1.31753   1.32079   1.32328   1.33191
 Alpha virt. eigenvalues --    1.33910   1.35357   1.36071   1.36339   1.37060
 Alpha virt. eigenvalues --    1.37990   1.39531   1.40277   1.41162   1.42877
 Alpha virt. eigenvalues --    1.43190   1.43816   1.43922   1.44461   1.44708
 Alpha virt. eigenvalues --    1.44791   1.45844   1.46019   1.46759   1.47047
 Alpha virt. eigenvalues --    1.47739   1.48140   1.48370   1.48917   1.49690
 Alpha virt. eigenvalues --    1.50460   1.50840   1.51477   1.52154   1.53037
 Alpha virt. eigenvalues --    1.53587   1.54317   1.54636   1.55555   1.55813
 Alpha virt. eigenvalues --    1.56133   1.56367   1.56784   1.57100   1.57621
 Alpha virt. eigenvalues --    1.57827   1.57961   1.58483   1.59223   1.60611
 Alpha virt. eigenvalues --    1.61693   1.62581   1.62988   1.63335   1.63561
 Alpha virt. eigenvalues --    1.64095   1.64816   1.65388   1.65764   1.65960
 Alpha virt. eigenvalues --    1.66848   1.67313   1.67715   1.69234   1.69691
 Alpha virt. eigenvalues --    1.70224   1.71008   1.71240   1.71610   1.72486
 Alpha virt. eigenvalues --    1.73101   1.73255   1.74400   1.74742   1.75804
 Alpha virt. eigenvalues --    1.76799   1.77067   1.77270   1.77947   1.78038
 Alpha virt. eigenvalues --    1.78274   1.79682   1.80083   1.80489   1.81335
 Alpha virt. eigenvalues --    1.82356   1.82808   1.83974   1.84620   1.85248
 Alpha virt. eigenvalues --    1.86023   1.86459   1.87466   1.88321   1.89095
 Alpha virt. eigenvalues --    1.89378   1.89832   1.90298   1.92280   1.92490
 Alpha virt. eigenvalues --    1.92776   1.93314   1.93722   1.94559   1.95004
 Alpha virt. eigenvalues --    1.95629   1.96113   1.97039   1.97387   1.98548
 Alpha virt. eigenvalues --    1.99780   2.00113   2.00494   2.01110   2.02146
 Alpha virt. eigenvalues --    2.02505   2.03124   2.03299   2.04510   2.04727
 Alpha virt. eigenvalues --    2.05277   2.05624   2.06544   2.07004   2.07464
 Alpha virt. eigenvalues --    2.07921   2.08365   2.09046   2.10222   2.10469
 Alpha virt. eigenvalues --    2.11304   2.12093   2.12750   2.13361   2.13755
 Alpha virt. eigenvalues --    2.13952   2.14977   2.15840   2.16543   2.17489
 Alpha virt. eigenvalues --    2.17983   2.19719   2.20047   2.20507   2.21593
 Alpha virt. eigenvalues --    2.21930   2.22754   2.23124   2.24387   2.25142
 Alpha virt. eigenvalues --    2.26468   2.28878   2.30168   2.31973   2.32416
 Alpha virt. eigenvalues --    2.36499   2.37217   2.37736   2.39148   2.40266
 Alpha virt. eigenvalues --    2.41497   2.42622   2.43653   2.44100   2.44420
 Alpha virt. eigenvalues --    2.44831   2.45737   2.47662   2.48088   2.48801
 Alpha virt. eigenvalues --    2.49750   2.50158   2.50619   2.51734   2.52516
 Alpha virt. eigenvalues --    2.53064   2.53393   2.54047   2.54338   2.54582
 Alpha virt. eigenvalues --    2.54976   2.55660   2.56095   2.57189   2.58761
 Alpha virt. eigenvalues --    2.59306   2.60016   2.61608   2.62581   2.63719
 Alpha virt. eigenvalues --    2.64813   2.65576   2.67461   2.68200   2.68563
 Alpha virt. eigenvalues --    2.69275   2.69739   2.70000   2.70770   2.71187
 Alpha virt. eigenvalues --    2.72154   2.73035   2.73344   2.75101   2.75288
 Alpha virt. eigenvalues --    2.75729   2.75772   2.76520   2.77190   2.79055
 Alpha virt. eigenvalues --    2.79712   2.80344   2.81068   2.81733   2.83535
 Alpha virt. eigenvalues --    2.84190   2.84571   2.86641   2.87018   2.87517
 Alpha virt. eigenvalues --    2.87814   2.88409   2.89177   2.90245   2.91120
 Alpha virt. eigenvalues --    2.92048   2.93069   2.93647   2.93967   2.94411
 Alpha virt. eigenvalues --    2.94964   2.96208   2.96609   2.96648   2.97148
 Alpha virt. eigenvalues --    2.97904   2.99169   3.00118   3.00665   3.01942
 Alpha virt. eigenvalues --    3.03602   3.04218   3.05029   3.08226   3.08590
 Alpha virt. eigenvalues --    3.09402   3.10604   3.11485   3.13284   3.13937
 Alpha virt. eigenvalues --    3.15277   3.15609   3.17603   3.17668   3.20072
 Alpha virt. eigenvalues --    3.20779   3.22513   3.22979   3.23009   3.23746
 Alpha virt. eigenvalues --    3.24191   3.24951   3.25863   3.27796   3.31069
 Alpha virt. eigenvalues --    3.32255   3.33115   3.33776   3.34341   3.35410
 Alpha virt. eigenvalues --    3.35815   3.36145   3.36436   3.38120   3.39395
 Alpha virt. eigenvalues --    3.41303   3.42039   3.42102   3.43366   3.44168
 Alpha virt. eigenvalues --    3.45616   3.45967   3.49593   3.49687   3.52061
 Alpha virt. eigenvalues --    3.52984   3.55509   3.56256   3.60514   3.61876
 Alpha virt. eigenvalues --    3.63348   3.64483   3.67722   3.69271   3.70238
 Alpha virt. eigenvalues --    3.73524   3.74571   3.75040   3.75982   3.77634
 Alpha virt. eigenvalues --    3.78122   3.78365   3.83086   3.85532   3.86204
 Alpha virt. eigenvalues --    3.88049   3.89310   3.94361   3.95613   3.96480
 Alpha virt. eigenvalues --    3.97340   3.97831   4.00843   4.03976   4.06602
 Alpha virt. eigenvalues --    4.08552   4.09166   4.10953   4.14945   4.17263
 Alpha virt. eigenvalues --    4.21100   4.25723   4.29662   4.31667   4.41105
 Alpha virt. eigenvalues --    4.42435   4.46342   4.53476   4.67666   4.86277
 Alpha virt. eigenvalues --    4.90159   4.91222   4.94521   5.02742   5.03245
 Alpha virt. eigenvalues --    5.08560   5.10013   5.10326   5.13541   5.17106
 Alpha virt. eigenvalues --    5.18307   5.28491   5.30509   5.32723   5.35351
 Alpha virt. eigenvalues --    5.42607   5.43991   5.76473   5.78655   5.80412
 Alpha virt. eigenvalues --    5.83202   5.85125   5.88135   8.02642   8.06973
 Alpha virt. eigenvalues --   17.29724  17.36580  17.50456  17.53111  17.59704
 Alpha virt. eigenvalues --   17.63531  23.52992  23.59296  23.73306  23.81828
 Alpha virt. eigenvalues --   23.83778  23.86027  23.88117  23.91121  23.91852
 Alpha virt. eigenvalues --   23.92338  23.92789  23.93804  23.94850  23.95685
 Alpha virt. eigenvalues --   23.97623  23.98420  23.99851  24.03250  24.04336
 Alpha virt. eigenvalues --   24.05034  24.05726  24.06710  24.13236  24.16174
 Alpha virt. eigenvalues --   24.20147  24.22984  35.59454  35.62312  49.96983
 Alpha virt. eigenvalues --   49.98231  50.05644  50.07381  50.09124  50.10509
 Alpha virt. eigenvalues --  189.19951 189.25317
          Condensed to atoms (all electrons):
 Mulliken charges:
               1
     1  C    0.384401
     2  C   -0.149359
     3  C    0.085626
     4  C    0.224358
     5  C    0.252005
     6  C   -0.563811
     7  C    0.170119
     8  C   -0.067548
     9  C    0.265730
    10  C   -0.247867
    11  C    0.316659
    12  C    0.175427
    13  C   -0.555408
    14  C   -0.648861
    15  H    0.122560
    16  H    0.123501
    17  H    0.121011
    18  N   -0.119275
    19  N   -0.157959
    20  O   -0.527418
    21  O   -0.513240
    22  O   -0.516639
    23  O   -0.427781
    24  C   -0.184433
    25  H    0.161976
    26  H    0.161499
    27  H    0.168630
    28  C   -0.201223
    29  H    0.158917
    30  H    0.160808
    31  H    0.168701
    32  C    0.179567
    33  C   -0.567607
    34  S   -0.437620
    35  C   -0.229302
    36  H    0.138618
    37  C    0.347522
    38  O   -0.157979
    39  C    0.850078
    40  C   -0.255886
    41  C   -0.002763
    42  S   -0.228130
    43  H    0.172411
    44  H    0.160580
    45  H    0.161680
    46  C   -0.529546
    47  O   -0.172450
    48  C   -0.346133
    49  H    0.157236
    50  C   -0.248609
    51  H    0.183946
    52  H    0.156919
    53  H    0.170971
    54  H    0.155390
 Sum of Mulliken charges =  -2.00000
 Mulliken charges with hydrogens summed into heavy atoms:
               1
     1  C    0.384401
     2  C   -0.149359
     3  C    0.085626
     4  C    0.224358
     5  C    0.252005
     6  C   -0.442800
     7  C    0.170119
     8  C   -0.067548
     9  C    0.265730
    10  C   -0.247867
    11  C    0.316659
    12  C    0.175427
    13  C   -0.431906
    14  C   -0.526300
    18  N   -0.119275
    19  N   -0.157959
    20  O   -0.527418
    21  O   -0.513240
    22  O   -0.516639
    23  O   -0.427781
    24  C    0.307673
    28  C    0.287203
    32  C    0.179567
    33  C   -0.428988
    34  S   -0.437620
    35  C   -0.229302
    37  C    0.347522
    38  O   -0.157979
    39  C    0.850078
    40  C    0.238785
    41  C   -0.002763
    42  S   -0.228130
    46  C   -0.372310
    47  O   -0.172450
    48  C   -0.162187
    50  C    0.234671
 Electronic spatial extent (au):  <R**2>=          22439.4661
 Charge=             -2.0000 electrons
 Dipole moment (field-independent basis, Debye):
    X=             27.4172    Y=             -3.0031    Z=              0.7996  Tot=             27.5928
 Quadrupole moment (field-independent basis, Debye-Ang):
   XX=           -376.8100   YY=           -305.5859   ZZ=           -218.0720
   XY=              8.2391   XZ=             24.8088   YZ=             24.8686
 Traceless Quadrupole moment (field-independent basis, Debye-Ang):
   XX=            -76.6540   YY=             -5.4300   ZZ=             82.0840
   XY=              8.2391   XZ=             24.8088   YZ=             24.8686
 Octapole moment (field-independent basis, Debye-Ang**2):
  XXX=           1040.9891  YYY=            -91.9782  ZZZ=              8.1641  XYY=            271.0701
  XXY=             29.8619  XXZ=            -13.3068  XZZ=            116.2087  YZZ=            -15.6430
  YYZ=              0.5650  XYZ=             26.4981
 Hexadecapole moment (field-independent basis, Debye-Ang**3):
 XXXX=         -26752.1611 YYYY=          -7764.4350 ZZZZ=          -2152.4867 XXXY=           -127.1438
 XXXZ=           1217.4723 YYYX=            571.7576 YYYZ=            184.0747 ZZZX=            132.8281
 ZZZY=            207.3813 XXYY=          -5653.5224 XXZZ=          -3964.0566 YYZZ=          -1374.9069
 XXYZ=            429.5798 YYXZ=            -55.1942 ZZXY=             37.2409
 N-N= 4.083799189500D+03 E-N=-1.376966391377D+04  KE= 2.352149335546D+03
 Unable to Open any file for archive entry.
 1\1\GINC-CX3-6-19\FOpt\RB3LYP\6-311+G(d,p)\C26H18N2O6S2(2-)\NS5018\28-
 Oct-2021\0\\# opt=modredundant b3lyp/6-311+g(d,p) scrf=(pcm, solvent=w
 ater)\\NDI_-120.pdb\\-2,1\C,-2.5592471482,-2.9483007471,-0.5169002572\
 C,-2.2574796726,-1.5603556408,-0.3275852395\C,-3.2890036084,-0.6442934
 376,-0.0029697412\C,-4.6296170963,-1.0781635529,0.1475431662\C,-4.9650
 019265,-2.4624753515,-0.0313995674\C,-0.9088025827,-1.1048110339,-0.41
 37002861\C,-2.9590725143,0.7551775761,0.1578525218\C,-1.6115096978,1.1
 959242147,-0.0049014928\C,-0.5652686994,0.2120506808,-0.2425164098\C,-
 1.3466868703,2.6087076091,-0.012663371\C,-3.7422436297,3.067617294,0.5
 694502533\C,-4.0097393252,1.6646579769,0.4500554748\C,-5.3542230925,1.
 1910269632,0.6104126933\C,-5.6560319186,-0.1297763937,0.4672319906\H,-
 6.6715394884,-0.4881790657,0.5816095442\H,-6.1229766547,1.9180255679,0
 .8417858806\H,-0.1336131681,-1.8447540238,-0.5686203964\N,-2.418451548
 9,3.463470937,0.3256840068\N,-3.903847023,-3.3274672409,-0.3647757414\
 O,-1.7142018772,-3.831656074,-0.8045835689\O,-6.1262859496,-2.92427198
 76,0.0866680205\O,-4.6109136227,3.9297042702,0.8530947369\O,-0.2527181
 703,3.1441389499,-0.3036133554\C,-2.1083833037,4.8943641917,0.36193253
 41\H,-1.2483416337,5.0727900148,1.0073309987\H,-1.8629952854,5.2603085
 065,-0.6378308027\H,-2.981992281,5.4156740092,0.7393438046\C,-4.203176
 664,-4.7461803845,-0.5713113567\H,-3.8712502531,-5.0585120794,-1.56231
 71579\H,-3.6827032178,-5.3571622773,0.1689479535\H,-5.2756638506,-4.87
 93640564,-0.4740056617\C,0.8797331989,0.5232864451,-0.2369229381\C,1.7
 798028383,0.3673652498,-1.2584130535\S,1.69626802,1.0038843999,1.23421
 56295\C,3.1219847127,0.6584384494,-0.8785315354\H,1.4802098801,0.07315
 39398,-2.253953301\C,3.2777889947,1.0316579644,0.4469451149\O,4.213588
 0897,0.6018841006,-1.696371491\C,4.4921786331,1.3986098971,1.137340378
 8\C,4.0081697643,0.2432834357,-3.0655360434\C,4.6575560128,1.746710686
 1,2.47146044\S,6.0577549902,1.4710746001,0.3274039561\H,4.9921312373,0
 .2644575603,-3.5302294816\H,3.5868334466,-0.7624111566,-3.1495737204\H
 ,3.3524398361,0.9615207693,-3.565750172\C,5.99932911,2.0651463186,2.83
 46634784\O,3.5786117709,1.7576712508,3.3072723452\C,6.8611068411,1.959
 8008361,1.7805221222\H,6.3095699552,2.3563325902,3.8277690108\C,3.7910
 039684,2.1453939759,4.6669758486\H,7.9255201054,2.1374626044,1.7702816
 305\H,4.1749076577,3.1677521537,4.7290409888\H,2.8158745696,2.09421466
 64,5.1474562531\H,4.4806181415,1.4603938481,5.1686853656\\Version=ES64
 L-G16RevC.01\State=1-A\HF=-2359.6251574\RMSD=3.451e-09\RMSF=1.758e-04\
 Dipole=10.6450113,1.7275872,1.2443722\Quadrupole=-56.5057521,-12.14193
 32,68.6476853,-12.6555066,4.926618,-1.7335573\PG=C01 [X(C26H18N2O6S2)]
 \\@
 The archive entry for this job was punched.


 SUCCESS-- IF YOU HAVE TRIED TO DO SOMETHING AND FAILED
           YOU ARE BETTER OFF THAN IF YOU HAD TRIED TO DO
           NOTHING AND SUCCEEDED.

                   -- FROM THE BACK OF A SUGAR PACKET
 Job cpu time:       2 days 18 hours 45 minutes 56.5 seconds.
 Elapsed time:       0 days  4 hours 13 minutes 37.7 seconds.
 File lengths (MBytes):  RWF=    853 Int=      0 D2E=      0 Chk=     65 Scr=      1
 Normal termination of Gaussian 16 at Thu Oct 28 09:29:48 2021.
