 Entering Gaussian System, Link 0=g16
 Input=NDI_-175.gjf
 Output=NDI_-175.log
 Initial command:
 /apps/gaussian/g16-c01-avx/g16/l1.exe "/tmp/pbs.4768676[0].pbs/Gau-27602.inp" -scrdir="/tmp/pbs.4768676[0].pbs/"
 Entering Link 1 = /apps/gaussian/g16-c01-avx/g16/l1.exe PID=     27603.
  
 Copyright (c) 1988-2019, Gaussian, Inc.  All Rights Reserved.
  
 This is part of the Gaussian(R) 16 program.  It is based on
 the Gaussian(R) 09 system (copyright 2009, Gaussian, Inc.),
 the Gaussian(R) 03 system (copyright 2003, Gaussian, Inc.),
 the Gaussian(R) 98 system (copyright 1998, Gaussian, Inc.),
 the Gaussian(R) 94 system (copyright 1995, Gaussian, Inc.),
 the Gaussian 92(TM) system (copyright 1992, Gaussian, Inc.),
 the Gaussian 90(TM) system (copyright 1990, Gaussian, Inc.),
 the Gaussian 88(TM) system (copyright 1988, Gaussian, Inc.),
 the Gaussian 86(TM) system (copyright 1986, Carnegie Mellon
 University), and the Gaussian 82(TM) system (copyright 1983,
 Carnegie Mellon University). Gaussian is a federally registered
 trademark of Gaussian, Inc.
  
 This software contains proprietary and confidential information,
 including trade secrets, belonging to Gaussian, Inc.
  
 This software is provided under written license and may be
 used, copied, transmitted, or stored only in accord with that
 written license.
  
 The following legend is applicable only to US Government
 contracts under FAR:
  
                    RESTRICTED RIGHTS LEGEND
  
 Use, reproduction and disclosure by the US Government is
 subject to restrictions as set forth in subparagraphs (a)
 and (c) of the Commercial Computer Software - Restricted
 Rights clause in FAR 52.227-19.
  
 Gaussian, Inc.
 340 Quinnipiac St., Bldg. 40, Wallingford CT 06492
  
  
 ---------------------------------------------------------------
 Warning -- This program may not be used in any manner that
 competes with the business of Gaussian, Inc. or will provide
 assistance to any competitor of Gaussian, Inc.  The licensee
 of this program is prohibited from giving any competitor of
 Gaussian, Inc. access to this program.  By using this program,
 the user acknowledges that Gaussian, Inc. is engaged in the
 business of creating and licensing software in the field of
 computational chemistry and represents and warrants to the
 licensee that it is not a competitor of Gaussian, Inc. and that
 it will not use this program in any manner prohibited above.
 ---------------------------------------------------------------
  

 Cite this work as:
 Gaussian 16, Revision C.01,
 M. J. Frisch, G. W. Trucks, H. B. Schlegel, G. E. Scuseria, 
 M. A. Robb, J. R. Cheeseman, G. Scalmani, V. Barone, 
 G. A. Petersson, H. Nakatsuji, X. Li, M. Caricato, A. V. Marenich, 
 J. Bloino, B. G. Janesko, R. Gomperts, B. Mennucci, H. P. Hratchian, 
 J. V. Ortiz, A. F. Izmaylov, J. L. Sonnenberg, D. Williams-Young, 
 F. Ding, F. Lipparini, F. Egidi, J. Goings, B. Peng, A. Petrone, 
 T. Henderson, D. Ranasinghe, V. G. Zakrzewski, J. Gao, N. Rega, 
 G. Zheng, W. Liang, M. Hada, M. Ehara, K. Toyota, R. Fukuda, 
 J. Hasegawa, M. Ishida, T. Nakajima, Y. Honda, O. Kitao, H. Nakai, 
 T. Vreven, K. Throssell, J. A. Montgomery, Jr., J. E. Peralta, 
 F. Ogliaro, M. J. Bearpark, J. J. Heyd, E. N. Brothers, K. N. Kudin, 
 V. N. Staroverov, T. A. Keith, R. Kobayashi, J. Normand, 
 K. Raghavachari, A. P. Rendell, J. C. Burant, S. S. Iyengar, 
 J. Tomasi, M. Cossi, J. M. Millam, M. Klene, C. Adamo, R. Cammi, 
 J. W. Ochterski, R. L. Martin, K. Morokuma, O. Farkas, 
 J. B. Foresman, and D. J. Fox, Gaussian, Inc., Wallingford CT, 2019.
 
 ******************************************
 Gaussian 16:  ES64L-G16RevC.01  3-Jul-2019
                28-Oct-2021 
 ******************************************
 %mem=100GB
 %nprocshared=16
 Will use up to   16 processors via shared memory.
 ---------------------------------------------------------------
 # opt=modredundant b3lyp/6-311+g(d,p) scrf=(pcm, solvent=water)
 ---------------------------------------------------------------
 1/18=120,19=15,26=3,38=1/1,3;
 2/9=110,12=2,17=6,18=5,40=1/2;
 3/5=4,6=6,7=111,11=2,25=1,30=1,70=2201,71=1,72=1,74=-5/1,2,3;
 4//1;
 5/5=2,38=5,53=1/2;
 6/7=2,8=2,9=2,10=2,28=1/1;
 7//1,2,3,16;
 1/18=20,19=15,26=3/3(2);
 2/9=110/2;
 99//99;
 2/9=110/2;
 3/5=4,6=6,7=111,11=2,25=1,30=1,70=2205,71=1,72=1,74=-5/1,2,3;
 4/5=5,16=3,69=1/1;
 5/5=2,38=5,53=1/2;
 7//1,2,3,16;
 1/18=20,19=15,26=3/3(-5);
 2/9=110/2;
 6/7=2,8=2,9=2,10=2,19=2,28=1/1;
 99/9=1/99;
 ------------
 NDI_-175.pdb
 ------------
 Symbolic Z-matrix:
 Charge = -2 Multiplicity = 1
 C                    -2.563    -2.994    -0.409 
 C                    -2.257    -1.551    -0.224 
 C                    -3.301    -0.607    -0.083 
 C                    -4.65     -1.024    -0.115 
 C                    -4.992    -2.459    -0.304 
 C                    -0.949    -1.137    -0.215 
 C                    -2.962     0.764     0.102 
 C                    -1.595     1.188     0.123 
 C                    -0.561     0.232    -0.072 
 C                    -1.328     2.616     0.446 
 C                    -3.777     3.115     0.508 
 C                    -4.035     1.679     0.268 
 C                    -5.356     1.252     0.23 
 C                    -5.672    -0.098     0.036 
 H                    -6.699    -0.442     0.008 
 H                    -6.133     1.997     0.361 
 H                    -0.19     -1.895    -0.369 
 N                    -2.432     3.476     0.608 
 N                    -3.916    -3.353    -0.438 
 O                    -1.695    -3.847    -0.532 
 O                    -6.149    -2.85     -0.34 
 O                    -4.676     3.938     0.629 
 O                    -0.212     3.097     0.596 
 C                    -2.111     4.875     0.912 
 H                    -1.54      4.931     1.84 
 H                    -1.5       5.299     0.111 
 H                    -3.05      5.414     1.003 
 C                    -4.206    -4.779    -0.625 
 H                    -3.759    -5.126    -1.559 
 H                    -3.775    -5.355     0.196 
 H                    -5.286    -4.897    -0.649 
 C                     0.876     0.482    -0.178 
 C                     1.924    -0.374    -0.456 
 S                     1.494     2.08      0.242 
 C                     3.191     0.232    -0.342 
 H                     1.778    -1.403    -0.741 
 C                     3.156     1.582     0.023 
 O                     4.395    -0.364    -0.55 
 C                     4.266     2.479     0.177 
 C                     4.39     -1.696    -1.057 
 C                     4.23      3.817     0.563 
 S                     5.936     2.       -0.113 
 H                     5.435    -1.955    -1.228 
 H                     3.956    -2.395    -0.333 
 H                     3.835    -1.758    -2.001 
 C                     5.509     4.441     0.624 
 O                     3.033     4.398     0.836 
 C                     6.515     3.577     0.284 
 H                     5.675     5.472     0.904 
 C                     3.031     5.757     1.262 
 H                     7.576     3.784     0.249 
 H                     3.444     6.416     0.488 
 H                     1.988     6.016     1.438 
 H                     3.6       5.883     2.19 
 
 The following ModRedundant input section has been read:
 D       8       9      32      33 F                                           
 

 GradGradGradGradGradGradGradGradGradGradGradGradGradGradGradGradGradGrad
 Berny optimization.
 Initialization pass.
                           ----------------------------
                           !    Initial Parameters    !
                           ! (Angstroms and Degrees)  !
 --------------------------                            --------------------------
 ! Name  Definition              Value          Derivative Info.                !
 --------------------------------------------------------------------------------
 ! R1    R(1,2)                  1.4866         estimate D2E/DX2                !
 ! R2    R(1,19)                 1.4001         estimate D2E/DX2                !
 ! R3    R(1,20)                 1.2232         estimate D2E/DX2                !
 ! R4    R(2,3)                  1.4146         estimate D2E/DX2                !
 ! R5    R(2,6)                  1.372          estimate D2E/DX2                !
 ! R6    R(3,4)                  1.4123         estimate D2E/DX2                !
 ! R7    R(3,7)                  1.4244         estimate D2E/DX2                !
 ! R8    R(4,5)                  1.4872         estimate D2E/DX2                !
 ! R9    R(4,14)                 1.3874         estimate D2E/DX2                !
 ! R10   R(5,19)                 1.4053         estimate D2E/DX2                !
 ! R11   R(5,21)                 1.2218         estimate D2E/DX2                !
 ! R12   R(6,9)                  1.4301         estimate D2E/DX2                !
 ! R13   R(6,17)                 1.0837         estimate D2E/DX2                !
 ! R14   R(7,8)                  1.4314         estimate D2E/DX2                !
 ! R15   R(7,12)                 1.4199         estimate D2E/DX2                !
 ! R16   R(8,9)                  1.4217         estimate D2E/DX2                !
 ! R17   R(8,10)                 1.4882         estimate D2E/DX2                !
 ! R18   R(9,32)                 1.4624         estimate D2E/DX2                !
 ! R19   R(10,18)                1.4088         estimate D2E/DX2                !
 ! R20   R(10,23)                1.2245         estimate D2E/DX2                !
 ! R21   R(11,12)                1.4786         estimate D2E/DX2                !
 ! R22   R(11,18)                1.3962         estimate D2E/DX2                !
 ! R23   R(11,22)                1.2248         estimate D2E/DX2                !
 ! R24   R(12,13)                1.3888         estimate D2E/DX2                !
 ! R25   R(13,14)                1.4            estimate D2E/DX2                !
 ! R26   R(13,16)                1.0844         estimate D2E/DX2                !
 ! R27   R(14,15)                1.0834         estimate D2E/DX2                !
 ! R28   R(18,24)                1.4672         estimate D2E/DX2                !
 ! R29   R(19,28)                1.4672         estimate D2E/DX2                !
 ! R30   R(24,25)                1.091          estimate D2E/DX2                !
 ! R31   R(24,26)                1.093          estimate D2E/DX2                !
 ! R32   R(24,27)                1.0865         estimate D2E/DX2                !
 ! R33   R(28,29)                1.0921         estimate D2E/DX2                !
 ! R34   R(28,30)                1.0916         estimate D2E/DX2                !
 ! R35   R(28,31)                1.0867         estimate D2E/DX2                !
 ! R36   R(32,33)                1.3814         estimate D2E/DX2                !
 ! R37   R(32,34)                1.7641         estimate D2E/DX2                !
 ! R38   R(33,35)                1.4091         estimate D2E/DX2                !
 ! R39   R(33,36)                1.0777         estimate D2E/DX2                !
 ! R40   R(34,37)                1.7488         estimate D2E/DX2                !
 ! R41   R(35,37)                1.3989         estimate D2E/DX2                !
 ! R42   R(35,38)                1.3594         estimate D2E/DX2                !
 ! R43   R(37,39)                1.4354         estimate D2E/DX2                !
 ! R44   R(38,40)                1.4252         estimate D2E/DX2                !
 ! R45   R(39,41)                1.393          estimate D2E/DX2                !
 ! R46   R(39,42)                1.7614         estimate D2E/DX2                !
 ! R47   R(40,43)                1.0901         estimate D2E/DX2                !
 ! R48   R(40,44)                1.096          estimate D2E/DX2                !
 ! R49   R(40,45)                1.0968         estimate D2E/DX2                !
 ! R50   R(41,46)                1.4244         estimate D2E/DX2                !
 ! R51   R(41,47)                1.3583         estimate D2E/DX2                !
 ! R52   R(42,48)                1.7262         estimate D2E/DX2                !
 ! R53   R(46,48)                1.369          estimate D2E/DX2                !
 ! R54   R(46,49)                1.0812         estimate D2E/DX2                !
 ! R55   R(47,50)                1.4242         estimate D2E/DX2                !
 ! R56   R(48,51)                1.0816         estimate D2E/DX2                !
 ! R57   R(50,52)                1.0972         estimate D2E/DX2                !
 ! R58   R(50,53)                1.089          estimate D2E/DX2                !
 ! R59   R(50,54)                1.0958         estimate D2E/DX2                !
 ! A1    A(2,1,19)             116.767          estimate D2E/DX2                !
 ! A2    A(2,1,20)             122.9113         estimate D2E/DX2                !
 ! A3    A(19,1,20)            120.3217         estimate D2E/DX2                !
 ! A4    A(1,2,3)              120.5473         estimate D2E/DX2                !
 ! A5    A(1,2,6)              119.3369         estimate D2E/DX2                !
 ! A6    A(3,2,6)              120.1056         estimate D2E/DX2                !
 ! A7    A(2,3,4)              120.3743         estimate D2E/DX2                !
 ! A8    A(2,3,7)              118.662          estimate D2E/DX2                !
 ! A9    A(4,3,7)              120.9617         estimate D2E/DX2                !
 ! A10   A(3,4,5)              120.4909         estimate D2E/DX2                !
 ! A11   A(3,4,14)             120.2702         estimate D2E/DX2                !
 ! A12   A(5,4,14)             119.2382         estimate D2E/DX2                !
 ! A13   A(4,5,19)             116.7341         estimate D2E/DX2                !
 ! A14   A(4,5,21)             122.024          estimate D2E/DX2                !
 ! A15   A(19,5,21)            121.2418         estimate D2E/DX2                !
 ! A16   A(2,6,9)              123.2421         estimate D2E/DX2                !
 ! A17   A(2,6,17)             117.1119         estimate D2E/DX2                !
 ! A18   A(9,6,17)             119.589          estimate D2E/DX2                !
 ! A19   A(3,7,8)              120.9519         estimate D2E/DX2                !
 ! A20   A(3,7,12)             117.1037         estimate D2E/DX2                !
 ! A21   A(8,7,12)             121.944          estimate D2E/DX2                !
 ! A22   A(7,8,9)              119.5639         estimate D2E/DX2                !
 ! A23   A(7,8,10)             117.3064         estimate D2E/DX2                !
 ! A24   A(9,8,10)             122.9922         estimate D2E/DX2                !
 ! A25   A(6,9,8)              117.3944         estimate D2E/DX2                !
 ! A26   A(6,9,32)             115.0236         estimate D2E/DX2                !
 ! A27   A(8,9,32)             127.5648         estimate D2E/DX2                !
 ! A28   A(8,10,18)            118.042          estimate D2E/DX2                !
 ! A29   A(8,10,23)            124.5436         estimate D2E/DX2                !
 ! A30   A(18,10,23)           117.4097         estimate D2E/DX2                !
 ! A31   A(12,11,18)           115.5202         estimate D2E/DX2                !
 ! A32   A(12,11,22)           122.7205         estimate D2E/DX2                !
 ! A33   A(18,11,22)           121.7534         estimate D2E/DX2                !
 ! A34   A(7,12,11)            120.8614         estimate D2E/DX2                !
 ! A35   A(7,12,13)            121.162          estimate D2E/DX2                !
 ! A36   A(11,12,13)           117.9699         estimate D2E/DX2                !
 ! A37   A(12,13,14)           120.9948         estimate D2E/DX2                !
 ! A38   A(12,13,16)           117.8401         estimate D2E/DX2                !
 ! A39   A(14,13,16)           121.1642         estimate D2E/DX2                !
 ! A40   A(4,14,13)            119.5003         estimate D2E/DX2                !
 ! A41   A(4,14,15)            118.9169         estimate D2E/DX2                !
 ! A42   A(13,14,15)           121.5811         estimate D2E/DX2                !
 ! A43   A(10,18,11)           126.0753         estimate D2E/DX2                !
 ! A44   A(10,18,24)           115.7508         estimate D2E/DX2                !
 ! A45   A(11,18,24)           118.1737         estimate D2E/DX2                !
 ! A46   A(1,19,5)             125.0856         estimate D2E/DX2                !
 ! A47   A(1,19,28)            116.2868         estimate D2E/DX2                !
 ! A48   A(5,19,28)            118.6276         estimate D2E/DX2                !
 ! A49   A(18,24,25)           109.8574         estimate D2E/DX2                !
 ! A50   A(18,24,26)           109.8979         estimate D2E/DX2                !
 ! A51   A(18,24,27)           107.5355         estimate D2E/DX2                !
 ! A52   A(25,24,26)           108.1108         estimate D2E/DX2                !
 ! A53   A(25,24,27)           110.8301         estimate D2E/DX2                !
 ! A54   A(26,24,27)           110.6124         estimate D2E/DX2                !
 ! A55   A(19,28,29)           109.6906         estimate D2E/DX2                !
 ! A56   A(19,28,30)           109.8136         estimate D2E/DX2                !
 ! A57   A(19,28,31)           107.7461         estimate D2E/DX2                !
 ! A58   A(29,28,30)           108.2991         estimate D2E/DX2                !
 ! A59   A(29,28,31)           110.6959         estimate D2E/DX2                !
 ! A60   A(30,28,31)           110.5924         estimate D2E/DX2                !
 ! A61   A(9,32,33)            130.8518         estimate D2E/DX2                !
 ! A62   A(9,32,34)            118.8052         estimate D2E/DX2                !
 ! A63   A(33,32,34)           110.0878         estimate D2E/DX2                !
 ! A64   A(32,33,35)           113.5387         estimate D2E/DX2                !
 ! A65   A(32,33,36)           122.8272         estimate D2E/DX2                !
 ! A66   A(35,33,36)           123.6318         estimate D2E/DX2                !
 ! A67   A(32,34,37)            92.5886         estimate D2E/DX2                !
 ! A68   A(33,35,37)           114.4338         estimate D2E/DX2                !
 ! A69   A(33,35,38)           126.5429         estimate D2E/DX2                !
 ! A70   A(37,35,38)           119.0233         estimate D2E/DX2                !
 ! A71   A(34,37,35)           109.3457         estimate D2E/DX2                !
 ! A72   A(34,37,39)           122.9245         estimate D2E/DX2                !
 ! A73   A(35,37,39)           127.7127         estimate D2E/DX2                !
 ! A74   A(35,38,40)           117.4552         estimate D2E/DX2                !
 ! A75   A(37,39,41)           127.5868         estimate D2E/DX2                !
 ! A76   A(37,39,42)           123.0638         estimate D2E/DX2                !
 ! A77   A(41,39,42)           109.3494         estimate D2E/DX2                !
 ! A78   A(38,40,43)           105.9314         estimate D2E/DX2                !
 ! A79   A(38,40,44)           111.2516         estimate D2E/DX2                !
 ! A80   A(38,40,45)           111.1476         estimate D2E/DX2                !
 ! A81   A(43,40,44)           109.3722         estimate D2E/DX2                !
 ! A82   A(43,40,45)           109.6717         estimate D2E/DX2                !
 ! A83   A(44,40,45)           109.3984         estimate D2E/DX2                !
 ! A84   A(39,41,46)           114.1692         estimate D2E/DX2                !
 ! A85   A(39,41,47)           119.2959         estimate D2E/DX2                !
 ! A86   A(46,41,47)           126.5348         estimate D2E/DX2                !
 ! A87   A(39,42,48)            91.8172         estimate D2E/DX2                !
 ! A88   A(41,46,48)           111.8833         estimate D2E/DX2                !
 ! A89   A(41,46,49)           124.5208         estimate D2E/DX2                !
 ! A90   A(48,46,49)           123.5959         estimate D2E/DX2                !
 ! A91   A(41,47,50)           118.0033         estimate D2E/DX2                !
 ! A92   A(42,48,46)           112.7809         estimate D2E/DX2                !
 ! A93   A(42,48,51)           119.7649         estimate D2E/DX2                !
 ! A94   A(46,48,51)           127.4537         estimate D2E/DX2                !
 ! A95   A(47,50,52)           111.197          estimate D2E/DX2                !
 ! A96   A(47,50,53)           106.0593         estimate D2E/DX2                !
 ! A97   A(47,50,54)           111.2412         estimate D2E/DX2                !
 ! A98   A(52,50,53)           109.3699         estimate D2E/DX2                !
 ! A99   A(52,50,54)           109.4434         estimate D2E/DX2                !
 ! A100  A(53,50,54)           109.4572         estimate D2E/DX2                !
 ! D1    D(19,1,2,3)             0.1578         estimate D2E/DX2                !
 ! D2    D(19,1,2,6)          -178.6792         estimate D2E/DX2                !
 ! D3    D(20,1,2,3)          -179.8231         estimate D2E/DX2                !
 ! D4    D(20,1,2,6)             1.3399         estimate D2E/DX2                !
 ! D5    D(2,1,19,5)            -0.124          estimate D2E/DX2                !
 ! D6    D(2,1,19,28)          179.8267         estimate D2E/DX2                !
 ! D7    D(20,1,19,5)          179.8575         estimate D2E/DX2                !
 ! D8    D(20,1,19,28)          -0.1919         estimate D2E/DX2                !
 ! D9    D(1,2,3,4)              0.0571         estimate D2E/DX2                !
 ! D10   D(1,2,3,7)            179.5453         estimate D2E/DX2                !
 ! D11   D(6,2,3,4)            178.8851         estimate D2E/DX2                !
 ! D12   D(6,2,3,7)             -1.6266         estimate D2E/DX2                !
 ! D13   D(1,2,6,9)            178.625          estimate D2E/DX2                !
 ! D14   D(1,2,6,17)             1.3881         estimate D2E/DX2                !
 ! D15   D(3,2,6,9)             -0.2173         estimate D2E/DX2                !
 ! D16   D(3,2,6,17)          -177.4541         estimate D2E/DX2                !
 ! D17   D(2,3,4,5)             -0.3074         estimate D2E/DX2                !
 ! D18   D(2,3,4,14)           179.3968         estimate D2E/DX2                !
 ! D19   D(7,3,4,5)           -179.7837         estimate D2E/DX2                !
 ! D20   D(7,3,4,14)            -0.0795         estimate D2E/DX2                !
 ! D21   D(2,3,7,8)              1.0523         estimate D2E/DX2                !
 ! D22   D(2,3,7,12)          -178.712          estimate D2E/DX2                !
 ! D23   D(4,3,7,8)           -179.4626         estimate D2E/DX2                !
 ! D24   D(4,3,7,12)             0.7731         estimate D2E/DX2                !
 ! D25   D(3,4,5,19)             0.3343         estimate D2E/DX2                !
 ! D26   D(3,4,5,21)          -179.7799         estimate D2E/DX2                !
 ! D27   D(14,4,5,19)         -179.3729         estimate D2E/DX2                !
 ! D28   D(14,4,5,21)            0.5129         estimate D2E/DX2                !
 ! D29   D(3,4,14,13)           -0.4559         estimate D2E/DX2                !
 ! D30   D(3,4,14,15)         -179.9937         estimate D2E/DX2                !
 ! D31   D(5,4,14,13)          179.252          estimate D2E/DX2                !
 ! D32   D(5,4,14,15)           -0.2858         estimate D2E/DX2                !
 ! D33   D(4,5,19,1)            -0.1141         estimate D2E/DX2                !
 ! D34   D(4,5,19,28)          179.9364         estimate D2E/DX2                !
 ! D35   D(21,5,19,1)          179.9992         estimate D2E/DX2                !
 ! D36   D(21,5,19,28)           0.0496         estimate D2E/DX2                !
 ! D37   D(2,6,9,8)              2.5984         estimate D2E/DX2                !
 ! D38   D(2,6,9,32)          -176.0103         estimate D2E/DX2                !
 ! D39   D(17,6,9,8)           179.77           estimate D2E/DX2                !
 ! D40   D(17,6,9,32)            1.1613         estimate D2E/DX2                !
 ! D41   D(3,7,8,9)              1.3551         estimate D2E/DX2                !
 ! D42   D(3,7,8,10)          -174.5099         estimate D2E/DX2                !
 ! D43   D(12,7,8,9)          -178.8921         estimate D2E/DX2                !
 ! D44   D(12,7,8,10)            5.2428         estimate D2E/DX2                !
 ! D45   D(3,7,12,11)          178.0768         estimate D2E/DX2                !
 ! D46   D(3,7,12,13)           -0.9621         estimate D2E/DX2                !
 ! D47   D(8,7,12,11)           -1.685          estimate D2E/DX2                !
 ! D48   D(8,7,12,13)          179.2761         estimate D2E/DX2                !
 ! D49   D(7,8,9,6)             -3.0809         estimate D2E/DX2                !
 ! D50   D(7,8,9,32)           175.3285         estimate D2E/DX2                !
 ! D51   D(10,8,9,6)           172.5381         estimate D2E/DX2                !
 ! D52   D(10,8,9,32)           -9.0525         estimate D2E/DX2                !
 ! D53   D(7,8,10,18)           -4.7549         estimate D2E/DX2                !
 ! D54   D(7,8,10,23)          174.4235         estimate D2E/DX2                !
 ! D55   D(9,8,10,18)          179.5335         estimate D2E/DX2                !
 ! D56   D(9,8,10,23)           -1.2882         estimate D2E/DX2                !
 ! D57   D(6,9,32,33)            3.4533         estimate D2E/DX2                !
 ! D58   D(6,9,32,34)         -170.1093         estimate D2E/DX2                !
 ! D59   D(8,9,32,33)         -174.9882         Frozen                          !
 ! D60   D(8,9,32,34)           11.4492         estimate D2E/DX2                !
 ! D61   D(8,10,18,11)           0.7189         estimate D2E/DX2                !
 ! D62   D(8,10,18,24)        -179.4089         estimate D2E/DX2                !
 ! D63   D(23,10,18,11)       -178.5188         estimate D2E/DX2                !
 ! D64   D(23,10,18,24)          1.3535         estimate D2E/DX2                !
 ! D65   D(18,11,12,7)          -2.3856         estimate D2E/DX2                !
 ! D66   D(18,11,12,13)        176.6833         estimate D2E/DX2                !
 ! D67   D(22,11,12,7)         178.4862         estimate D2E/DX2                !
 ! D68   D(22,11,12,13)         -2.445          estimate D2E/DX2                !
 ! D69   D(12,11,18,10)          2.8444         estimate D2E/DX2                !
 ! D70   D(12,11,18,24)       -177.0251         estimate D2E/DX2                !
 ! D71   D(22,11,18,10)       -178.0181         estimate D2E/DX2                !
 ! D72   D(22,11,18,24)          2.1124         estimate D2E/DX2                !
 ! D73   D(7,12,13,14)           0.461          estimate D2E/DX2                !
 ! D74   D(7,12,13,16)        -179.8781         estimate D2E/DX2                !
 ! D75   D(11,12,13,14)       -178.6049         estimate D2E/DX2                !
 ! D76   D(11,12,13,16)          1.056          estimate D2E/DX2                !
 ! D77   D(12,13,14,4)           0.2708         estimate D2E/DX2                !
 ! D78   D(12,13,14,15)        179.7958         estimate D2E/DX2                !
 ! D79   D(16,13,14,4)        -179.3788         estimate D2E/DX2                !
 ! D80   D(16,13,14,15)          0.1463         estimate D2E/DX2                !
 ! D81   D(10,18,24,25)        -59.609          estimate D2E/DX2                !
 ! D82   D(10,18,24,26)         59.2209         estimate D2E/DX2                !
 ! D83   D(10,18,24,27)        179.6858         estimate D2E/DX2                !
 ! D84   D(11,18,24,25)        120.2739         estimate D2E/DX2                !
 ! D85   D(11,18,24,26)       -120.8962         estimate D2E/DX2                !
 ! D86   D(11,18,24,27)         -0.4313         estimate D2E/DX2                !
 ! D87   D(1,19,28,29)         -58.1407         estimate D2E/DX2                !
 ! D88   D(1,19,28,30)          60.7668         estimate D2E/DX2                !
 ! D89   D(1,19,28,31)        -178.7139         estimate D2E/DX2                !
 ! D90   D(5,19,28,29)         121.8132         estimate D2E/DX2                !
 ! D91   D(5,19,28,30)        -119.2792         estimate D2E/DX2                !
 ! D92   D(5,19,28,31)           1.2401         estimate D2E/DX2                !
 ! D93   D(9,32,33,35)        -174.2334         estimate D2E/DX2                !
 ! D94   D(9,32,33,36)           6.3008         estimate D2E/DX2                !
 ! D95   D(34,32,33,35)         -0.238          estimate D2E/DX2                !
 ! D96   D(34,32,33,36)       -179.7037         estimate D2E/DX2                !
 ! D97   D(9,32,34,37)         175.35           estimate D2E/DX2                !
 ! D98   D(33,32,34,37)          0.5308         estimate D2E/DX2                !
 ! D99   D(32,33,35,37)         -0.2925         estimate D2E/DX2                !
 ! D100  D(32,33,35,38)        179.7416         estimate D2E/DX2                !
 ! D101  D(36,33,35,37)        179.1683         estimate D2E/DX2                !
 ! D102  D(36,33,35,38)         -0.7976         estimate D2E/DX2                !
 ! D103  D(32,34,37,35)         -0.6798         estimate D2E/DX2                !
 ! D104  D(32,34,37,39)        177.9187         estimate D2E/DX2                !
 ! D105  D(33,35,37,34)          0.6793         estimate D2E/DX2                !
 ! D106  D(33,35,37,39)       -177.8337         estimate D2E/DX2                !
 ! D107  D(38,35,37,34)       -179.352          estimate D2E/DX2                !
 ! D108  D(38,35,37,39)          2.135          estimate D2E/DX2                !
 ! D109  D(33,35,38,40)          6.4665         estimate D2E/DX2                !
 ! D110  D(37,35,38,40)       -173.498          estimate D2E/DX2                !
 ! D111  D(34,37,39,41)          2.8785         estimate D2E/DX2                !
 ! D112  D(34,37,39,42)       -177.169          estimate D2E/DX2                !
 ! D113  D(35,37,39,41)       -178.7931         estimate D2E/DX2                !
 ! D114  D(35,37,39,42)          1.1594         estimate D2E/DX2                !
 ! D115  D(35,38,40,43)        175.4611         estimate D2E/DX2                !
 ! D116  D(35,38,40,44)        -65.7793         estimate D2E/DX2                !
 ! D117  D(35,38,40,45)         56.398          estimate D2E/DX2                !
 ! D118  D(37,39,41,46)        179.9708         estimate D2E/DX2                !
 ! D119  D(37,39,41,47)         -0.1738         estimate D2E/DX2                !
 ! D120  D(42,39,41,46)          0.013          estimate D2E/DX2                !
 ! D121  D(42,39,41,47)        179.8684         estimate D2E/DX2                !
 ! D122  D(37,39,42,48)       -179.9925         estimate D2E/DX2                !
 ! D123  D(41,39,42,48)         -0.0324         estimate D2E/DX2                !
 ! D124  D(39,41,46,48)          0.0207         estimate D2E/DX2                !
 ! D125  D(39,41,46,49)       -179.9777         estimate D2E/DX2                !
 ! D126  D(47,41,46,48)       -179.8224         estimate D2E/DX2                !
 ! D127  D(47,41,46,49)          0.1792         estimate D2E/DX2                !
 ! D128  D(39,41,47,50)        178.3837         estimate D2E/DX2                !
 ! D129  D(46,41,47,50)         -1.7804         estimate D2E/DX2                !
 ! D130  D(39,42,48,46)          0.0455         estimate D2E/DX2                !
 ! D131  D(39,42,48,51)        179.8075         estimate D2E/DX2                !
 ! D132  D(41,46,48,42)         -0.0458         estimate D2E/DX2                !
 ! D133  D(41,46,48,51)       -179.7855         estimate D2E/DX2                !
 ! D134  D(49,46,48,42)        179.9526         estimate D2E/DX2                !
 ! D135  D(49,46,48,51)          0.2129         estimate D2E/DX2                !
 ! D136  D(41,47,50,52)         62.0087         estimate D2E/DX2                !
 ! D137  D(41,47,50,53)       -179.1871         estimate D2E/DX2                !
 ! D138  D(41,47,50,54)        -60.2539         estimate D2E/DX2                !
 --------------------------------------------------------------------------------
 Trust Radius=3.00D-01 FncErr=1.00D-07 GrdErr=1.00D-06 EigMax=2.50D+02 EigMin=1.00D-04
 Number of steps in this run=    307 maximum allowed number of steps=    324.
 GradGradGradGradGradGradGradGradGradGradGradGradGradGradGradGradGradGrad

 Stoichiometry    C26H18N2O6S2(2-)
 Framework group  C1[X(C26H18N2O6S2)]
 Deg. of freedom   156
 Full point group                 C1      NOp   1
 Largest Abelian subgroup         C1      NOp   1
 Largest concise Abelian subgroup C1      NOp   1
                         Standard orientation:                         
 ---------------------------------------------------------------------
 Center     Atomic      Atomic             Coordinates (Angstroms)
 Number     Number       Type             X           Y           Z
 ---------------------------------------------------------------------
      1          6           0       -3.865666   -2.539351    0.171612
      2          6           0       -2.967068   -1.357925    0.088759
      3          6           0       -3.502995   -0.052254   -0.005893
      4          6           0       -4.901210    0.146384   -0.021734
      5          6           0       -5.829097   -1.013449    0.053916
      6          6           0       -1.608098   -1.546277    0.080663
      7          6           0       -2.605240    1.051507   -0.073237
      8          6           0       -1.188208    0.849256   -0.068660
      9          6           0       -0.668566   -0.473314   -0.025089
     10          6           0       -0.325796    2.060948   -0.015262
     11          6           0       -2.324340    3.555138   -0.169103
     12          6           0       -3.178744    2.348756   -0.139185
     13          6           0       -4.556148    2.525481   -0.157622
     14          6           0       -5.424524    1.428747   -0.102046
     15          1           0       -6.500439    1.555807   -0.112543
     16          1           0       -4.935910    3.539816   -0.210729
     17          1           0       -1.251053   -2.568941    0.112876
     18          7           0       -0.950908    3.321982   -0.075994
     19          7           0       -5.242671   -2.287164    0.147308
     20          8           0       -3.449344   -3.686262    0.257824
     21          8           0       -7.042853   -0.874229    0.038393
     22          8           0       -2.781541    4.688321   -0.252971
     23          8           0        0.893746    2.040962    0.092603
     24          6           0       -0.052792    4.481378   -0.033004
     25          1           0        0.523847    4.469341    0.893119
     26          1           0        0.648431    4.439997   -0.870423
     27          1           0       -0.668315    5.374696   -0.093309
     28          6           0       -6.119645   -3.460756    0.225687
     29          1           0       -5.900350   -4.139831   -0.600958
     30          1           0       -5.943002   -3.992759    1.162355
     31          1           0       -7.147033   -3.110637    0.172871
     32          6           0        0.732594   -0.883906   -0.107958
     33          6           0        1.304209   -2.140249   -0.164375
     34         16           0        1.988514    0.347771    0.024572
     35          6           0        2.712060   -2.120973   -0.108665
     36          1           0        0.722636   -3.043305   -0.251818
     37          6           0        3.269938   -0.841643   -0.013601
     38          8           0        3.538201   -3.200164   -0.139213
     39          6           0        4.661427   -0.490620    0.017488
     40          6           0        2.946225   -4.474308   -0.378839
     41          6           0        5.214118    0.782629    0.135402
     42         16           0        5.955369   -1.680505   -0.093549
     43          1           0        3.773673   -5.180831   -0.445936
     44          1           0        2.284795   -4.766259    0.444817
     45          1           0        2.380859   -4.477499   -1.318709
     46          6           0        6.638389    0.802364    0.136275
     47          8           0        4.390483    1.858278    0.232884
     48          6           0        7.166183   -0.455301    0.018620
     49          1           0        7.238693    1.697710    0.219396
     50          6           0        4.984433    3.143445    0.387577
     51          1           0        8.211980   -0.730202   -0.004501
     52          1           0        5.607866    3.399208   -0.478358
     53          1           0        4.158991    3.850095    0.459670
     54          1           0        5.589084    3.194127    1.300074
 ---------------------------------------------------------------------
 Rotational constants (GHZ):           0.1750713           0.0587304           0.0441219
 Standard basis: 6-311+G(d,p) (5D, 7F)
 There are   952 symmetry adapted cartesian basis functions of A   symmetry.
 There are   916 symmetry adapted basis functions of A   symmetry.
   916 basis functions,  1468 primitive gaussians,   952 cartesian basis functions
   135 alpha electrons      135 beta electrons
       nuclear repulsion energy      4130.5131432268 Hartrees.
 NAtoms=   54 NActive=   54 NUniq=   54 SFac= 1.00D+00 NAtFMM=   60 NAOKFM=F Big=F
 Integral buffers will be    131072 words long.
 Raffenetti 2 integral format.
 Two-electron integral symmetry is turned on.
 ------------------------------------------------------------------------------
 Polarizable Continuum Model (PCM)
 =================================
 Model                : PCM.
 Atomic radii         : UFF (Universal Force Field).
 Polarization charges : Total charges.
 Charge compensation  : None.
 Solution method      : On-the-fly selection.
 Cavity type          : Scaled VdW (van der Waals Surface) (Alpha=1.100).
 Cavity algorithm     : GePol (No added spheres)
                        Default sphere list used, NSphG=   54.
                        Lebedev-Laikov grids with approx.  5.0 points / Ang**2.
                        Smoothing algorithm: York/Karplus (Gamma=1.0000).
                        Polarization charges: spherical gaussians, with
                                              point-specific exponents (IZeta= 3).
                        Self-potential: point-specific (ISelfS= 7).
                        Self-field    : sphere-specific E.n sum rule (ISelfD= 2).
 1st derivatives      : Analytical E(r).r(x)/FMM algorithm (CHGder, D1EAlg=3).
                        Cavity 1st derivative terms included.
 Solvent              : Water, Eps=  78.355300 Eps(inf)=   1.777849
 ------------------------------------------------------------------------------
 One-electron integrals computed using PRISM.
 NBasis=   916 RedAO= T EigKep=  1.06D-06  NBF=   916
 NBsUse=   901 1.00D-06 EigRej=  5.95D-07 NBFU=   901
 ExpMin= 4.05D-02 ExpMax= 9.34D+04 ExpMxC= 3.17D+03 IAcc=3 IRadAn=         5 AccDes= 0.00D+00
 Harris functional with IExCor=  402 and IRadAn=       5 diagonalized for initial guess.
 HarFok:  IExCor=  402 AccDes= 0.00D+00 IRadAn=         5 IDoV= 1 UseB2=F ITyADJ=14
 ICtDFT=  3500011 ScaDFX=  1.000000  1.000000  1.000000  1.000000
 FoFCou: FMM=F IPFlag=           0 FMFlag=      100000 FMFlg1=           0
         NFxFlg=           0 DoJE=T BraDBF=F KetDBF=T FulRan=T
         wScrn=  0.000000 ICntrl=       500 IOpCl=  0 I1Cent=   200000004 NGrid=           0
         NMat0=    1 NMatS0=      1 NMatT0=    0 NMatD0=    1 NMtDS0=    0 NMtDT0=    0
 Petite list used in FoFCou.
 Requested convergence on RMS density matrix=1.00D-08 within 128 cycles.
 Requested convergence on MAX density matrix=1.00D-06.
 Requested convergence on             energy=1.00D-06.
 No special actions if energy rises.
 Inv3:  Mode=1 IEnd=    52041675.
 Iteration    1 A*A^-1 deviation from unit magnitude is 6.00D-15 for   4153.
 Iteration    1 A*A^-1 deviation from orthogonality  is 2.44D-15 for   4142   1844.
 Iteration    1 A^-1*A deviation from unit magnitude is 6.00D-15 for   4143.
 Iteration    1 A^-1*A deviation from orthogonality  is 4.79D-13 for   4152   4116.
 Error on total polarization charges =  0.03136
 SCF Done:  E(RB3LYP) =  -2359.55656908     A.U. after   17 cycles
            NFock= 17  Conv=0.41D-08     -V/T= 2.0028

 **********************************************************************

            Population analysis using the SCF Density.

 **********************************************************************

 Orbital symmetries:
       Occupied  (A) (A) (A) (A) (A) (A) (A) (A) (A) (A) (A) (A)
                 (A) (A) (A) (A) (A) (A) (A) (A) (A) (A) (A) (A)
                 (A) (A) (A) (A) (A) (A) (A) (A) (A) (A) (A) (A)
                 (A) (A) (A) (A) (A) (A) (A) (A) (A) (A) (A) (A)
                 (A) (A) (A) (A) (A) (A) (A) (A) (A) (A) (A) (A)
                 (A) (A) (A) (A) (A) (A) (A) (A) (A) (A) (A) (A)
                 (A) (A) (A) (A) (A) (A) (A) (A) (A) (A) (A) (A)
                 (A) (A) (A) (A) (A) (A) (A) (A) (A) (A) (A) (A)
                 (A) (A) (A) (A) (A) (A) (A) (A) (A) (A) (A) (A)
                 (A) (A) (A) (A) (A) (A) (A) (A) (A) (A) (A) (A)
                 (A) (A) (A) (A) (A) (A) (A) (A) (A) (A) (A) (A)
                 (A) (A) (A)
       Virtual   (A) (A) (A) (A) (A) (A) (A) (A) (A) (A) (A) (A)
                 (A) (A) (A) (A) (A) (A) (A) (A) (A) (A) (A) (A)
                 (A) (A) (A) (A) (A) (A) (A) (A) (A) (A) (A) (A)
                 (A) (A) (A) (A) (A) (A) (A) (A) (A) (A) (A) (A)
                 (A) (A) (A) (A) (A) (A) (A) (A) (A) (A) (A) (A)
                 (A) (A) (A) (A) (A) (A) (A) (A) (A) (A) (A) (A)
                 (A) (A) (A) (A) (A) (A) (A) (A) (A) (A) (A) (A)
                 (A) (A) (A) (A) (A) (A) (A) (A) (A) (A) (A) (A)
                 (A) (A) (A) (A) (A) (A) (A) (A) (A) (A) (A) (A)
                 (A) (A) (A) (A) (A) (A) (A) (A) (A) (A) (A) (A)
                 (A) (A) (A) (A) (A) (A) (A) (A) (A) (A) (A) (A)
                 (A) (A) (A) (A) (A) (A) (A) (A) (A) (A) (A) (A)
                 (A) (A) (A) (A) (A) (A) (A) (A) (A) (A) (A) (A)
                 (A) (A) (A) (A) (A) (A) (A) (A) (A) (A) (A) (A)
                 (A) (A) (A) (A) (A) (A) (A) (A) (A) (A) (A) (A)
                 (A) (A) (A) (A) (A) (A) (A) (A) (A) (A) (A) (A)
                 (A) (A) (A) (A) (A) (A) (A) (A) (A) (A) (A) (A)
                 (A) (A) (A) (A) (A) (A) (A) (A) (A) (A) (A) (A)
                 (A) (A) (A) (A) (A) (A) (A) (A) (A) (A) (A) (A)
                 (A) (A) (A) (A) (A) (A) (A) (A) (A) (A) (A) (A)
                 (A) (A) (A) (A) (A) (A) (A) (A) (A) (A) (A) (A)
                 (A) (A) (A) (A) (A) (A) (A) (A) (A) (A) (A) (A)
                 (A) (A) (A) (A) (A) (A) (A) (A) (A) (A) (A) (A)
                 (A) (A) (A) (A) (A) (A) (A) (A) (A) (A) (A) (A)
                 (A) (A) (A) (A) (A) (A) (A) (A) (A) (A) (A) (A)
                 (A) (A) (A) (A) (A) (A) (A) (A) (A) (A) (A) (A)
                 (A) (A) (A) (A) (A) (A) (A) (A) (A) (A) (A) (A)
                 (A) (A) (A) (A) (A) (A) (A) (A) (A) (A) (A) (A)
                 (A) (A) (A) (A) (A) (A) (A) (A) (A) (A) (A) (A)
                 (A) (A) (A) (A) (A) (A) (A) (A) (A) (A) (A) (A)
                 (A) (A) (A) (A) (A) (A) (A) (A) (A) (A) (A) (A)
                 (A) (A) (A) (A) (A) (A) (A) (A) (A) (A) (A) (A)
                 (A) (A) (A) (A) (A) (A) (A) (A) (A) (A) (A) (A)
                 (A) (A) (A) (A) (A) (A) (A) (A) (A) (A) (A) (A)
                 (A) (A) (A) (A) (A) (A) (A) (A) (A) (A) (A) (A)
                 (A) (A) (A) (A) (A) (A) (A) (A) (A) (A) (A) (A)
                 (A) (A) (A) (A) (A) (A) (A) (A) (A) (A) (A) (A)
                 (A) (A) (A) (A) (A) (A) (A) (A) (A) (A) (A) (A)
                 (A) (A) (A) (A) (A) (A) (A) (A) (A) (A) (A) (A)
                 (A) (A) (A) (A) (A) (A) (A) (A) (A) (A) (A) (A)
                 (A) (A) (A) (A) (A) (A) (A) (A) (A) (A) (A) (A)
                 (A) (A) (A) (A) (A) (A) (A) (A) (A) (A) (A) (A)
                 (A) (A) (A) (A) (A) (A) (A) (A) (A) (A) (A) (A)
                 (A) (A) (A) (A) (A) (A) (A) (A) (A) (A) (A) (A)
                 (A) (A) (A) (A) (A) (A) (A) (A) (A) (A) (A) (A)
                 (A) (A) (A) (A) (A) (A) (A) (A) (A) (A) (A) (A)
                 (A) (A) (A) (A) (A) (A) (A) (A) (A) (A) (A) (A)
                 (A) (A) (A) (A) (A) (A) (A) (A) (A) (A) (A) (A)
                 (A) (A) (A) (A) (A) (A) (A) (A) (A) (A) (A) (A)
                 (A) (A) (A) (A) (A) (A) (A) (A) (A) (A) (A) (A)
                 (A) (A) (A) (A) (A) (A) (A) (A) (A) (A) (A) (A)
                 (A) (A) (A) (A) (A) (A) (A) (A) (A) (A) (A) (A)
                 (A) (A) (A) (A) (A) (A) (A) (A) (A) (A) (A) (A)
                 (A) (A) (A) (A) (A) (A) (A) (A) (A) (A) (A) (A)
                 (A) (A) (A) (A) (A) (A) (A) (A) (A) (A) (A) (A)
                 (A) (A) (A) (A) (A) (A) (A) (A) (A) (A) (A) (A)
                 (A) (A) (A) (A) (A) (A) (A) (A) (A) (A) (A) (A)
                 (A) (A) (A) (A) (A) (A) (A) (A) (A) (A) (A) (A)
                 (A) (A) (A) (A) (A) (A) (A) (A) (A) (A) (A) (A)
                 (A) (A) (A) (A) (A) (A) (A) (A) (A) (A) (A) (A)
                 (A) (A) (A) (A) (A) (A) (A) (A) (A) (A) (A) (A)
                 (A) (A) (A) (A) (A) (A) (A) (A) (A) (A) (A) (A)
                 (A) (A) (A) (A) (A) (A) (A) (A) (A) (A) (A) (A)
                 (A) (A) (A) (A) (A) (A) (A) (A) (A) (A)
 The electronic state is 1-A.
 Alpha  occ. eigenvalues --  -88.86945 -88.84128 -19.15206 -19.15021 -19.08063
 Alpha  occ. eigenvalues --  -19.07237 -19.07189 -19.07075 -14.34789 -14.34651
 Alpha  occ. eigenvalues --  -10.25827 -10.25324 -10.25124 -10.25105 -10.22643
 Alpha  occ. eigenvalues --  -10.21966 -10.21796 -10.21757 -10.19868 -10.19265
 Alpha  occ. eigenvalues --  -10.19091 -10.18857 -10.18829 -10.17719 -10.17500
 Alpha  occ. eigenvalues --  -10.17352 -10.17111 -10.16510 -10.16309 -10.15832
 Alpha  occ. eigenvalues --  -10.15074 -10.15061 -10.15006 -10.14943 -10.14866
 Alpha  occ. eigenvalues --  -10.14862  -7.95531  -7.92582  -5.91829  -5.91457
 Alpha  occ. eigenvalues --   -5.91109  -5.88941  -5.88484  -5.88074  -1.06877
 Alpha  occ. eigenvalues --   -1.06581  -1.05382  -1.03875  -1.02506  -1.01969
 Alpha  occ. eigenvalues --   -0.92239  -0.91837  -0.87914  -0.86826  -0.85485
 Alpha  occ. eigenvalues --   -0.81029  -0.78674  -0.76570  -0.74828  -0.73527
 Alpha  occ. eigenvalues --   -0.72866  -0.72567  -0.71507  -0.70562  -0.69333
 Alpha  occ. eigenvalues --   -0.68596  -0.67093  -0.65023  -0.62873  -0.61691
 Alpha  occ. eigenvalues --   -0.61044  -0.59983  -0.57978  -0.56530  -0.54726
 Alpha  occ. eigenvalues --   -0.54569  -0.53346  -0.53041  -0.52527  -0.50429
 Alpha  occ. eigenvalues --   -0.49351  -0.48154  -0.47194  -0.46977  -0.46660
 Alpha  occ. eigenvalues --   -0.46605  -0.46499  -0.46247  -0.45845  -0.45152
 Alpha  occ. eigenvalues --   -0.44793  -0.44391  -0.43839  -0.43105  -0.42420
 Alpha  occ. eigenvalues --   -0.42079  -0.41072  -0.40790  -0.40558  -0.40206
 Alpha  occ. eigenvalues --   -0.39847  -0.39743  -0.39029  -0.38895  -0.38823
 Alpha  occ. eigenvalues --   -0.38556  -0.37839  -0.37648  -0.37459  -0.36974
 Alpha  occ. eigenvalues --   -0.35906  -0.35567  -0.35290  -0.35246  -0.33856
 Alpha  occ. eigenvalues --   -0.33040  -0.32519  -0.32393  -0.32058  -0.30578
 Alpha  occ. eigenvalues --   -0.29829  -0.27652  -0.27214  -0.26370  -0.26065
 Alpha  occ. eigenvalues --   -0.25647  -0.25512  -0.24505  -0.24248  -0.22919
 Alpha  occ. eigenvalues --   -0.21894  -0.21388  -0.21246  -0.17102  -0.11318
 Alpha virt. eigenvalues --   -0.04382  -0.02581  -0.01126  -0.00730  -0.00109
 Alpha virt. eigenvalues --    0.00715   0.00882   0.01331   0.01788   0.02109
 Alpha virt. eigenvalues --    0.02403   0.02714   0.02957   0.03217   0.03496
 Alpha virt. eigenvalues --    0.03933   0.04194   0.04351   0.04435   0.04569
 Alpha virt. eigenvalues --    0.04860   0.05042   0.05501   0.05643   0.05748
 Alpha virt. eigenvalues --    0.05821   0.06354   0.06573   0.06891   0.07114
 Alpha virt. eigenvalues --    0.07348   0.07502   0.07597   0.07743   0.08273
 Alpha virt. eigenvalues --    0.08518   0.09154   0.09320   0.09602   0.09625
 Alpha virt. eigenvalues --    0.09797   0.10182   0.10445   0.10485   0.10843
 Alpha virt. eigenvalues --    0.11125   0.11478   0.11567   0.11740   0.12042
 Alpha virt. eigenvalues --    0.12460   0.12972   0.13213   0.13438   0.13643
 Alpha virt. eigenvalues --    0.13887   0.14105   0.14120   0.14709   0.14778
 Alpha virt. eigenvalues --    0.15126   0.15198   0.15370   0.15746   0.15891
 Alpha virt. eigenvalues --    0.16067   0.16113   0.16367   0.16837   0.17076
 Alpha virt. eigenvalues --    0.17236   0.17364   0.17496   0.17952   0.18087
 Alpha virt. eigenvalues --    0.18271   0.18508   0.18742   0.19079   0.19327
 Alpha virt. eigenvalues --    0.19430   0.19700   0.19847   0.20001   0.20097
 Alpha virt. eigenvalues --    0.20131   0.20422   0.20943   0.20973   0.21133
 Alpha virt. eigenvalues --    0.21460   0.21739   0.21935   0.22003   0.22202
 Alpha virt. eigenvalues --    0.22342   0.22499   0.22748   0.23444   0.23499
 Alpha virt. eigenvalues --    0.23640   0.23930   0.24095   0.24376   0.24437
 Alpha virt. eigenvalues --    0.24611   0.24877   0.24990   0.25320   0.25572
 Alpha virt. eigenvalues --    0.25621   0.25830   0.26017   0.26154   0.26268
 Alpha virt. eigenvalues --    0.26708   0.26728   0.26834   0.26919   0.27196
 Alpha virt. eigenvalues --    0.27590   0.27732   0.27802   0.27888   0.28016
 Alpha virt. eigenvalues --    0.28159   0.28312   0.28512   0.28994   0.29064
 Alpha virt. eigenvalues --    0.29147   0.29547   0.29694   0.30057   0.30266
 Alpha virt. eigenvalues --    0.30542   0.30693   0.30861   0.31043   0.31311
 Alpha virt. eigenvalues --    0.31574   0.31649   0.31948   0.32091   0.32175
 Alpha virt. eigenvalues --    0.32567   0.32790   0.32886   0.33131   0.33694
 Alpha virt. eigenvalues --    0.33873   0.34163   0.34478   0.34889   0.34990
 Alpha virt. eigenvalues --    0.35128   0.35777   0.36194   0.36283   0.36537
 Alpha virt. eigenvalues --    0.36875   0.37213   0.37603   0.38109   0.38445
 Alpha virt. eigenvalues --    0.38732   0.39385   0.39804   0.40093   0.40705
 Alpha virt. eigenvalues --    0.40899   0.41046   0.41466   0.42277   0.42780
 Alpha virt. eigenvalues --    0.43282   0.43598   0.44190   0.44344   0.44755
 Alpha virt. eigenvalues --    0.45023   0.45367   0.45701   0.46046   0.46475
 Alpha virt. eigenvalues --    0.46867   0.47287   0.47342   0.47484   0.47863
 Alpha virt. eigenvalues --    0.47942   0.48585   0.49186   0.49447   0.50138
 Alpha virt. eigenvalues --    0.50706   0.51057   0.51309   0.51709   0.52842
 Alpha virt. eigenvalues --    0.53099   0.53942   0.54511   0.54652   0.55340
 Alpha virt. eigenvalues --    0.55657   0.56197   0.56359   0.56699   0.57095
 Alpha virt. eigenvalues --    0.57201   0.57470   0.57950   0.58373   0.58622
 Alpha virt. eigenvalues --    0.58852   0.59291   0.59429   0.59756   0.59865
 Alpha virt. eigenvalues --    0.60193   0.61005   0.61461   0.61792   0.62075
 Alpha virt. eigenvalues --    0.62281   0.62388   0.62981   0.63613   0.63659
 Alpha virt. eigenvalues --    0.64076   0.64482   0.65206   0.65507   0.65862
 Alpha virt. eigenvalues --    0.66112   0.66724   0.66838   0.67073   0.67541
 Alpha virt. eigenvalues --    0.67900   0.68135   0.68458   0.68851   0.69013
 Alpha virt. eigenvalues --    0.69436   0.69729   0.70186   0.70859   0.71427
 Alpha virt. eigenvalues --    0.71821   0.71987   0.72222   0.72911   0.73251
 Alpha virt. eigenvalues --    0.73516   0.73699   0.74742   0.74902   0.75287
 Alpha virt. eigenvalues --    0.75486   0.76000   0.76200   0.77085   0.77265
 Alpha virt. eigenvalues --    0.77506   0.77555   0.78110   0.78291   0.78668
 Alpha virt. eigenvalues --    0.78929   0.79147   0.79710   0.79818   0.80770
 Alpha virt. eigenvalues --    0.81254   0.81850   0.82292   0.82789   0.83108
 Alpha virt. eigenvalues --    0.83728   0.83887   0.84719   0.85737   0.86564
 Alpha virt. eigenvalues --    0.87106   0.87618   0.87749   0.88547   0.89460
 Alpha virt. eigenvalues --    0.90432   0.90766   0.91333   0.91656   0.91855
 Alpha virt. eigenvalues --    0.92714   0.93178   0.94343   0.95343   0.95663
 Alpha virt. eigenvalues --    0.95923   0.96199   0.96546   0.97020   0.97518
 Alpha virt. eigenvalues --    0.97749   0.98108   0.98546   0.99477   0.99725
 Alpha virt. eigenvalues --    1.00170   1.00617   1.00777   1.01511   1.01895
 Alpha virt. eigenvalues --    1.02251   1.02653   1.03002   1.03207   1.03468
 Alpha virt. eigenvalues --    1.03995   1.04980   1.05260   1.05898   1.05996
 Alpha virt. eigenvalues --    1.06350   1.07285   1.07576   1.07923   1.08040
 Alpha virt. eigenvalues --    1.08344   1.08602   1.09417   1.09936   1.10350
 Alpha virt. eigenvalues --    1.10430   1.11286   1.11722   1.12415   1.12565
 Alpha virt. eigenvalues --    1.13330   1.13399   1.14485   1.14658   1.15756
 Alpha virt. eigenvalues --    1.16793   1.17232   1.17946   1.18179   1.18644
 Alpha virt. eigenvalues --    1.19514   1.20522   1.20615   1.21460   1.22067
 Alpha virt. eigenvalues --    1.22287   1.23006   1.23873   1.24143   1.24429
 Alpha virt. eigenvalues --    1.25588   1.26389   1.27036   1.27739   1.28482
 Alpha virt. eigenvalues --    1.29413   1.29976   1.30679   1.31503   1.32050
 Alpha virt. eigenvalues --    1.32516   1.33265   1.33616   1.34077   1.35550
 Alpha virt. eigenvalues --    1.36572   1.36854   1.37418   1.38638   1.38959
 Alpha virt. eigenvalues --    1.40034   1.40833   1.41744   1.42817   1.43859
 Alpha virt. eigenvalues --    1.44123   1.44818   1.45077   1.45467   1.45957
 Alpha virt. eigenvalues --    1.46337   1.46508   1.46901   1.47583   1.47722
 Alpha virt. eigenvalues --    1.48018   1.48362   1.49669   1.50472   1.51077
 Alpha virt. eigenvalues --    1.51642   1.51790   1.52849   1.53390   1.53818
 Alpha virt. eigenvalues --    1.55126   1.55310   1.55457   1.56122   1.56318
 Alpha virt. eigenvalues --    1.56682   1.56986   1.57024   1.57590   1.57739
 Alpha virt. eigenvalues --    1.58645   1.59846   1.60055   1.61093   1.61851
 Alpha virt. eigenvalues --    1.62346   1.63232   1.63480   1.64322   1.64827
 Alpha virt. eigenvalues --    1.65540   1.66003   1.67313   1.68046   1.68405
 Alpha virt. eigenvalues --    1.69257   1.69623   1.70224   1.70647   1.70654
 Alpha virt. eigenvalues --    1.71559   1.71685   1.72586   1.72768   1.72994
 Alpha virt. eigenvalues --    1.73967   1.74902   1.75109   1.75786   1.75948
 Alpha virt. eigenvalues --    1.76909   1.77739   1.78527   1.79012   1.79555
 Alpha virt. eigenvalues --    1.79671   1.80515   1.80950   1.81296   1.81878
 Alpha virt. eigenvalues --    1.83601   1.83613   1.84464   1.85924   1.86768
 Alpha virt. eigenvalues --    1.87253   1.88323   1.89016   1.90028   1.90425
 Alpha virt. eigenvalues --    1.91377   1.91992   1.92149   1.92842   1.93429
 Alpha virt. eigenvalues --    1.93612   1.94146   1.94806   1.95679   1.96289
 Alpha virt. eigenvalues --    1.96859   1.97380   1.97945   1.98601   2.00290
 Alpha virt. eigenvalues --    2.00463   2.01272   2.02936   2.03153   2.03606
 Alpha virt. eigenvalues --    2.04540   2.04755   2.05061   2.05469   2.05995
 Alpha virt. eigenvalues --    2.06418   2.06678   2.07569   2.07797   2.08275
 Alpha virt. eigenvalues --    2.09198   2.09987   2.10924   2.11899   2.12348
 Alpha virt. eigenvalues --    2.12995   2.13401   2.14063   2.15600   2.15992
 Alpha virt. eigenvalues --    2.16908   2.17346   2.18038   2.19109   2.19676
 Alpha virt. eigenvalues --    2.21034   2.21896   2.22193   2.22886   2.23545
 Alpha virt. eigenvalues --    2.23825   2.24736   2.25169   2.27270   2.28507
 Alpha virt. eigenvalues --    2.29541   2.30651   2.32511   2.33453   2.36390
 Alpha virt. eigenvalues --    2.37682   2.39013   2.39737   2.41008   2.41413
 Alpha virt. eigenvalues --    2.43765   2.44098   2.44428   2.44844   2.45461
 Alpha virt. eigenvalues --    2.45651   2.47021   2.47914   2.48446   2.49406
 Alpha virt. eigenvalues --    2.49779   2.50845   2.51821   2.52599   2.53357
 Alpha virt. eigenvalues --    2.53882   2.54435   2.54746   2.54867   2.55082
 Alpha virt. eigenvalues --    2.56391   2.56846   2.57081   2.58755   2.60070
 Alpha virt. eigenvalues --    2.61087   2.61821   2.62138   2.62833   2.65831
 Alpha virt. eigenvalues --    2.67237   2.67348   2.68563   2.68789   2.69616
 Alpha virt. eigenvalues --    2.69753   2.70810   2.71145   2.72593   2.73111
 Alpha virt. eigenvalues --    2.73332   2.74547   2.75133   2.75856   2.76071
 Alpha virt. eigenvalues --    2.76240   2.76552   2.77657   2.78797   2.79763
 Alpha virt. eigenvalues --    2.80622   2.81025   2.81534   2.83235   2.84039
 Alpha virt. eigenvalues --    2.85354   2.85497   2.85831   2.87521   2.88464
 Alpha virt. eigenvalues --    2.88936   2.89418   2.89771   2.90478   2.91247
 Alpha virt. eigenvalues --    2.91944   2.92958   2.93594   2.93696   2.95376
 Alpha virt. eigenvalues --    2.95533   2.96221   2.97507   2.97835   2.98548
 Alpha virt. eigenvalues --    2.99675   3.00637   3.01647   3.01957   3.03597
 Alpha virt. eigenvalues --    3.04746   3.05120   3.06270   3.07317   3.10299
 Alpha virt. eigenvalues --    3.10973   3.11284   3.12690   3.12966   3.15077
 Alpha virt. eigenvalues --    3.16756   3.17905   3.18996   3.19384   3.20511
 Alpha virt. eigenvalues --    3.21609   3.23108   3.24105   3.24990   3.25450
 Alpha virt. eigenvalues --    3.26047   3.28217   3.30165   3.32522   3.32857
 Alpha virt. eigenvalues --    3.33765   3.34195   3.36498   3.37451   3.38149
 Alpha virt. eigenvalues --    3.38567   3.38768   3.39103   3.42570   3.43405
 Alpha virt. eigenvalues --    3.44487   3.45414   3.47236   3.48092   3.48988
 Alpha virt. eigenvalues --    3.49572   3.50311   3.53176   3.54141   3.55240
 Alpha virt. eigenvalues --    3.58246   3.59420   3.62417   3.63693   3.64523
 Alpha virt. eigenvalues --    3.66056   3.69218   3.70615   3.71539   3.74349
 Alpha virt. eigenvalues --    3.74443   3.74672   3.75741   3.77860   3.77937
 Alpha virt. eigenvalues --    3.79480   3.83396   3.85854   3.86895   3.88213
 Alpha virt. eigenvalues --    3.89099   3.93742   3.95317   3.96604   3.97410
 Alpha virt. eigenvalues --    3.97554   4.01725   4.06014   4.06396   4.09642
 Alpha virt. eigenvalues --    4.10547   4.12587   4.16764   4.17861   4.23579
 Alpha virt. eigenvalues --    4.27582   4.30055   4.32234   4.40711   4.45960
 Alpha virt. eigenvalues --    4.46432   4.57071   4.75515   4.89966   4.91160
 Alpha virt. eigenvalues --    4.92464   4.94139   5.03053   5.04114   5.08127
 Alpha virt. eigenvalues --    5.09424   5.09746   5.10399   5.15870   5.17954
 Alpha virt. eigenvalues --    5.29161   5.31405   5.33840   5.41177   5.44708
 Alpha virt. eigenvalues --    5.45581   5.78323   5.80322   5.82165   5.85105
 Alpha virt. eigenvalues --    5.86328   5.89151   8.04737   8.15350  17.30379
 Alpha virt. eigenvalues --   17.35909  17.51723  17.54975  17.65835  17.80482
 Alpha virt. eigenvalues --   23.54637  23.62196  23.74762  23.83735  23.85496
 Alpha virt. eigenvalues --   23.87935  23.90260  23.91962  23.92125  23.92338
 Alpha virt. eigenvalues --   23.92662  23.93758  23.95177  23.96916  23.97567
 Alpha virt. eigenvalues --   24.00272  24.01624  24.04361  24.04697  24.06253
 Alpha virt. eigenvalues --   24.06673  24.11446  24.15224  24.16072  24.20028
 Alpha virt. eigenvalues --   24.20283  35.60373  35.63366  49.98095  49.99885
 Alpha virt. eigenvalues --   50.07171  50.09385  50.10790  50.12206 189.22364
 Alpha virt. eigenvalues --  189.34031
          Condensed to atoms (all electrons):
 Mulliken charges:
               1
     1  C    0.357090
     2  C   -0.204130
     3  C    0.183393
     4  C    0.015198
     5  C    0.349130
     6  C   -0.487041
     7  C    0.082138
     8  C   -0.064059
     9  C    0.554501
    10  C   -0.088539
    11  C    0.144879
    12  C    0.018857
    13  C   -0.554365
    14  C   -0.666256
    15  H    0.120270
    16  H    0.120871
    17  H    0.119864
    18  N   -0.172236
    19  N   -0.157273
    20  O   -0.490839
    21  O   -0.473467
    22  O   -0.466076
    23  O   -0.169135
    24  C   -0.191647
    25  H    0.168295
    26  H    0.169098
    27  H    0.174287
    28  C   -0.206305
    29  H    0.161998
    30  H    0.161788
    31  H    0.168483
    32  C   -0.505314
    33  C   -0.371260
    34  S    0.638335
    35  C   -0.678253
    36  H    0.136114
    37  C    0.039412
    38  O   -0.169259
    39  C    0.816468
    40  C   -0.248718
    41  C   -0.113388
    42  S   -0.261067
    43  H    0.168751
    44  H    0.152581
    45  H    0.153495
    46  C   -0.444746
    47  O   -0.118180
    48  C   -0.424789
    49  H    0.152524
    50  C   -0.252188
    51  H    0.177239
    52  H    0.152058
    53  H    0.169524
    54  H    0.151891
 Sum of Mulliken charges =  -2.00000
 Mulliken charges with hydrogens summed into heavy atoms:
               1
     1  C    0.357090
     2  C   -0.204130
     3  C    0.183393
     4  C    0.015198
     5  C    0.349130
     6  C   -0.367176
     7  C    0.082138
     8  C   -0.064059
     9  C    0.554501
    10  C   -0.088539
    11  C    0.144879
    12  C    0.018857
    13  C   -0.433494
    14  C   -0.545985
    18  N   -0.172236
    19  N   -0.157273
    20  O   -0.490839
    21  O   -0.473467
    22  O   -0.466076
    23  O   -0.169135
    24  C    0.320033
    28  C    0.285963
    32  C   -0.505314
    33  C   -0.235147
    34  S    0.638335
    35  C   -0.678253
    37  C    0.039412
    38  O   -0.169259
    39  C    0.816468
    40  C    0.226109
    41  C   -0.113388
    42  S   -0.261067
    46  C   -0.292222
    47  O   -0.118180
    48  C   -0.247550
    50  C    0.221285
 Electronic spatial extent (au):  <R**2>=          22355.7800
 Charge=             -2.0000 electrons
 Dipole moment (field-independent basis, Debye):
    X=             22.8979    Y=             -2.4098    Z=             -0.0207  Tot=             23.0243
 Quadrupole moment (field-independent basis, Debye-Ang):
   XX=           -387.0480   YY=           -279.3418   ZZ=           -235.0026
   XY=             24.0248   XZ=             -0.3298   YZ=              7.4610
 Traceless Quadrupole moment (field-independent basis, Debye-Ang):
   XX=            -86.5838   YY=             21.1223   ZZ=             65.4615
   XY=             24.0248   XZ=             -0.3298   YZ=              7.4610
 Octapole moment (field-independent basis, Debye-Ang**2):
  XXX=            932.6503  YYY=           -141.9805  ZZZ=              3.3586  XYY=            294.9979
  XXY=             62.4148  XXZ=             10.9529  XZZ=              3.4516  YZZ=             -1.1731
  YYZ=              1.6486  XYZ=             -2.3831
 Hexadecapole moment (field-independent basis, Debye-Ang**3):
 XXXX=         -27867.4826 YYYY=          -8786.0211 ZZZZ=           -339.8936 XXXY=            585.5496
 XXXZ=             33.1999 YYYX=            531.4161 YYYZ=            154.9633 ZZZX=             -8.5278
 ZZZY=              7.4618 XXYY=          -5463.7898 XXZZ=          -4062.9734 YYZZ=          -1372.7806
 XXYZ=             90.7269 YYXZ=            -26.5797 ZZXY=             73.2856
 N-N= 4.130513143227D+03 E-N=-1.386473316180D+04  KE= 2.352917343314D+03
 D1PCM: PCM CHGder 1st derivatives, ID1Alg=3 FixD1E=F DoIter=F DoCFld=F I1PDM=0.
 Calling FoFJK, ICntrl=      2127 FMM=F ISym2X=0 I1Cent= 0 IOpClX= 0 NMat=1 NMatS=1 NMatT=0.
 ***** Axes restored to original set *****
 -------------------------------------------------------------------
 Center     Atomic                   Forces (Hartrees/Bohr)
 Number     Number              X              Y              Z
 -------------------------------------------------------------------
      1        6          -0.013208070    0.050936206    0.007818204
      2        6          -0.029553246   -0.033273872   -0.003579830
      3        6           0.000248010   -0.008390246   -0.001511111
      4        6           0.011435231   -0.040412352   -0.005920947
      5        6           0.034947797    0.039802109    0.004784937
      6        6           0.036460113    0.035523911   -0.000523566
      7        6          -0.001553555    0.008230103    0.000890879
      8        6          -0.009273496    0.046228668    0.012495958
      9        6           0.013122649   -0.056781971   -0.009460055
     10        6          -0.061887541   -0.047481283   -0.011889371
     11        6           0.013998103   -0.049061890   -0.008132396
     12        6           0.029230091    0.031726782    0.005094978
     13        6          -0.033937536   -0.030186456   -0.004099783
     14        6          -0.014960195    0.040652037    0.006337934
     15        1          -0.000345319    0.001918242    0.000247295
     16        1          -0.000638688   -0.001924114   -0.000284495
     17        1          -0.000213122    0.001948374    0.001415674
     18        7           0.003881430   -0.000890728   -0.001429772
     19        7          -0.000459425    0.000040843   -0.000208451
     20        8           0.022386514   -0.028810236   -0.004306614
     21        8          -0.034208642   -0.017227072   -0.001679766
     22        8          -0.021777965    0.027277992    0.004467851
     23        8          -0.024660316    0.040784584    0.014475878
     24        6           0.000764404   -0.001302687   -0.001478772
     25        1          -0.000690995    0.001034568    0.000277772
     26        1          -0.001256057    0.000609586    0.001015529
     27        1           0.001375896    0.000409061    0.000224122
     28        6           0.000750880    0.002482919   -0.000121988
     29        1          -0.001066518   -0.000635517    0.000503736
     30        1          -0.000889227   -0.000763860   -0.000260702
     31        1           0.001079060   -0.000875290   -0.000125210
     32        6          -0.009229417    0.024493580    0.011687470
     33        6          -0.001173849   -0.003989923   -0.002452603
     34       16           0.064709916   -0.011429795   -0.006655741
     35        6           0.003858652    0.015593784    0.003940001
     36        1           0.000651492   -0.001803245   -0.000142051
     37        6           0.009322038   -0.028964424   -0.008823460
     38        8           0.005220806   -0.008210855   -0.003541425
     39        6          -0.003717296   -0.000741494    0.000594277
     40        6           0.001699236   -0.002252389   -0.000986956
     41        6           0.005406428   -0.003642424   -0.001798912
     42       16          -0.000019801    0.000438794    0.000281500
     43        1          -0.000954844   -0.000705788   -0.000239922
     44        1           0.000237514    0.000601277   -0.000550525
     45        1           0.001131541    0.000078599    0.001200473
     46        6          -0.000269694   -0.001965741   -0.000685181
     47        8          -0.002493358    0.004265135    0.001801911
     48        6           0.006505915    0.005423609    0.001005998
     49        1           0.000316594   -0.000440297   -0.000141437
     50        6           0.001719177    0.002664251   -0.000184360
     51        1          -0.001298580   -0.000290137    0.000016932
     52        1          -0.000618860   -0.000771788    0.001197767
     53        1           0.000346901    0.000007425   -0.000007810
     54        1          -0.000450775    0.000053439   -0.000553861
 -------------------------------------------------------------------
 Cartesian Forces:  Max     0.064709916 RMS     0.016889956

 GradGradGradGradGradGradGradGradGradGradGradGradGradGradGradGradGradGrad
 Berny optimization.
 FormGI is forming the generalized inverse of G from B-inverse, IUseBI=4.
 Internal  Forces:  Max     0.234552849 RMS     0.029001202
 Search for a local minimum.
 Step number   1 out of a maximum of  307
 All quantities printed in internal units (Hartrees-Bohrs-Radians)
 Mixed Optimization -- RFO/linear search
 Second derivative matrix not updated -- first step.
 ITU=  0
     Eigenvalues ---    0.00803   0.00803   0.01176   0.01203   0.01245
     Eigenvalues ---    0.01292   0.01308   0.01311   0.01358   0.01372
     Eigenvalues ---    0.01419   0.01429   0.01455   0.01496   0.01515
     Eigenvalues ---    0.01568   0.01577   0.01577   0.01620   0.01651
     Eigenvalues ---    0.01696   0.01709   0.01711   0.01719   0.01754
     Eigenvalues ---    0.01783   0.01803   0.01847   0.01963   0.02040
     Eigenvalues ---    0.02042   0.02066   0.02075   0.02082   0.02135
     Eigenvalues ---    0.02149   0.02163   0.02176   0.02197   0.02228
     Eigenvalues ---    0.02244   0.02247   0.07556   0.07572   0.07690
     Eigenvalues ---    0.07700   0.10064   0.10067   0.10630   0.10636
     Eigenvalues ---    0.15983   0.15999   0.15999   0.16000   0.16000
     Eigenvalues ---    0.16000   0.16000   0.16000   0.16000   0.16000
     Eigenvalues ---    0.16000   0.16000   0.16000   0.16000   0.16000
     Eigenvalues ---    0.16000   0.16000   0.16000   0.22530   0.22583
     Eigenvalues ---    0.23518   0.23582   0.24516   0.24747   0.24866
     Eigenvalues ---    0.24931   0.24952   0.24985   0.24987   0.24988
     Eigenvalues ---    0.24991   0.24994   0.24997   0.24997   0.24998
     Eigenvalues ---    0.24998   0.25000   0.25000   0.25000   0.25000
     Eigenvalues ---    0.25000   0.25000   0.25000   0.25000   0.25000
     Eigenvalues ---    0.25000   0.28809   0.28913   0.30064   0.32153
     Eigenvalues ---    0.32582   0.32774   0.33111   0.33787   0.33990
     Eigenvalues ---    0.34037   0.34133   0.34149   0.34354   0.34466
     Eigenvalues ---    0.34577   0.34629   0.34693   0.34800   0.34929
     Eigenvalues ---    0.35198   0.35218   0.35468   0.35553   0.35582
     Eigenvalues ---    0.35805   0.35854   0.36078   0.36083   0.36277
     Eigenvalues ---    0.36396   0.36662   0.39352   0.40194   0.40221
     Eigenvalues ---    0.40630   0.40651   0.41524   0.41681   0.41833
     Eigenvalues ---    0.42300   0.42678   0.43455   0.43857   0.44092
     Eigenvalues ---    0.44594   0.44693   0.45014   0.45406   0.46251
     Eigenvalues ---    0.47305   0.47579   0.49310   0.49567   0.53059
     Eigenvalues ---    0.53299   0.93281   0.93432   0.93989   0.94585
     Eigenvalues --- 1000.000001000.000001000.000001000.000001000.00000
     Eigenvalues --- 1000.000001000.000001000.000001000.000001000.00000
     Eigenvalues --- 1000.000001000.000001000.000001000.000001000.00000
     Eigenvalues --- 1000.000001000.000001000.000001000.000001000.00000
     Eigenvalues --- 1000.000001000.000001000.000001000.000001000.00000
     Eigenvalues --- 1000.000001000.000001000.000001000.000001000.00000
     Eigenvalues --- 1000.000001000.000001000.000001000.000001000.00000
     Eigenvalues --- 1000.000001000.000001000.000001000.000001000.00000
     Eigenvalues --- 1000.000001000.000001000.000001000.000001000.00000
     Eigenvalues --- 1000.000001000.000001000.000001000.000001000.00000
     Eigenvalues --- 1000.000001000.000001000.000001000.000001000.00000
     Eigenvalues --- 1000.000001000.000001000.000001000.000001000.00000
     Eigenvalues --- 1000.000001000.000001000.000001000.000001000.00000
     Eigenvalues --- 1000.000001000.000001000.000001000.000001000.00000
     Eigenvalues --- 1000.000001000.000001000.000001000.000001000.00000
     Eigenvalues --- 1000.000001000.000001000.000001000.000001000.00000
     Eigenvalues --- 1000.000001000.000001000.000001000.000001000.00000
     Eigenvalues --- 1000.000001000.000001000.000001000.000001000.00000
     Eigenvalues --- 1000.000001000.000001000.000001000.000001000.00000
     Eigenvalues --- 1000.000001000.000001000.000001000.000001000.00000
     Eigenvalues --- 1000.000001000.000001000.000001000.000001000.00000
     Eigenvalues --- 1000.000001000.000001000.000001000.000001000.00000
     Eigenvalues --- 1000.000001000.000001000.000001000.000001000.00000
     Eigenvalues --- 1000.000001000.000001000.000001000.000001000.00000
     Eigenvalues --- 1000.000001000.000001000.000001000.000001000.00000
     Eigenvalues --- 1000.000001000.000001000.000001000.000001000.00000
     Eigenvalues --- 1000.000001000.000001000.000001000.000001000.00000
     Eigenvalues --- 1000.000001000.000001000.000001000.000001000.00000
     Eigenvalues --- 1000.000001000.00000
 RFO step:  Lambda=-3.80705738D-01 EMin= 8.02933640D-03
 Linear search not attempted -- first point.
 Maximum step size (   0.300) exceeded in Quadratic search.
    -- Step size scaled by   0.393
 Iteration  1 RMS(Cart)=  0.30802332 RMS(Int)=  0.00773211
 Iteration  2 RMS(Cart)=  0.14156397 RMS(Int)=  0.00123079
 Iteration  3 RMS(Cart)=  0.00423742 RMS(Int)=  0.00008248
 Iteration  4 RMS(Cart)=  0.00000065 RMS(Int)=  0.00008248
 Iteration  1 RMS(Cart)=  0.00004553 RMS(Int)=  0.00000746
 Iteration  2 RMS(Cart)=  0.00002561 RMS(Int)=  0.00000832
 Iteration  3 RMS(Cart)=  0.00001441 RMS(Int)=  0.00000944
 Iteration  4 RMS(Cart)=  0.00000810 RMS(Int)=  0.00001019
 Iteration  5 RMS(Cart)=  0.00000456 RMS(Int)=  0.00001065
 Iteration  6 RMS(Cart)=  0.00000256 RMS(Int)=  0.00001092
 Iteration  7 RMS(Cart)=  0.00000144 RMS(Int)=  0.00001108
 Iteration  8 RMS(Cart)=  0.00000081 RMS(Int)=  0.00001116
 Variable       Old X    -DE/DX   Delta X   Delta X   Delta X     New X
                                 (Linear)    (Quad)   (Total)
    R1        2.80935  -0.02240   0.00000  -0.01249  -0.01248   2.79687
    R2        2.64584  -0.00339   0.00000  -0.00173  -0.00172   2.64412
    R3        2.31147   0.03641   0.00000   0.01083   0.01083   2.32230
    R4        2.67311  -0.02024   0.00000  -0.01095  -0.01100   2.66212
    R5        2.59267   0.00505   0.00000   0.00082   0.00083   2.59350
    R6        2.66894   0.01441   0.00000   0.00709   0.00707   2.67601
    R7        2.69164   0.01777   0.00000   0.00986   0.00982   2.70146
    R8        2.81049  -0.02373   0.00000  -0.01273  -0.01273   2.79776
    R9        2.62173   0.01579   0.00000   0.00663   0.00662   2.62834
   R10        2.65570  -0.00524   0.00000  -0.00242  -0.00241   2.65328
   R11        2.30889   0.03796   0.00000   0.01124   0.01124   2.32013
   R12        2.70248  -0.02389   0.00000  -0.01243  -0.01238   2.69010
   R13        2.04786  -0.00171   0.00000  -0.00091  -0.00091   2.04694
   R14        2.70495   0.06276   0.00000   0.03408   0.03413   2.73908
   R15        2.68322   0.02332   0.00000   0.01270   0.01267   2.69589
   R16        2.68655   0.13478   0.00000   0.06707   0.06712   2.75367
   R17        2.81233   0.00340   0.00000   0.00237   0.00246   2.81479
   R18        2.76359   0.07788   0.00000   0.04094   0.04094   2.80453
   R19        2.66221  -0.00911   0.00000  -0.00509  -0.00504   2.65716
   R20        2.31391  -0.00468   0.00000  -0.00140  -0.00140   2.31251
   R21        2.79415  -0.04737   0.00000  -0.02607  -0.02617   2.76798
   R22        2.63842  -0.02819   0.00000  -0.01426  -0.01431   2.62411
   R23        2.31456   0.03476   0.00000   0.01039   0.01039   2.32496
   R24        2.62448   0.02733   0.00000   0.01252   0.01252   2.63701
   R25        2.64561  -0.03980   0.00000  -0.01930  -0.01932   2.62629
   R26        2.04921  -0.00090   0.00000  -0.00048  -0.00048   2.04873
   R27        2.04741  -0.00029   0.00000  -0.00015  -0.00015   2.04726
   R28        2.77259   0.00077   0.00000   0.00041   0.00041   2.77300
   R29        2.77252  -0.00018   0.00000  -0.00010  -0.00010   2.77243
   R30        2.06176  -0.00007   0.00000  -0.00004  -0.00004   2.06172
   R31        2.06551  -0.00121   0.00000  -0.00065  -0.00065   2.06486
   R32        2.05322  -0.00097   0.00000  -0.00052  -0.00052   2.05270
   R33        2.06368  -0.00067   0.00000  -0.00036  -0.00036   2.06332
   R34        2.06281  -0.00014   0.00000  -0.00008  -0.00008   2.06274
   R35        2.05355  -0.00097   0.00000  -0.00052  -0.00052   2.05303
   R36        2.61051   0.02296   0.00000   0.01064   0.01069   2.62120
   R37        3.33360   0.02177   0.00000   0.01332   0.01335   3.34695
   R38        2.66279  -0.00618   0.00000  -0.00323  -0.00323   2.65956
   R39        2.03651   0.00167   0.00000   0.00088   0.00088   2.03739
   R40        3.30470   0.01902   0.00000   0.01077   0.01073   3.31543
   R41        2.64356  -0.02869   0.00000  -0.01394  -0.01398   2.62958
   R42        2.56898   0.01172   0.00000   0.00505   0.00505   2.57404
   R43        2.71255   0.00748   0.00000   0.00376   0.00376   2.71630
   R44        2.69331   0.00233   0.00000   0.00115   0.00115   2.69445
   R45        2.63245   0.00520   0.00000   0.00247   0.00247   2.63492
   R46        3.32852   0.00353   0.00000   0.00211   0.00211   3.33063
   R47        2.06002  -0.00071   0.00000  -0.00038  -0.00038   2.05963
   R48        2.07107  -0.00084   0.00000  -0.00046  -0.00046   2.07061
   R49        2.07268  -0.00161   0.00000  -0.00088  -0.00088   2.07180
   R50        2.69174   0.00246   0.00000   0.00121   0.00121   2.69295
   R51        2.56676   0.00442   0.00000   0.00190   0.00190   2.56866
   R52        3.26205   0.00123   0.00000   0.00063   0.00063   3.26268
   R53        2.58702  -0.00258   0.00000  -0.00119  -0.00119   2.58582
   R54        2.04311  -0.00041   0.00000  -0.00022  -0.00022   2.04289
   R55        2.69136   0.00199   0.00000   0.00098   0.00098   2.69234
   R56        2.04387  -0.00133   0.00000  -0.00071  -0.00071   2.04317
   R57        2.07347  -0.00154   0.00000  -0.00084  -0.00084   2.07263
   R58        2.05790  -0.00033   0.00000  -0.00018  -0.00018   2.05772
   R59        2.07080  -0.00070   0.00000  -0.00038  -0.00038   2.07042
    A1        2.03797   0.00044   0.00000  -0.00038  -0.00038   2.03759
    A2        2.14521   0.00544   0.00000   0.00371   0.00371   2.14892
    A3        2.10001  -0.00588   0.00000  -0.00333  -0.00333   2.09668
    A4        2.10395   0.00854   0.00000   0.00623   0.00623   2.11018
    A5        2.08282  -0.01142   0.00000  -0.00538  -0.00536   2.07746
    A6        2.09624   0.00286   0.00000  -0.00087  -0.00090   2.09534
    A7        2.10093  -0.01035   0.00000  -0.00712  -0.00709   2.09384
    A8        2.07104  -0.00240   0.00000  -0.00256  -0.00263   2.06841
    A9        2.11118   0.01276   0.00000   0.00968   0.00972   2.12090
   A10        2.10296   0.00549   0.00000   0.00383   0.00382   2.10678
   A11        2.09911   0.00561   0.00000   0.00318   0.00315   2.10226
   A12        2.08110  -0.01110   0.00000  -0.00701  -0.00697   2.07413
   A13        2.03739  -0.00295   0.00000  -0.00159  -0.00161   2.03578
   A14        2.12972   0.00770   0.00000   0.00467   0.00468   2.13440
   A15        2.11607  -0.00475   0.00000  -0.00308  -0.00307   2.11300
   A16        2.15098   0.04986   0.00000   0.03041   0.03047   2.18145
   A17        2.04399  -0.02366   0.00000  -0.01430  -0.01432   2.02966
   A18        2.08722  -0.02617   0.00000  -0.01611  -0.01615   2.07107
   A19        2.11101   0.01780   0.00000   0.01134   0.01129   2.12229
   A20        2.04385  -0.03645   0.00000  -0.02367  -0.02365   2.02020
   A21        2.12832   0.01865   0.00000   0.01233   0.01236   2.14069
   A22        2.08678  -0.03368   0.00000  -0.01854  -0.01857   2.06822
   A23        2.04738  -0.06937   0.00000  -0.04214  -0.04200   2.00538
   A24        2.14662   0.10323   0.00000   0.06086   0.06076   2.20738
   A25        2.04892  -0.03460   0.00000  -0.01999  -0.01987   2.02905
[...]
 Alpha  occ. eigenvalues --   -0.40198  -0.40089  -0.39274  -0.38445  -0.38338
 Alpha  occ. eigenvalues --   -0.38043  -0.37558  -0.37503  -0.37154  -0.37050
 Alpha  occ. eigenvalues --   -0.36251  -0.36025  -0.35328  -0.34783  -0.34428
 Alpha  occ. eigenvalues --   -0.33463  -0.32932  -0.32765  -0.32062  -0.31733
 Alpha  occ. eigenvalues --   -0.30281  -0.27910  -0.26782  -0.26603  -0.25886
 Alpha  occ. eigenvalues --   -0.25800  -0.25101  -0.24600  -0.24445  -0.24006
 Alpha  occ. eigenvalues --   -0.23532  -0.22798  -0.20995  -0.17884  -0.13232
 Alpha virt. eigenvalues --   -0.05308  -0.03311  -0.01576  -0.00551  -0.00091
 Alpha virt. eigenvalues --    0.00630   0.00811   0.01098   0.01669   0.01890
 Alpha virt. eigenvalues --    0.02139   0.02716   0.02786   0.03132   0.03344
 Alpha virt. eigenvalues --    0.03612   0.03717   0.04157   0.04299   0.04322
 Alpha virt. eigenvalues --    0.04550   0.04983   0.05067   0.05287   0.05367
 Alpha virt. eigenvalues --    0.05574   0.05717   0.06037   0.06536   0.06879
 Alpha virt. eigenvalues --    0.07009   0.07179   0.07455   0.07640   0.08072
 Alpha virt. eigenvalues --    0.08187   0.08619   0.08737   0.08812   0.09109
 Alpha virt. eigenvalues --    0.09450   0.09664   0.09903   0.10130   0.10581
 Alpha virt. eigenvalues --    0.10701   0.10880   0.11229   0.11670   0.12041
 Alpha virt. eigenvalues --    0.12257   0.12330   0.12426   0.12635   0.13299
 Alpha virt. eigenvalues --    0.13516   0.13765   0.14056   0.14263   0.14374
 Alpha virt. eigenvalues --    0.14537   0.15026   0.15198   0.15322   0.15393
 Alpha virt. eigenvalues --    0.15755   0.15835   0.16074   0.16383   0.16694
 Alpha virt. eigenvalues --    0.16964   0.17132   0.17428   0.17648   0.18059
 Alpha virt. eigenvalues --    0.18122   0.18367   0.18447   0.18755   0.18813
 Alpha virt. eigenvalues --    0.19064   0.19290   0.19425   0.19743   0.20004
 Alpha virt. eigenvalues --    0.20197   0.20304   0.20567   0.20798   0.20833
 Alpha virt. eigenvalues --    0.20970   0.21151   0.21340   0.21709   0.21749
 Alpha virt. eigenvalues --    0.21847   0.22557   0.22622   0.22764   0.22964
 Alpha virt. eigenvalues --    0.23270   0.23561   0.23654   0.23823   0.24156
 Alpha virt. eigenvalues --    0.24350   0.24630   0.24753   0.24973   0.25147
 Alpha virt. eigenvalues --    0.25170   0.25393   0.25802   0.25974   0.26144
 Alpha virt. eigenvalues --    0.26302   0.26377   0.26649   0.26724   0.26855
 Alpha virt. eigenvalues --    0.27041   0.27264   0.27393   0.27658   0.27972
 Alpha virt. eigenvalues --    0.28158   0.28253   0.28563   0.28745   0.28904
 Alpha virt. eigenvalues --    0.29135   0.29261   0.29540   0.29695   0.30027
 Alpha virt. eigenvalues --    0.30099   0.30202   0.30259   0.30446   0.30888
 Alpha virt. eigenvalues --    0.30967   0.31223   0.31546   0.31706   0.31899
 Alpha virt. eigenvalues --    0.32083   0.32466   0.32750   0.32930   0.33103
 Alpha virt. eigenvalues --    0.33278   0.33740   0.33887   0.34347   0.34543
 Alpha virt. eigenvalues --    0.34704   0.35028   0.35346   0.35908   0.36062
 Alpha virt. eigenvalues --    0.36274   0.36380   0.37000   0.37169   0.37521
 Alpha virt. eigenvalues --    0.37895   0.38200   0.38520   0.38898   0.39288
 Alpha virt. eigenvalues --    0.39549   0.40018   0.40048   0.40664   0.40994
 Alpha virt. eigenvalues --    0.41208   0.41685   0.42191   0.42636   0.42834
 Alpha virt. eigenvalues --    0.43460   0.44167   0.44426   0.44508   0.44892
 Alpha virt. eigenvalues --    0.45203   0.45323   0.45453   0.45976   0.46517
 Alpha virt. eigenvalues --    0.47130   0.47254   0.47422   0.48103   0.48721
 Alpha virt. eigenvalues --    0.49273   0.50087   0.50439   0.50795   0.51217
 Alpha virt. eigenvalues --    0.51788   0.52197   0.52414   0.52570   0.53252
 Alpha virt. eigenvalues --    0.54014   0.54180   0.55144   0.55869   0.56122
 Alpha virt. eigenvalues --    0.56393   0.56577   0.56830   0.57237   0.58000
 Alpha virt. eigenvalues --    0.58048   0.58202   0.58590   0.58996   0.59385
 Alpha virt. eigenvalues --    0.60026   0.60230   0.60747   0.61043   0.61829
 Alpha virt. eigenvalues --    0.62097   0.62613   0.62799   0.62994   0.63485
 Alpha virt. eigenvalues --    0.63712   0.64558   0.64801   0.65495   0.65609
 Alpha virt. eigenvalues --    0.66182   0.66469   0.66720   0.66788   0.67269
 Alpha virt. eigenvalues --    0.67881   0.68177   0.68308   0.68752   0.69218
 Alpha virt. eigenvalues --    0.69479   0.69723   0.70479   0.70652   0.70980
 Alpha virt. eigenvalues --    0.71305   0.71896   0.72158   0.72543   0.73297
 Alpha virt. eigenvalues --    0.73401   0.73628   0.74251   0.74441   0.74849
 Alpha virt. eigenvalues --    0.75050   0.75232   0.75462   0.75978   0.76298
 Alpha virt. eigenvalues --    0.76493   0.76950   0.77170   0.77481   0.77641
 Alpha virt. eigenvalues --    0.77788   0.78112   0.78574   0.79081   0.79510
 Alpha virt. eigenvalues --    0.79934   0.80454   0.80750   0.81113   0.81798
 Alpha virt. eigenvalues --    0.82097   0.82475   0.83246   0.83936   0.84877
 Alpha virt. eigenvalues --    0.85152   0.85567   0.86155   0.87725   0.88296
 Alpha virt. eigenvalues --    0.88789   0.89558   0.90002   0.90317   0.91298
 Alpha virt. eigenvalues --    0.91673   0.92164   0.92752   0.93282   0.93848
 Alpha virt. eigenvalues --    0.94344   0.94563   0.94728   0.95281   0.95551
 Alpha virt. eigenvalues --    0.96197   0.96789   0.97217   0.97698   0.97869
 Alpha virt. eigenvalues --    0.98368   0.99152   0.99367   0.99839   1.00701
 Alpha virt. eigenvalues --    1.00841   1.01100   1.01942   1.02170   1.02786
 Alpha virt. eigenvalues --    1.03264   1.03561   1.03665   1.04635   1.05094
 Alpha virt. eigenvalues --    1.05454   1.05700   1.06115   1.06310   1.06973
 Alpha virt. eigenvalues --    1.07390   1.07709   1.07909   1.08524   1.08857
 Alpha virt. eigenvalues --    1.09354   1.09730   1.10021   1.10423   1.11013
 Alpha virt. eigenvalues --    1.11318   1.12382   1.13781   1.14087   1.14696
 Alpha virt. eigenvalues --    1.14970   1.15873   1.16432   1.17867   1.18255
 Alpha virt. eigenvalues --    1.18712   1.18815   1.20694   1.20846   1.21106
 Alpha virt. eigenvalues --    1.21558   1.22245   1.22955   1.23901   1.24570
 Alpha virt. eigenvalues --    1.24926   1.25377   1.25969   1.26815   1.27342
 Alpha virt. eigenvalues --    1.27456   1.28306   1.28981   1.30217   1.30679
 Alpha virt. eigenvalues --    1.31612   1.31744   1.32925   1.33113   1.33645
 Alpha virt. eigenvalues --    1.34539   1.36116   1.36350   1.36969   1.37510
 Alpha virt. eigenvalues --    1.37701   1.39556   1.40440   1.41249   1.41777
 Alpha virt. eigenvalues --    1.43451   1.43860   1.44098   1.44705   1.44945
 Alpha virt. eigenvalues --    1.45571   1.45977   1.46383   1.47139   1.47326
 Alpha virt. eigenvalues --    1.47868   1.48840   1.49556   1.49872   1.50078
 Alpha virt. eigenvalues --    1.50610   1.51306   1.52021   1.52976   1.53439
 Alpha virt. eigenvalues --    1.53731   1.54460   1.55112   1.55566   1.55790
 Alpha virt. eigenvalues --    1.56077   1.56401   1.56795   1.57252   1.57656
 Alpha virt. eigenvalues --    1.58348   1.58760   1.58803   1.60208   1.60890
 Alpha virt. eigenvalues --    1.62003   1.62293   1.63051   1.63299   1.63787
 Alpha virt. eigenvalues --    1.64228   1.64955   1.65266   1.66931   1.67436
 Alpha virt. eigenvalues --    1.67812   1.68526   1.69135   1.69487   1.70141
 Alpha virt. eigenvalues --    1.70471   1.70945   1.71433   1.71680   1.72385
 Alpha virt. eigenvalues --    1.73183   1.74584   1.75727   1.75984   1.76516
 Alpha virt. eigenvalues --    1.76658   1.76791   1.77901   1.78360   1.78637
 Alpha virt. eigenvalues --    1.79651   1.80054   1.80469   1.81179   1.81972
 Alpha virt. eigenvalues --    1.82384   1.82715   1.83322   1.84741   1.85399
 Alpha virt. eigenvalues --    1.85982   1.86921   1.88104   1.88421   1.89146
 Alpha virt. eigenvalues --    1.89538   1.90719   1.90843   1.91414   1.92372
 Alpha virt. eigenvalues --    1.92556   1.93103   1.93911   1.94333   1.94786
 Alpha virt. eigenvalues --    1.95348   1.96802   1.97195   1.98894   1.99784
 Alpha virt. eigenvalues --    2.00194   2.00751   2.01453   2.01973   2.02389
 Alpha virt. eigenvalues --    2.02831   2.03040   2.03662   2.04252   2.04821
 Alpha virt. eigenvalues --    2.05549   2.05980   2.07122   2.07421   2.08010
 Alpha virt. eigenvalues --    2.08833   2.08941   2.10171   2.10540   2.10915
 Alpha virt. eigenvalues --    2.11721   2.12571   2.13035   2.13415   2.14147
 Alpha virt. eigenvalues --    2.15246   2.16131   2.16831   2.16975   2.18085
 Alpha virt. eigenvalues --    2.20240   2.20367   2.21286   2.21613   2.22216
 Alpha virt. eigenvalues --    2.23034   2.23508   2.24019   2.25474   2.26202
 Alpha virt. eigenvalues --    2.27567   2.30213   2.31437   2.33411   2.35131
 Alpha virt. eigenvalues --    2.36776   2.37489   2.38811   2.41075   2.41685
 Alpha virt. eigenvalues --    2.42166   2.42569   2.44367   2.44698   2.44832
 Alpha virt. eigenvalues --    2.45034   2.46465   2.47355   2.48127   2.48844
 Alpha virt. eigenvalues --    2.49459   2.50687   2.50895   2.51711   2.53176
 Alpha virt. eigenvalues --    2.53315   2.53804   2.54614   2.54913   2.55441
 Alpha virt. eigenvalues --    2.55940   2.56876   2.57867   2.58109   2.59197
 Alpha virt. eigenvalues --    2.61262   2.61335   2.62479   2.63570   2.64907
 Alpha virt. eigenvalues --    2.65365   2.67167   2.68020   2.68584   2.69245
 Alpha virt. eigenvalues --    2.69872   2.70082   2.70573   2.70897   2.72583
 Alpha virt. eigenvalues --    2.72808   2.73942   2.74839   2.75156   2.75504
 Alpha virt. eigenvalues --    2.76089   2.76341   2.77228   2.77744   2.79645
 Alpha virt. eigenvalues --    2.80208   2.81510   2.81947   2.83170   2.83924
 Alpha virt. eigenvalues --    2.84279   2.84667   2.84929   2.86432   2.87094
 Alpha virt. eigenvalues --    2.87370   2.89167   2.89697   2.90291   2.90971
 Alpha virt. eigenvalues --    2.91582   2.92753   2.93884   2.94520   2.94906
 Alpha virt. eigenvalues --    2.95598   2.96086   2.96458   2.97405   2.98224
 Alpha virt. eigenvalues --    2.98777   2.99592   3.00617   3.00753   3.02843
 Alpha virt. eigenvalues --    3.04400   3.05042   3.05831   3.08758   3.09665
 Alpha virt. eigenvalues --    3.10400   3.10492   3.11828   3.12992   3.14084
 Alpha virt. eigenvalues --    3.15431   3.17258   3.18136   3.20043   3.20668
 Alpha virt. eigenvalues --    3.21811   3.22528   3.22746   3.23694   3.23740
 Alpha virt. eigenvalues --    3.24162   3.24767   3.27547   3.30772   3.31588
 Alpha virt. eigenvalues --    3.32669   3.32905   3.33796   3.35393   3.35463
 Alpha virt. eigenvalues --    3.36039   3.36210   3.38271   3.40450   3.40870
 Alpha virt. eigenvalues --    3.41708   3.42016   3.42359   3.43699   3.45083
 Alpha virt. eigenvalues --    3.45933   3.49310   3.49758   3.51449   3.53453
 Alpha virt. eigenvalues --    3.55076   3.56636   3.60326   3.61744   3.63044
 Alpha virt. eigenvalues --    3.63959   3.67026   3.68291   3.69529   3.72832
 Alpha virt. eigenvalues --    3.73333   3.74988   3.76321   3.77353   3.78146
 Alpha virt. eigenvalues --    3.78328   3.82835   3.84581   3.85777   3.87618
 Alpha virt. eigenvalues --    3.88612   3.92488   3.95025   3.96341   3.97112
 Alpha virt. eigenvalues --    3.98669   4.00769   4.03967   4.06091   4.07872
 Alpha virt. eigenvalues --    4.09207   4.11088   4.15123   4.16603   4.21560
 Alpha virt. eigenvalues --    4.26411   4.29855   4.31664   4.40107   4.43439
 Alpha virt. eigenvalues --    4.45939   4.53679   4.69027   4.84565   4.87004
 Alpha virt. eigenvalues --    4.91005   4.93855   5.02667   5.03359   5.08347
 Alpha virt. eigenvalues --    5.10015   5.10449   5.14812   5.16360   5.17438
 Alpha virt. eigenvalues --    5.28069   5.29825   5.30597   5.32972   5.42639
 Alpha virt. eigenvalues --    5.43708   5.76287   5.78443   5.80431   5.82144
 Alpha virt. eigenvalues --    5.85066   5.85908   8.02759   8.07245  17.29890
 Alpha virt. eigenvalues --   17.34357  17.50396  17.53219  17.59050  17.65307
 Alpha virt. eigenvalues --   23.52820  23.58550  23.72457  23.81951  23.83674
 Alpha virt. eigenvalues --   23.85637  23.88896  23.90459  23.91862  23.92242
 Alpha virt. eigenvalues --   23.92940  23.93502  23.95055  23.95712  23.97445
 Alpha virt. eigenvalues --   23.98091  23.99842  24.03208  24.04239  24.04697
 Alpha virt. eigenvalues --   24.04997  24.06537  24.12043  24.15508  24.16246
 Alpha virt. eigenvalues --   24.22413  35.58895  35.61377  49.97059  49.98555
 Alpha virt. eigenvalues --   50.05496  50.06793  50.08677  50.09739 189.20073
 Alpha virt. eigenvalues --  189.25224
          Condensed to atoms (all electrons):
 Mulliken charges:
               1
     1  C    0.298008
     2  C   -0.149297
     3  C    0.086632
     4  C    0.216230
     5  C    0.159617
     6  C    0.080072
     7  C    0.081865
     8  C    0.271454
     9  C    0.210691
    10  C   -0.684159
    11  C    0.299858
    12  C    0.065211
    13  C   -0.520026
    14  C   -0.563331
    15  H    0.123690
    16  H    0.124595
    17  H    0.128221
    18  N    0.006282
    19  N   -0.157416
    20  O   -0.518280
    21  O   -0.498378
    22  O   -0.516328
    23  O   -0.451156
    24  C   -0.192239
    25  H    0.165875
    26  H    0.162889
    27  H    0.167155
    28  C   -0.194491
    29  H    0.159548
    30  H    0.161839
    31  H    0.167249
    32  C   -0.006777
    33  C   -0.386166
    34  S   -0.729505
    35  C   -0.520883
    36  H    0.139757
    37  C    0.610558
    38  O   -0.170141
    39  C    0.805806
    40  C   -0.237285
    41  C    0.005950
    42  S   -0.228544
    43  H    0.172282
    44  H    0.157249
    45  H    0.158632
    46  C   -0.534616
    47  O   -0.162071
    48  C   -0.337520
    49  H    0.155897
    50  C   -0.250040
    51  H    0.183033
    52  H    0.156856
    53  H    0.170970
    54  H    0.154677
 Sum of Mulliken charges =  -2.00000
 Mulliken charges with hydrogens summed into heavy atoms:
               1
     1  C    0.298008
     2  C   -0.149297
     3  C    0.086632
     4  C    0.216230
     5  C    0.159617
     6  C    0.208294
     7  C    0.081865
     8  C    0.271454
     9  C    0.210691
    10  C   -0.684159
    11  C    0.299858
    12  C    0.065211
    13  C   -0.395430
    14  C   -0.439640
    18  N    0.006282
    19  N   -0.157416
    20  O   -0.518280
    21  O   -0.498378
    22  O   -0.516328
    23  O   -0.451156
    24  C    0.303680
    28  C    0.294144
    32  C   -0.006777
    33  C   -0.246409
    34  S   -0.729505
    35  C   -0.520883
    37  C    0.610558
    38  O   -0.170141
    39  C    0.805806
    40  C    0.250878
    41  C    0.005950
    42  S   -0.228544
    46  C   -0.378719
    47  O   -0.162071
    48  C   -0.154487
    50  C    0.232463
 Electronic spatial extent (au):  <R**2>=          22117.0600
 Charge=             -2.0000 electrons
 Dipole moment (field-independent basis, Debye):
    X=             25.1234    Y=             -3.9588    Z=              1.9494  Tot=             25.5079
 Quadrupole moment (field-independent basis, Debye-Ang):
   XX=           -366.2737   YY=           -286.1409   ZZ=           -242.4381
   XY=             15.3134   XZ=             25.1979   YZ=             13.4602
 Traceless Quadrupole moment (field-independent basis, Debye-Ang):
   XX=            -67.9895   YY=             12.1434   ZZ=             55.8461
   XY=             15.3134   XZ=             25.1979   YZ=             13.4602
 Octapole moment (field-independent basis, Debye-Ang**2):
  XXX=            932.7191  YYY=           -146.9476  ZZZ=             14.0306  XYY=            314.4291
  XXY=             72.0996  XXZ=            -62.0686  XZZ=             40.3298  YZZ=            -11.4595
  YYZ=              3.1131  XYZ=             44.0331
 Hexadecapole moment (field-independent basis, Debye-Ang**3):
 XXXX=         -25820.5878 YYYY=          -8770.4115 ZZZZ=          -1226.9318 XXXY=            226.2730
 XXXZ=           1238.5358 YYYX=            498.4773 YYYZ=             77.2466 ZZZX=             60.4019
 ZZZY=             55.7357 XXYY=          -5320.9707 XXZZ=          -4048.6164 YYZZ=          -1440.2834
 XXYZ=            272.4486 YYXZ=              4.4529 ZZXY=             42.0369
 N-N= 4.102834492436D+03 E-N=-1.380780863208D+04  KE= 2.352157595942D+03
 Unable to Open any file for archive entry.
 1\1\GINC-CX3-6-10\FOpt\RB3LYP\6-311+G(d,p)\C26H18N2O6S2(2-)\NS5018\28-
 Oct-2021\0\\# opt=modredundant b3lyp/6-311+g(d,p) scrf=(pcm, solvent=w
 ater)\\NDI_-175.pdb\\-2,1\C,-2.4536783077,-2.8660936404,-0.4657814498\
 C,-2.2181953462,-1.4507978247,-0.417952205\C,-3.2237657429,-0.57846940
 17,0.0719567405\C,-4.4677075993,-1.0756790801,0.521612969\C,-4.7336917
 298,-2.4900749934,0.4915414123\C,-0.9388019665,-0.9358043929,-0.751047
 5847\C,-2.9604613976,0.8416375788,0.0809500188\C,-1.7103282999,1.34335
 55699,-0.3897487249\C,-0.6325239434,0.4092789585,-0.7288845735\C,-1.63
 27911932,2.7453882608,-0.6868135082\C,-3.8226097528,3.1319327477,0.460
 4834267\C,-3.9977342155,1.7085213664,0.5169143865\C,-5.2414098735,1.17
 3855358,0.9840136987\C,-5.472036631,-0.1702034458,0.9923898381\H,-6.41
 49507023,-0.5769012716,1.3358352375\H,-5.9986795047,1.8730864476,1.316
 7168373\H,-0.1624829642,-1.6666354132,-0.9309503601\N,-2.6412283023,3.
 5756233771,-0.1453768058\N,-3.7066467562,-3.3122031571,-0.0106431413\O
 ,-1.6278906883,-3.7149350911,-0.8768793862\O,-5.8087279987,-3.00536028
 74,0.8759262195\O,-4.6621957492,3.9650856881,0.8807558018\O,-0.7580577
 714,3.2886698061,-1.400871606\C,-2.4732025122,5.0169191105,-0.34395618
 9\H,-1.4347354753,5.2886923022,-0.1656026417\H,-2.7306336979,5.3053458
 89,-1.3672853687\H,-3.1323114946,5.5320644043,0.3480277506\C,-3.936657
 522,-4.7578112222,-0.0665562353\H,-3.8053685255,-5.119005561,-1.087412
 7911\H,-3.2232862367,-5.2805829544,0.5734472487\H,-4.9491051677,-4.949
 3509113,0.2731503189\C,0.7967196516,0.7573506653,-0.7706907218\C,1.839
 1335664,-0.0620597629,-1.1777194731\S,1.4500508087,2.1364117076,0.0969
 543535\C,3.1208515146,0.4091839633,-0.8160657674\H,1.6820953777,-0.977
 4747385,-1.7281878545\C,3.1180098137,1.5941755493,-0.0901379432\O,4.31
 08237716,-0.1861198696,-1.1278401147\C,4.2471163327,2.3568930115,0.380
 8794406\C,4.2760494914,-1.3982016116,-1.884181073\C,4.2534081947,3.525
 3647851,1.1340731898\S,5.9157534348,1.8837864666,0.0486362857\H,5.3144
 624982,-1.6922198602,-2.0257940216\H,3.7450914856,-2.1856381398,-1.341
 4298929\H,3.8049932347,-1.2406731735,-2.8587321189\C,5.5535370892,4.02
 73410757,1.4330720259\O,3.0704792933,4.0862777055,1.523376752\C,6.5458
 852773,3.2455343241,0.9134689758\H,5.743839614,4.9222472794,2.00784730
 5\C,3.1247681633,5.2937376473,2.286087606\H,7.6132762401,3.3837179256,
 0.9917508265\H,3.6108077908,6.0947207975,1.7213096912\H,2.0906101166,5
 .567380346,2.4863149716\H,3.6501343077,5.1387156893,3.2330482239\\Vers
 ion=ES64L-G16RevC.01\State=1-A\HF=-2359.6206032\RMSD=6.715e-09\RMSF=8.
 622e-04\Dipole=9.7279845,2.3888435,0.6106512\Quadrupole=-47.5001936,2.
 700451,44.7997426,-15.9774993,16.2232318,10.3568667\PG=C01 [X(C26H18N2
 O6S2)]\\@
 The archive entry for this job was punched.


 OUR LITTLE SYSTEMS HAVE THEIR DAY,    
   THEY HAVE THEIR DAY AND CEASE TO BE.
   THEY ARE BUT BROKEN LIGHTS OF THEE, 
 AND THOU, OH LORD, ART MORE THAN THEY.
          -------------------          
 LET KNOWLEDGE GROW FROM MORE TO MORE, 
   BUT MORE OF REVERENCE IN US DWELL.  
   THAT MIND AND SOUL, ACCORDING WELL, 
 MAY MAKE ONE MUSIC AS BEFORE.....     
          -------------------          
                    LORD TENNYSON      
 Job cpu time:       4 days 10 hours 36 minutes  1.6 seconds.
 Elapsed time:       0 days  6 hours 44 minutes 17.0 seconds.
 File lengths (MBytes):  RWF=   1025 Int=      0 D2E=      0 Chk=     71 Scr=      1
 Normal termination of Gaussian 16 at Thu Oct 28 10:03:06 2021.
