 Entering Gaussian System, Link 0=g16
 Input=NDI_-100.gjf
 Output=NDI_-100.log
 Initial command:
 /apps/gaussian/g16-c01-avx/g16/l1.exe "/tmp/pbs.4768676[75].pbs/Gau-2089852.inp" -scrdir="/tmp/pbs.4768676[75].pbs/"
 Entering Link 1 = /apps/gaussian/g16-c01-avx/g16/l1.exe PID=   2089853.
  
 Copyright (c) 1988-2019, Gaussian, Inc.  All Rights Reserved.
  
 This is part of the Gaussian(R) 16 program.  It is based on
 the Gaussian(R) 09 system (copyright 2009, Gaussian, Inc.),
 the Gaussian(R) 03 system (copyright 2003, Gaussian, Inc.),
 the Gaussian(R) 98 system (copyright 1998, Gaussian, Inc.),
 the Gaussian(R) 94 system (copyright 1995, Gaussian, Inc.),
 the Gaussian 92(TM) system (copyright 1992, Gaussian, Inc.),
 the Gaussian 90(TM) system (copyright 1990, Gaussian, Inc.),
 the Gaussian 88(TM) system (copyright 1988, Gaussian, Inc.),
 the Gaussian 86(TM) system (copyright 1986, Carnegie Mellon
 University), and the Gaussian 82(TM) system (copyright 1983,
 Carnegie Mellon University). Gaussian is a federally registered
 trademark of Gaussian, Inc.
  
 This software contains proprietary and confidential information,
 including trade secrets, belonging to Gaussian, Inc.
  
 This software is provided under written license and may be
 used, copied, transmitted, or stored only in accord with that
 written license.
  
 The following legend is applicable only to US Government
 contracts under FAR:
  
                    RESTRICTED RIGHTS LEGEND
  
 Use, reproduction and disclosure by the US Government is
 subject to restrictions as set forth in subparagraphs (a)
 and (c) of the Commercial Computer Software - Restricted
 Rights clause in FAR 52.227-19.
  
 Gaussian, Inc.
 340 Quinnipiac St., Bldg. 40, Wallingford CT 06492
  
  
 ---------------------------------------------------------------
 Warning -- This program may not be used in any manner that
 competes with the business of Gaussian, Inc. or will provide
 assistance to any competitor of Gaussian, Inc.  The licensee
 of this program is prohibited from giving any competitor of
 Gaussian, Inc. access to this program.  By using this program,
 the user acknowledges that Gaussian, Inc. is engaged in the
 business of creating and licensing software in the field of
 computational chemistry and represents and warrants to the
 licensee that it is not a competitor of Gaussian, Inc. and that
 it will not use this program in any manner prohibited above.
 ---------------------------------------------------------------
  

 Cite this work as:
 Gaussian 16, Revision C.01,
 M. J. Frisch, G. W. Trucks, H. B. Schlegel, G. E. Scuseria, 
 M. A. Robb, J. R. Cheeseman, G. Scalmani, V. Barone, 
 G. A. Petersson, H. Nakatsuji, X. Li, M. Caricato, A. V. Marenich, 
 J. Bloino, B. G. Janesko, R. Gomperts, B. Mennucci, H. P. Hratchian, 
 J. V. Ortiz, A. F. Izmaylov, J. L. Sonnenberg, D. Williams-Young, 
 F. Ding, F. Lipparini, F. Egidi, J. Goings, B. Peng, A. Petrone, 
 T. Henderson, D. Ranasinghe, V. G. Zakrzewski, J. Gao, N. Rega, 
 G. Zheng, W. Liang, M. Hada, M. Ehara, K. Toyota, R. Fukuda, 
 J. Hasegawa, M. Ishida, T. Nakajima, Y. Honda, O. Kitao, H. Nakai, 
 T. Vreven, K. Throssell, J. A. Montgomery, Jr., J. E. Peralta, 
 F. Ogliaro, M. J. Bearpark, J. J. Heyd, E. N. Brothers, K. N. Kudin, 
 V. N. Staroverov, T. A. Keith, R. Kobayashi, J. Normand, 
 K. Raghavachari, A. P. Rendell, J. C. Burant, S. S. Iyengar, 
 J. Tomasi, M. Cossi, J. M. Millam, M. Klene, C. Adamo, R. Cammi, 
 J. W. Ochterski, R. L. Martin, K. Morokuma, O. Farkas, 
 J. B. Foresman, and D. J. Fox, Gaussian, Inc., Wallingford CT, 2019.
 
 ******************************************
 Gaussian 16:  ES64L-G16RevC.01  3-Jul-2019
                28-Oct-2021 
 ******************************************
 %mem=100GB
 %nprocshared=16
 Will use up to   16 processors via shared memory.
 ---------------------------------------------------------------
 # opt=modredundant b3lyp/6-311+g(d,p) scrf=(pcm, solvent=water)
 ---------------------------------------------------------------
 1/18=120,19=15,26=3,38=1/1,3;
 2/9=110,12=2,17=6,18=5,40=1/2;
 3/5=4,6=6,7=111,11=2,25=1,30=1,70=2201,71=1,72=1,74=-5/1,2,3;
 4//1;
 5/5=2,38=5,53=1/2;
 6/7=2,8=2,9=2,10=2,28=1/1;
 7//1,2,3,16;
 1/18=20,19=15,26=3/3(2);
 2/9=110/2;
 99//99;
 2/9=110/2;
 3/5=4,6=6,7=111,11=2,25=1,30=1,70=2205,71=1,72=1,74=-5/1,2,3;
 4/5=5,16=3,69=1/1;
 5/5=2,38=5,53=1/2;
 7//1,2,3,16;
 1/18=20,19=15,26=3/3(-5);
 2/9=110/2;
 6/7=2,8=2,9=2,10=2,19=2,28=1/1;
 99/9=1/99;
 ------------
 NDI_-100.pdb
 ------------
 Symbolic Z-matrix:
 Charge = -2 Multiplicity = 1
 C                    -2.563    -2.994    -0.409 
 C                    -2.257    -1.551    -0.224 
 C                    -3.301    -0.607    -0.083 
 C                    -4.65     -1.024    -0.115 
 C                    -4.992    -2.459    -0.304 
 C                    -0.949    -1.137    -0.215 
 C                    -2.962     0.764     0.102 
 C                    -1.595     1.188     0.123 
 C                    -0.561     0.232    -0.072 
 C                    -1.328     2.616     0.446 
 C                    -3.777     3.115     0.508 
 C                    -4.035     1.679     0.268 
 C                    -5.356     1.252     0.23 
 C                    -5.672    -0.098     0.036 
 H                    -6.699    -0.442     0.008 
 H                    -6.133     1.997     0.361 
 H                    -0.19     -1.895    -0.369 
 N                    -2.432     3.476     0.608 
 N                    -3.916    -3.353    -0.438 
 O                    -1.695    -3.847    -0.532 
 O                    -6.149    -2.85     -0.34 
 O                    -4.676     3.938     0.629 
 O                    -0.212     3.097     0.596 
 C                    -2.111     4.875     0.912 
 H                    -1.54      4.931     1.84 
 H                    -1.5       5.299     0.111 
 H                    -3.05      5.414     1.003 
 C                    -4.206    -4.779    -0.625 
 H                    -3.759    -5.126    -1.559 
 H                    -3.775    -5.355     0.196 
 H                    -5.286    -4.897    -0.649 
 C                     0.876     0.482    -0.178 
 C                     1.7       0.565    -1.284 
 S                     1.836     0.561     1.3 
 C                     3.065     0.695    -0.96 
 H                     1.325     0.542    -2.294 
 C                     3.334     0.722     0.412 
 O                     4.099     0.793    -1.838 
 C                     4.608     0.886     1.053 
 C                     3.778     0.906    -3.222 
 C                     4.877     0.89      2.421 
 S                     6.109     1.121     0.163 
 H                     4.726     1.053    -3.738 
 H                     3.3      -0.009    -3.594 
 H                     3.119     1.762    -3.407 
 C                     6.251     1.077     2.744 
 O                     3.853     0.726     3.3 
 C                     7.025     1.214     1.624 
 H                     6.644     1.106     3.751 
 C                     4.164     0.699     4.688 
 H                     8.095     1.365     1.578 
 H                     4.608     1.648     5.015 
 H                     3.217     0.546     5.205 
 H                     4.847    -0.124     4.927 
 
 The following ModRedundant input section has been read:
 D       8       9      32      33 F                                           
 

 GradGradGradGradGradGradGradGradGradGradGradGradGradGradGradGradGradGrad
 Berny optimization.
 Initialization pass.
                           ----------------------------
                           !    Initial Parameters    !
                           ! (Angstroms and Degrees)  !
 --------------------------                            --------------------------
 ! Name  Definition              Value          Derivative Info.                !
 --------------------------------------------------------------------------------
 ! R1    R(1,2)                  1.4866         estimate D2E/DX2                !
 ! R2    R(1,19)                 1.4001         estimate D2E/DX2                !
 ! R3    R(1,20)                 1.2232         estimate D2E/DX2                !
 ! R4    R(2,3)                  1.4146         estimate D2E/DX2                !
 ! R5    R(2,6)                  1.372          estimate D2E/DX2                !
 ! R6    R(3,4)                  1.4123         estimate D2E/DX2                !
 ! R7    R(3,7)                  1.4244         estimate D2E/DX2                !
 ! R8    R(4,5)                  1.4872         estimate D2E/DX2                !
 ! R9    R(4,14)                 1.3874         estimate D2E/DX2                !
 ! R10   R(5,19)                 1.4053         estimate D2E/DX2                !
 ! R11   R(5,21)                 1.2218         estimate D2E/DX2                !
 ! R12   R(6,9)                  1.4301         estimate D2E/DX2                !
 ! R13   R(6,17)                 1.0837         estimate D2E/DX2                !
 ! R14   R(7,8)                  1.4314         estimate D2E/DX2                !
 ! R15   R(7,12)                 1.4199         estimate D2E/DX2                !
 ! R16   R(8,9)                  1.4217         estimate D2E/DX2                !
 ! R17   R(8,10)                 1.4882         estimate D2E/DX2                !
 ! R18   R(9,32)                 1.4624         estimate D2E/DX2                !
 ! R19   R(10,18)                1.4088         estimate D2E/DX2                !
 ! R20   R(10,23)                1.2245         estimate D2E/DX2                !
 ! R21   R(11,12)                1.4786         estimate D2E/DX2                !
 ! R22   R(11,18)                1.3962         estimate D2E/DX2                !
 ! R23   R(11,22)                1.2248         estimate D2E/DX2                !
 ! R24   R(12,13)                1.3888         estimate D2E/DX2                !
 ! R25   R(13,14)                1.4            estimate D2E/DX2                !
 ! R26   R(13,16)                1.0844         estimate D2E/DX2                !
 ! R27   R(14,15)                1.0834         estimate D2E/DX2                !
 ! R28   R(18,24)                1.4672         estimate D2E/DX2                !
 ! R29   R(19,28)                1.4672         estimate D2E/DX2                !
 ! R30   R(24,25)                1.091          estimate D2E/DX2                !
 ! R31   R(24,26)                1.093          estimate D2E/DX2                !
 ! R32   R(24,27)                1.0865         estimate D2E/DX2                !
 ! R33   R(28,29)                1.0921         estimate D2E/DX2                !
 ! R34   R(28,30)                1.0916         estimate D2E/DX2                !
 ! R35   R(28,31)                1.0867         estimate D2E/DX2                !
 ! R36   R(32,33)                1.3817         estimate D2E/DX2                !
 ! R37   R(32,34)                1.7642         estimate D2E/DX2                !
 ! R38   R(33,35)                1.4089         estimate D2E/DX2                !
 ! R39   R(33,36)                1.0776         estimate D2E/DX2                !
 ! R40   R(34,37)                1.7488         estimate D2E/DX2                !
 ! R41   R(35,37)                1.3984         estimate D2E/DX2                !
 ! R42   R(35,38)                1.36           estimate D2E/DX2                !
 ! R43   R(37,39)                1.4356         estimate D2E/DX2                !
 ! R44   R(38,40)                1.4252         estimate D2E/DX2                !
 ! R45   R(39,41)                1.3942         estimate D2E/DX2                !
 ! R46   R(39,42)                1.7608         estimate D2E/DX2                !
 ! R47   R(40,43)                1.0893         estimate D2E/DX2                !
 ! R48   R(40,44)                1.0973         estimate D2E/DX2                !
 ! R49   R(40,45)                1.096          estimate D2E/DX2                !
 ! R50   R(41,46)                1.4238         estimate D2E/DX2                !
 ! R51   R(41,47)                1.3595         estimate D2E/DX2                !
 ! R52   R(42,48)                1.7269         estimate D2E/DX2                !
 ! R53   R(46,48)                1.3683         estimate D2E/DX2                !
 ! R54   R(46,49)                1.0814         estimate D2E/DX2                !
 ! R55   R(47,50)                1.4227         estimate D2E/DX2                !
 ! R56   R(48,51)                1.0816         estimate D2E/DX2                !
 ! R57   R(50,52)                1.0976         estimate D2E/DX2                !
 ! R58   R(50,53)                1.0897         estimate D2E/DX2                !
 ! R59   R(50,54)                1.0959         estimate D2E/DX2                !
 ! A1    A(2,1,19)             116.767          estimate D2E/DX2                !
 ! A2    A(2,1,20)             122.9113         estimate D2E/DX2                !
 ! A3    A(19,1,20)            120.3217         estimate D2E/DX2                !
 ! A4    A(1,2,3)              120.5473         estimate D2E/DX2                !
 ! A5    A(1,2,6)              119.3369         estimate D2E/DX2                !
 ! A6    A(3,2,6)              120.1056         estimate D2E/DX2                !
 ! A7    A(2,3,4)              120.3743         estimate D2E/DX2                !
 ! A8    A(2,3,7)              118.662          estimate D2E/DX2                !
 ! A9    A(4,3,7)              120.9617         estimate D2E/DX2                !
 ! A10   A(3,4,5)              120.4909         estimate D2E/DX2                !
 ! A11   A(3,4,14)             120.2702         estimate D2E/DX2                !
 ! A12   A(5,4,14)             119.2382         estimate D2E/DX2                !
 ! A13   A(4,5,19)             116.7341         estimate D2E/DX2                !
 ! A14   A(4,5,21)             122.024          estimate D2E/DX2                !
 ! A15   A(19,5,21)            121.2418         estimate D2E/DX2                !
 ! A16   A(2,6,9)              123.2421         estimate D2E/DX2                !
 ! A17   A(2,6,17)             117.1119         estimate D2E/DX2                !
 ! A18   A(9,6,17)             119.589          estimate D2E/DX2                !
 ! A19   A(3,7,8)              120.9519         estimate D2E/DX2                !
 ! A20   A(3,7,12)             117.1037         estimate D2E/DX2                !
 ! A21   A(8,7,12)             121.944          estimate D2E/DX2                !
 ! A22   A(7,8,9)              119.5639         estimate D2E/DX2                !
 ! A23   A(7,8,10)             117.3064         estimate D2E/DX2                !
 ! A24   A(9,8,10)             122.9922         estimate D2E/DX2                !
 ! A25   A(6,9,8)              117.3944         estimate D2E/DX2                !
 ! A26   A(6,9,32)             115.0236         estimate D2E/DX2                !
 ! A27   A(8,9,32)             127.5648         estimate D2E/DX2                !
 ! A28   A(8,10,18)            118.042          estimate D2E/DX2                !
 ! A29   A(8,10,23)            124.5436         estimate D2E/DX2                !
 ! A30   A(18,10,23)           117.4097         estimate D2E/DX2                !
 ! A31   A(12,11,18)           115.5202         estimate D2E/DX2                !
 ! A32   A(12,11,22)           122.7205         estimate D2E/DX2                !
 ! A33   A(18,11,22)           121.7534         estimate D2E/DX2                !
 ! A34   A(7,12,11)            120.8614         estimate D2E/DX2                !
 ! A35   A(7,12,13)            121.162          estimate D2E/DX2                !
 ! A36   A(11,12,13)           117.9699         estimate D2E/DX2                !
 ! A37   A(12,13,14)           120.9948         estimate D2E/DX2                !
 ! A38   A(12,13,16)           117.8401         estimate D2E/DX2                !
 ! A39   A(14,13,16)           121.1642         estimate D2E/DX2                !
 ! A40   A(4,14,13)            119.5003         estimate D2E/DX2                !
 ! A41   A(4,14,15)            118.9169         estimate D2E/DX2                !
 ! A42   A(13,14,15)           121.5811         estimate D2E/DX2                !
 ! A43   A(10,18,11)           126.0753         estimate D2E/DX2                !
 ! A44   A(10,18,24)           115.7508         estimate D2E/DX2                !
 ! A45   A(11,18,24)           118.1737         estimate D2E/DX2                !
 ! A46   A(1,19,5)             125.0856         estimate D2E/DX2                !
 ! A47   A(1,19,28)            116.2868         estimate D2E/DX2                !
 ! A48   A(5,19,28)            118.6276         estimate D2E/DX2                !
 ! A49   A(18,24,25)           109.8574         estimate D2E/DX2                !
 ! A50   A(18,24,26)           109.8979         estimate D2E/DX2                !
 ! A51   A(18,24,27)           107.5355         estimate D2E/DX2                !
 ! A52   A(25,24,26)           108.1108         estimate D2E/DX2                !
 ! A53   A(25,24,27)           110.8301         estimate D2E/DX2                !
 ! A54   A(26,24,27)           110.6124         estimate D2E/DX2                !
 ! A55   A(19,28,29)           109.6906         estimate D2E/DX2                !
 ! A56   A(19,28,30)           109.8136         estimate D2E/DX2                !
 ! A57   A(19,28,31)           107.7461         estimate D2E/DX2                !
 ! A58   A(29,28,30)           108.2991         estimate D2E/DX2                !
 ! A59   A(29,28,31)           110.6959         estimate D2E/DX2                !
 ! A60   A(30,28,31)           110.5924         estimate D2E/DX2                !
 ! A61   A(9,32,33)            130.8653         estimate D2E/DX2                !
 ! A62   A(9,32,34)            118.792          estimate D2E/DX2                !
 ! A63   A(33,32,34)           110.0844         estimate D2E/DX2                !
 ! A64   A(32,33,35)           113.5305         estimate D2E/DX2                !
 ! A65   A(32,33,36)           122.7807         estimate D2E/DX2                !
 ! A66   A(35,33,36)           123.6859         estimate D2E/DX2                !
 ! A67   A(32,34,37)            92.5698         estimate D2E/DX2                !
 ! A68   A(33,35,37)           114.4419         estimate D2E/DX2                !
 ! A69   A(33,35,38)           126.496          estimate D2E/DX2                !
 ! A70   A(37,35,38)           119.0621         estimate D2E/DX2                !
 ! A71   A(34,37,35)           109.3679         estimate D2E/DX2                !
 ! A72   A(34,37,39)           122.9533         estimate D2E/DX2                !
 ! A73   A(35,37,39)           127.6626         estimate D2E/DX2                !
 ! A74   A(35,38,40)           117.4764         estimate D2E/DX2                !
 ! A75   A(37,39,41)           127.5661         estimate D2E/DX2                !
 ! A76   A(37,39,42)           123.0983         estimate D2E/DX2                !
 ! A77   A(41,39,42)           109.3356         estimate D2E/DX2                !
 ! A78   A(38,40,43)           105.9433         estimate D2E/DX2                !
 ! A79   A(38,40,44)           111.1741         estimate D2E/DX2                !
 ! A80   A(38,40,45)           111.1774         estimate D2E/DX2                !
 ! A81   A(43,40,44)           109.3322         estimate D2E/DX2                !
 ! A82   A(43,40,45)           109.7504         estimate D2E/DX2                !
 ! A83   A(44,40,45)           109.3969         estimate D2E/DX2                !
 ! A84   A(39,41,46)           114.1526         estimate D2E/DX2                !
 ! A85   A(39,41,47)           119.2587         estimate D2E/DX2                !
 ! A86   A(46,41,47)           126.5886         estimate D2E/DX2                !
 ! A87   A(39,42,48)            91.8183         estimate D2E/DX2                !
 ! A88   A(41,46,48)           111.9219         estimate D2E/DX2                !
 ! A89   A(41,46,49)           124.4373         estimate D2E/DX2                !
 ! A90   A(48,46,49)           123.6406         estimate D2E/DX2                !
 ! A91   A(41,47,50)           117.934          estimate D2E/DX2                !
 ! A92   A(42,48,46)           112.7716         estimate D2E/DX2                !
 ! A93   A(42,48,51)           119.7545         estimate D2E/DX2                !
 ! A94   A(46,48,51)           127.4739         estimate D2E/DX2                !
 ! A95   A(47,50,52)           111.2656         estimate D2E/DX2                !
 ! A96   A(47,50,53)           105.9955         estimate D2E/DX2                !
 ! A97   A(47,50,54)           111.3013         estimate D2E/DX2                !
 ! A98   A(52,50,53)           109.3656         estimate D2E/DX2                !
 ! A99   A(52,50,54)           109.405          estimate D2E/DX2                !
 ! A100  A(53,50,54)           109.4331         estimate D2E/DX2                !
 ! D1    D(19,1,2,3)             0.1578         estimate D2E/DX2                !
 ! D2    D(19,1,2,6)          -178.6792         estimate D2E/DX2                !
 ! D3    D(20,1,2,3)          -179.8231         estimate D2E/DX2                !
 ! D4    D(20,1,2,6)             1.3399         estimate D2E/DX2                !
 ! D5    D(2,1,19,5)            -0.124          estimate D2E/DX2                !
 ! D6    D(2,1,19,28)          179.8267         estimate D2E/DX2                !
 ! D7    D(20,1,19,5)          179.8575         estimate D2E/DX2                !
 ! D8    D(20,1,19,28)          -0.1919         estimate D2E/DX2                !
 ! D9    D(1,2,3,4)              0.0571         estimate D2E/DX2                !
 ! D10   D(1,2,3,7)            179.5453         estimate D2E/DX2                !
 ! D11   D(6,2,3,4)            178.8851         estimate D2E/DX2                !
 ! D12   D(6,2,3,7)             -1.6266         estimate D2E/DX2                !
 ! D13   D(1,2,6,9)            178.625          estimate D2E/DX2                !
 ! D14   D(1,2,6,17)             1.3881         estimate D2E/DX2                !
 ! D15   D(3,2,6,9)             -0.2173         estimate D2E/DX2                !
 ! D16   D(3,2,6,17)          -177.4541         estimate D2E/DX2                !
 ! D17   D(2,3,4,5)             -0.3074         estimate D2E/DX2                !
 ! D18   D(2,3,4,14)           179.3968         estimate D2E/DX2                !
 ! D19   D(7,3,4,5)           -179.7837         estimate D2E/DX2                !
 ! D20   D(7,3,4,14)            -0.0795         estimate D2E/DX2                !
 ! D21   D(2,3,7,8)              1.0523         estimate D2E/DX2                !
 ! D22   D(2,3,7,12)          -178.712          estimate D2E/DX2                !
 ! D23   D(4,3,7,8)           -179.4626         estimate D2E/DX2                !
 ! D24   D(4,3,7,12)             0.7731         estimate D2E/DX2                !
 ! D25   D(3,4,5,19)             0.3343         estimate D2E/DX2                !
 ! D26   D(3,4,5,21)          -179.7799         estimate D2E/DX2                !
 ! D27   D(14,4,5,19)         -179.3729         estimate D2E/DX2                !
 ! D28   D(14,4,5,21)            0.5129         estimate D2E/DX2                !
 ! D29   D(3,4,14,13)           -0.4559         estimate D2E/DX2                !
 ! D30   D(3,4,14,15)         -179.9937         estimate D2E/DX2                !
 ! D31   D(5,4,14,13)          179.252          estimate D2E/DX2                !
 ! D32   D(5,4,14,15)           -0.2858         estimate D2E/DX2                !
 ! D33   D(4,5,19,1)            -0.1141         estimate D2E/DX2                !
 ! D34   D(4,5,19,28)          179.9364         estimate D2E/DX2                !
 ! D35   D(21,5,19,1)          179.9992         estimate D2E/DX2                !
 ! D36   D(21,5,19,28)           0.0496         estimate D2E/DX2                !
 ! D37   D(2,6,9,8)              2.5984         estimate D2E/DX2                !
 ! D38   D(2,6,9,32)          -176.0103         estimate D2E/DX2                !
 ! D39   D(17,6,9,8)           179.77           estimate D2E/DX2                !
 ! D40   D(17,6,9,32)            1.1613         estimate D2E/DX2                !
 ! D41   D(3,7,8,9)              1.3551         estimate D2E/DX2                !
 ! D42   D(3,7,8,10)          -174.5099         estimate D2E/DX2                !
 ! D43   D(12,7,8,9)          -178.8921         estimate D2E/DX2                !
 ! D44   D(12,7,8,10)            5.2428         estimate D2E/DX2                !
 ! D45   D(3,7,12,11)          178.0768         estimate D2E/DX2                !
 ! D46   D(3,7,12,13)           -0.9621         estimate D2E/DX2                !
 ! D47   D(8,7,12,11)           -1.685          estimate D2E/DX2                !
 ! D48   D(8,7,12,13)          179.2761         estimate D2E/DX2                !
 ! D49   D(7,8,9,6)             -3.0809         estimate D2E/DX2                !
 ! D50   D(7,8,9,32)           175.3285         estimate D2E/DX2                !
 ! D51   D(10,8,9,6)           172.5381         estimate D2E/DX2                !
 ! D52   D(10,8,9,32)           -9.0525         estimate D2E/DX2                !
 ! D53   D(7,8,10,18)           -4.7549         estimate D2E/DX2                !
 ! D54   D(7,8,10,23)          174.4235         estimate D2E/DX2                !
 ! D55   D(9,8,10,18)          179.5335         estimate D2E/DX2                !
 ! D56   D(9,8,10,23)           -1.2882         estimate D2E/DX2                !
 ! D57   D(6,9,32,33)           78.4256         estimate D2E/DX2                !
 ! D58   D(6,9,32,34)          -95.0971         estimate D2E/DX2                !
 ! D59   D(8,9,32,33)         -100.016          Frozen                          !
 ! D60   D(8,9,32,34)           86.4614         estimate D2E/DX2                !
 ! D61   D(8,10,18,11)           0.7189         estimate D2E/DX2                !
 ! D62   D(8,10,18,24)        -179.4089         estimate D2E/DX2                !
 ! D63   D(23,10,18,11)       -178.5188         estimate D2E/DX2                !
 ! D64   D(23,10,18,24)          1.3535         estimate D2E/DX2                !
 ! D65   D(18,11,12,7)          -2.3856         estimate D2E/DX2                !
 ! D66   D(18,11,12,13)        176.6833         estimate D2E/DX2                !
 ! D67   D(22,11,12,7)         178.4862         estimate D2E/DX2                !
 ! D68   D(22,11,12,13)         -2.445          estimate D2E/DX2                !
 ! D69   D(12,11,18,10)          2.8444         estimate D2E/DX2                !
 ! D70   D(12,11,18,24)       -177.0251         estimate D2E/DX2                !
 ! D71   D(22,11,18,10)       -178.0181         estimate D2E/DX2                !
 ! D72   D(22,11,18,24)          2.1124         estimate D2E/DX2                !
 ! D73   D(7,12,13,14)           0.461          estimate D2E/DX2                !
 ! D74   D(7,12,13,16)        -179.8781         estimate D2E/DX2                !
 ! D75   D(11,12,13,14)       -178.6049         estimate D2E/DX2                !
 ! D76   D(11,12,13,16)          1.056          estimate D2E/DX2                !
 ! D77   D(12,13,14,4)           0.2708         estimate D2E/DX2                !
 ! D78   D(12,13,14,15)        179.7958         estimate D2E/DX2                !
 ! D79   D(16,13,14,4)        -179.3788         estimate D2E/DX2                !
 ! D80   D(16,13,14,15)          0.1463         estimate D2E/DX2                !
 ! D81   D(10,18,24,25)        -59.609          estimate D2E/DX2                !
 ! D82   D(10,18,24,26)         59.2209         estimate D2E/DX2                !
 ! D83   D(10,18,24,27)        179.6858         estimate D2E/DX2                !
 ! D84   D(11,18,24,25)        120.2739         estimate D2E/DX2                !
 ! D85   D(11,18,24,26)       -120.8962         estimate D2E/DX2                !
 ! D86   D(11,18,24,27)         -0.4313         estimate D2E/DX2                !
 ! D87   D(1,19,28,29)         -58.1407         estimate D2E/DX2                !
 ! D88   D(1,19,28,30)          60.7668         estimate D2E/DX2                !
 ! D89   D(1,19,28,31)        -178.7139         estimate D2E/DX2                !
 ! D90   D(5,19,28,29)         121.8132         estimate D2E/DX2                !
 ! D91   D(5,19,28,30)        -119.2792         estimate D2E/DX2                !
 ! D92   D(5,19,28,31)           1.2401         estimate D2E/DX2                !
 ! D93   D(9,32,33,35)        -174.2358         estimate D2E/DX2                !
 ! D94   D(9,32,33,36)           6.3631         estimate D2E/DX2                !
 ! D95   D(34,32,33,35)         -0.2783         estimate D2E/DX2                !
 ! D96   D(34,32,33,36)       -179.6794         estimate D2E/DX2                !
 ! D97   D(9,32,34,37)         175.3529         estimate D2E/DX2                !
 ! D98   D(33,32,34,37)          0.5647         estimate D2E/DX2                !
 ! D99   D(32,33,35,37)         -0.2656         estimate D2E/DX2                !
 ! D100  D(32,33,35,38)        179.7715         estimate D2E/DX2                !
 ! D101  D(36,33,35,37)        179.1293         estimate D2E/DX2                !
 ! D102  D(36,33,35,38)         -0.8336         estimate D2E/DX2                !
 ! D103  D(32,34,37,35)         -0.699          estimate D2E/DX2                !
 ! D104  D(32,34,37,39)        177.9379         estimate D2E/DX2                !
 ! D105  D(33,35,37,34)          0.6792         estimate D2E/DX2                !
 ! D106  D(33,35,37,39)       -177.876          estimate D2E/DX2                !
 ! D107  D(38,35,37,34)       -179.3548         estimate D2E/DX2                !
 ! D108  D(38,35,37,39)          2.09           estimate D2E/DX2                !
 ! D109  D(33,35,38,40)          6.5154         estimate D2E/DX2                !
 ! D110  D(37,35,38,40)       -173.4461         estimate D2E/DX2                !
 ! D111  D(34,37,39,41)          2.808          estimate D2E/DX2                !
 ! D112  D(34,37,39,42)       -177.1574         estimate D2E/DX2                !
 ! D113  D(35,37,39,41)       -178.8164         estimate D2E/DX2                !
 ! D114  D(35,37,39,42)          1.2182         estimate D2E/DX2                !
 ! D115  D(35,38,40,43)        175.5182         estimate D2E/DX2                !
 ! D116  D(35,38,40,44)        -65.8048         estimate D2E/DX2                !
 ! D117  D(35,38,40,45)         56.3372         estimate D2E/DX2                !
 ! D118  D(37,39,41,46)       -179.9574         estimate D2E/DX2                !
 ! D119  D(37,39,41,47)         -0.1176         estimate D2E/DX2                !
 ! D120  D(42,39,41,46)          0.0119         estimate D2E/DX2                !
 ! D121  D(42,39,41,47)        179.8516         estimate D2E/DX2                !
 ! D122  D(37,39,42,48)        179.9842         estimate D2E/DX2                !
 ! D123  D(41,39,42,48)          0.0132         estimate D2E/DX2                !
 ! D124  D(39,41,46,48)         -0.0394         estimate D2E/DX2                !
 ! D125  D(39,41,46,49)       -179.8965         estimate D2E/DX2                !
 ! D126  D(47,41,46,48)       -179.8653         estimate D2E/DX2                !
 ! D127  D(47,41,46,49)          0.2776         estimate D2E/DX2                !
 ! D128  D(39,41,47,50)        178.3588         estimate D2E/DX2                !
 ! D129  D(46,41,47,50)         -1.8233         estimate D2E/DX2                !
 ! D130  D(39,42,48,46)         -0.0363         estimate D2E/DX2                !
 ! D131  D(39,42,48,51)        179.8961         estimate D2E/DX2                !
 ! D132  D(41,46,48,42)          0.049          estimate D2E/DX2                !
 ! D133  D(41,46,48,51)       -179.877          estimate D2E/DX2                !
 ! D134  D(49,46,48,42)        179.9075         estimate D2E/DX2                !
 ! D135  D(49,46,48,51)         -0.0186         estimate D2E/DX2                !
 ! D136  D(41,47,50,52)         62.0195         estimate D2E/DX2                !
 ! D137  D(41,47,50,53)       -179.1827         estimate D2E/DX2                !
 ! D138  D(41,47,50,54)        -60.2844         estimate D2E/DX2                !
 --------------------------------------------------------------------------------
 Trust Radius=3.00D-01 FncErr=1.00D-07 GrdErr=1.00D-06 EigMax=2.50D+02 EigMin=1.00D-04
 Number of steps in this run=    307 maximum allowed number of steps=    324.
 GradGradGradGradGradGradGradGradGradGradGradGradGradGradGradGradGradGrad

 Stoichiometry    C26H18N2O6S2(2-)
 Framework group  C1[X(C26H18N2O6S2)]
 Deg. of freedom   156
 Full point group                 C1      NOp   1
 Largest Abelian subgroup         C1      NOp   1
 Largest concise Abelian subgroup C1      NOp   1
                         Standard orientation:                         
 ---------------------------------------------------------------------
 Center     Atomic      Atomic             Coordinates (Angstroms)
 Number     Number       Type             X           Y           Z
 ---------------------------------------------------------------------
      1          6           0        3.198190   -2.854047   -0.201943
      2          6           0        2.600669   -1.502020   -0.043503
      3          6           0        3.418377   -0.347916   -0.062239
      4          6           0        4.815418   -0.465218   -0.233215
      5          6           0        5.446951   -1.802680   -0.389008
      6          6           0        1.247001   -1.383327    0.145801
      7          6           0        2.802526    0.928144    0.083312
      8          6           0        1.388005    1.046153    0.267995
      9          6           0        0.589109   -0.127850    0.335825
     10          6           0        0.813996    2.419106    0.285726
     11          6           0        3.094519    3.431886    0.131021
     12          6           0        3.650880    2.065566    0.031568
     13          6           0        5.023334    1.931540   -0.133425
     14          6           0        5.613903    0.668911   -0.263762
     15          1           0        6.683016    0.553498   -0.396145
     16          1           0        5.620516    2.836185   -0.163513
     17          1           0        0.672718   -2.301064    0.193950
     18          7           0        1.703564    3.509721    0.223375
     19          7           0        4.587637   -2.914390   -0.363585
     20          8           0        2.532112   -3.879942   -0.195537
     21          8           0        6.652617   -1.936880   -0.534564
     22          8           0        3.796772    4.435295    0.117486
     23          8           0       -0.383313    2.670479    0.336531
     24          6           0        1.084931    4.839672    0.257763
     25          1           0        0.401877    4.952597   -0.585472
     26          1           0        0.509510    4.958574    1.179420
     27          1           0        1.884291    5.573918    0.208484
     28          6           0        5.166577   -4.253952   -0.515068
     29          1           0        4.915191   -4.864006    0.355112
     30          1           0        4.754305   -4.736979   -1.402927
     31          1           0        6.243486   -4.140938   -0.606696
     32          6           0       -0.844275   -0.216151    0.612080
     33          6           0       -1.523420   -0.528720    1.774046
     34         16           0       -1.979444   -0.056854   -0.728943
     35          6           0       -2.917714   -0.632515    1.600061
     36          1           0       -1.027183   -0.667934    2.720419
     37          6           0       -3.356982   -0.396124    0.293678
     38          8           0       -3.832773   -0.931040    2.560891
     39          6           0       -4.709006   -0.386019   -0.188797
     40          6           0       -3.368200   -1.024662    3.905016
     41          6           0       -5.143366   -0.172424   -1.496279
     42         16           0       -6.103389   -0.655487    0.852072
     43          1           0       -4.254380   -1.187206    4.517253
     44          1           0       -2.680922   -1.871080    4.028782
     45          1           0       -2.867473   -0.100693    4.216137
     46          6           0       -6.557214   -0.223777   -1.656180
     47          8           0       -4.225523    0.060985   -2.471573
     48          6           0       -7.196275   -0.476713   -0.473019
     49          1           0       -7.071746   -0.083249   -2.596844
     50          6           0       -4.697338    0.239843   -3.801758
     51          1           0       -8.260983   -0.569678   -0.306972
     52          1           0       -5.352384    1.117277   -3.877191
     53          1           0       -3.811109    0.396626   -4.416187
     54          1           0       -5.234528   -0.647116   -4.156258
 ---------------------------------------------------------------------
 Rotational constants (GHZ):           0.1602855           0.0543157           0.0472738
 Standard basis: 6-311+G(d,p) (5D, 7F)
 There are   952 symmetry adapted cartesian basis functions of A   symmetry.
 There are   916 symmetry adapted basis functions of A   symmetry.
   916 basis functions,  1468 primitive gaussians,   952 cartesian basis functions
   135 alpha electrons      135 beta electrons
       nuclear repulsion energy      4079.9206738677 Hartrees.
 NAtoms=   54 NActive=   54 NUniq=   54 SFac= 1.00D+00 NAtFMM=   60 NAOKFM=F Big=F
 Integral buffers will be    131072 words long.
 Raffenetti 2 integral format.
 Two-electron integral symmetry is turned on.
 ------------------------------------------------------------------------------
 Polarizable Continuum Model (PCM)
 =================================
 Model                : PCM.
 Atomic radii         : UFF (Universal Force Field).
 Polarization charges : Total charges.
 Charge compensation  : None.
 Solution method      : On-the-fly selection.
 Cavity type          : Scaled VdW (van der Waals Surface) (Alpha=1.100).
 Cavity algorithm     : GePol (No added spheres)
                        Default sphere list used, NSphG=   54.
                        Lebedev-Laikov grids with approx.  5.0 points / Ang**2.
                        Smoothing algorithm: York/Karplus (Gamma=1.0000).
                        Polarization charges: spherical gaussians, with
                                              point-specific exponents (IZeta= 3).
                        Self-potential: point-specific (ISelfS= 7).
                        Self-field    : sphere-specific E.n sum rule (ISelfD= 2).
 1st derivatives      : Analytical E(r).r(x)/FMM algorithm (CHGder, D1EAlg=3).
                        Cavity 1st derivative terms included.
 Solvent              : Water, Eps=  78.355300 Eps(inf)=   1.777849
 ------------------------------------------------------------------------------
 One-electron integrals computed using PRISM.
 NBasis=   916 RedAO= T EigKep=  1.04D-06  NBF=   916
 NBsUse=   902 1.00D-06 EigRej=  6.71D-07 NBFU=   902
 ExpMin= 4.05D-02 ExpMax= 9.34D+04 ExpMxC= 3.17D+03 IAcc=3 IRadAn=         5 AccDes= 0.00D+00
 Harris functional with IExCor=  402 and IRadAn=       5 diagonalized for initial guess.
 HarFok:  IExCor=  402 AccDes= 0.00D+00 IRadAn=         5 IDoV= 1 UseB2=F ITyADJ=14
 ICtDFT=  3500011 ScaDFX=  1.000000  1.000000  1.000000  1.000000
 FoFCou: FMM=F IPFlag=           0 FMFlag=      100000 FMFlg1=           0
         NFxFlg=           0 DoJE=T BraDBF=F KetDBF=T FulRan=T
         wScrn=  0.000000 ICntrl=       500 IOpCl=  0 I1Cent=   200000004 NGrid=           0
         NMat0=    1 NMatS0=      1 NMatT0=    0 NMatD0=    1 NMtDS0=    0 NMtDT0=    0
 Petite list used in FoFCou.
 Requested convergence on RMS density matrix=1.00D-08 within 128 cycles.
 Requested convergence on MAX density matrix=1.00D-06.
 Requested convergence on             energy=1.00D-06.
 No special actions if energy rises.
 Inv3:  Mode=1 IEnd=    54955200.
 Iteration    1 A*A^-1 deviation from unit magnitude is 8.44D-15 for   4275.
 Iteration    1 A*A^-1 deviation from orthogonality  is 3.11D-15 for   3075     65.
 Iteration    1 A^-1*A deviation from unit magnitude is 8.44D-15 for   4275.
 Iteration    1 A^-1*A deviation from orthogonality  is 2.10D-15 for   3014   2801.
 Error on total polarization charges =  0.03048
 SCF Done:  E(RB3LYP) =  -2359.60261743     A.U. after   17 cycles
            NFock= 17  Conv=0.48D-08     -V/T= 2.0030

 **********************************************************************

            Population analysis using the SCF Density.

 **********************************************************************

 Orbital symmetries:
       Occupied  (A) (A) (A) (A) (A) (A) (A) (A) (A) (A) (A) (A)
                 (A) (A) (A) (A) (A) (A) (A) (A) (A) (A) (A) (A)
                 (A) (A) (A) (A) (A) (A) (A) (A) (A) (A) (A) (A)
                 (A) (A) (A) (A) (A) (A) (A) (A) (A) (A) (A) (A)
                 (A) (A) (A) (A) (A) (A) (A) (A) (A) (A) (A) (A)
                 (A) (A) (A) (A) (A) (A) (A) (A) (A) (A) (A) (A)
                 (A) (A) (A) (A) (A) (A) (A) (A) (A) (A) (A) (A)
                 (A) (A) (A) (A) (A) (A) (A) (A) (A) (A) (A) (A)
                 (A) (A) (A) (A) (A) (A) (A) (A) (A) (A) (A) (A)
                 (A) (A) (A) (A) (A) (A) (A) (A) (A) (A) (A) (A)
                 (A) (A) (A) (A) (A) (A) (A) (A) (A) (A) (A) (A)
                 (A) (A) (A)
       Virtual   (A) (A) (A) (A) (A) (A) (A) (A) (A) (A) (A) (A)
                 (A) (A) (A) (A) (A) (A) (A) (A) (A) (A) (A) (A)
                 (A) (A) (A) (A) (A) (A) (A) (A) (A) (A) (A) (A)
                 (A) (A) (A) (A) (A) (A) (A) (A) (A) (A) (A) (A)
                 (A) (A) (A) (A) (A) (A) (A) (A) (A) (A) (A) (A)
                 (A) (A) (A) (A) (A) (A) (A) (A) (A) (A) (A) (A)
                 (A) (A) (A) (A) (A) (A) (A) (A) (A) (A) (A) (A)
                 (A) (A) (A) (A) (A) (A) (A) (A) (A) (A) (A) (A)
                 (A) (A) (A) (A) (A) (A) (A) (A) (A) (A) (A) (A)
                 (A) (A) (A) (A) (A) (A) (A) (A) (A) (A) (A) (A)
                 (A) (A) (A) (A) (A) (A) (A) (A) (A) (A) (A) (A)
                 (A) (A) (A) (A) (A) (A) (A) (A) (A) (A) (A) (A)
                 (A) (A) (A) (A) (A) (A) (A) (A) (A) (A) (A) (A)
                 (A) (A) (A) (A) (A) (A) (A) (A) (A) (A) (A) (A)
                 (A) (A) (A) (A) (A) (A) (A) (A) (A) (A) (A) (A)
                 (A) (A) (A) (A) (A) (A) (A) (A) (A) (A) (A) (A)
                 (A) (A) (A) (A) (A) (A) (A) (A) (A) (A) (A) (A)
                 (A) (A) (A) (A) (A) (A) (A) (A) (A) (A) (A) (A)
                 (A) (A) (A) (A) (A) (A) (A) (A) (A) (A) (A) (A)
                 (A) (A) (A) (A) (A) (A) (A) (A) (A) (A) (A) (A)
                 (A) (A) (A) (A) (A) (A) (A) (A) (A) (A) (A) (A)
                 (A) (A) (A) (A) (A) (A) (A) (A) (A) (A) (A) (A)
                 (A) (A) (A) (A) (A) (A) (A) (A) (A) (A) (A) (A)
                 (A) (A) (A) (A) (A) (A) (A) (A) (A) (A) (A) (A)
                 (A) (A) (A) (A) (A) (A) (A) (A) (A) (A) (A) (A)
                 (A) (A) (A) (A) (A) (A) (A) (A) (A) (A) (A) (A)
                 (A) (A) (A) (A) (A) (A) (A) (A) (A) (A) (A) (A)
                 (A) (A) (A) (A) (A) (A) (A) (A) (A) (A) (A) (A)
                 (A) (A) (A) (A) (A) (A) (A) (A) (A) (A) (A) (A)
                 (A) (A) (A) (A) (A) (A) (A) (A) (A) (A) (A) (A)
                 (A) (A) (A) (A) (A) (A) (A) (A) (A) (A) (A) (A)
                 (A) (A) (A) (A) (A) (A) (A) (A) (A) (A) (A) (A)
                 (A) (A) (A) (A) (A) (A) (A) (A) (A) (A) (A) (A)
                 (A) (A) (A) (A) (A) (A) (A) (A) (A) (A) (A) (A)
                 (A) (A) (A) (A) (A) (A) (A) (A) (A) (A) (A) (A)
                 (A) (A) (A) (A) (A) (A) (A) (A) (A) (A) (A) (A)
                 (A) (A) (A) (A) (A) (A) (A) (A) (A) (A) (A) (A)
                 (A) (A) (A) (A) (A) (A) (A) (A) (A) (A) (A) (A)
                 (A) (A) (A) (A) (A) (A) (A) (A) (A) (A) (A) (A)
                 (A) (A) (A) (A) (A) (A) (A) (A) (A) (A) (A) (A)
                 (A) (A) (A) (A) (A) (A) (A) (A) (A) (A) (A) (A)
                 (A) (A) (A) (A) (A) (A) (A) (A) (A) (A) (A) (A)
                 (A) (A) (A) (A) (A) (A) (A) (A) (A) (A) (A) (A)
                 (A) (A) (A) (A) (A) (A) (A) (A) (A) (A) (A) (A)
                 (A) (A) (A) (A) (A) (A) (A) (A) (A) (A) (A) (A)
                 (A) (A) (A) (A) (A) (A) (A) (A) (A) (A) (A) (A)
                 (A) (A) (A) (A) (A) (A) (A) (A) (A) (A) (A) (A)
                 (A) (A) (A) (A) (A) (A) (A) (A) (A) (A) (A) (A)
                 (A) (A) (A) (A) (A) (A) (A) (A) (A) (A) (A) (A)
                 (A) (A) (A) (A) (A) (A) (A) (A) (A) (A) (A) (A)
                 (A) (A) (A) (A) (A) (A) (A) (A) (A) (A) (A) (A)
                 (A) (A) (A) (A) (A) (A) (A) (A) (A) (A) (A) (A)
                 (A) (A) (A) (A) (A) (A) (A) (A) (A) (A) (A) (A)
                 (A) (A) (A) (A) (A) (A) (A) (A) (A) (A) (A) (A)
                 (A) (A) (A) (A) (A) (A) (A) (A) (A) (A) (A) (A)
                 (A) (A) (A) (A) (A) (A) (A) (A) (A) (A) (A) (A)
                 (A) (A) (A) (A) (A) (A) (A) (A) (A) (A) (A) (A)
                 (A) (A) (A) (A) (A) (A) (A) (A) (A) (A) (A) (A)
                 (A) (A) (A) (A) (A) (A) (A) (A) (A) (A) (A) (A)
                 (A) (A) (A) (A) (A) (A) (A) (A) (A) (A) (A) (A)
                 (A) (A) (A) (A) (A) (A) (A) (A) (A) (A) (A) (A)
                 (A) (A) (A) (A) (A) (A) (A) (A) (A) (A) (A) (A)
                 (A) (A) (A) (A) (A) (A) (A) (A) (A) (A) (A) (A)
                 (A) (A) (A) (A) (A) (A) (A) (A) (A) (A) (A)
 The electronic state is 1-A.
 Alpha  occ. eigenvalues --  -88.87661 -88.86340 -19.16005 -19.15928 -19.07062
 Alpha  occ. eigenvalues --  -19.07002 -19.06732 -19.06291 -14.34503 -14.34113
 Alpha  occ. eigenvalues --  -10.25128 -10.24945 -10.24744 -10.24680 -10.23504
 Alpha  occ. eigenvalues --  -10.23112 -10.22318 -10.22245 -10.20786 -10.20179
 Alpha  occ. eigenvalues --  -10.20024 -10.19766 -10.18788 -10.18508 -10.18010
 Alpha  occ. eigenvalues --  -10.17301 -10.16986 -10.16927 -10.16892 -10.15699
 Alpha  occ. eigenvalues --  -10.15125 -10.14762 -10.14664 -10.14601 -10.14577
 Alpha  occ. eigenvalues --  -10.14565  -7.96229  -7.94925  -5.92533  -5.92153
 Alpha  occ. eigenvalues --   -5.91803  -5.91238  -5.90854  -5.90480  -1.07616
 Alpha  occ. eigenvalues --   -1.07439  -1.03716  -1.03354  -1.01807  -1.01332
 Alpha  occ. eigenvalues --   -0.91692  -0.91190  -0.88884  -0.87176  -0.86018
 Alpha  occ. eigenvalues --   -0.80923  -0.78392  -0.77230  -0.75487  -0.74145
 Alpha  occ. eigenvalues --   -0.73136  -0.72224  -0.71498  -0.71106  -0.69140
 Alpha  occ. eigenvalues --   -0.68922  -0.67193  -0.65192  -0.62628  -0.61212
 Alpha  occ. eigenvalues --   -0.60721  -0.59508  -0.58922  -0.57187  -0.55093
 Alpha  occ. eigenvalues --   -0.54850  -0.53460  -0.52984  -0.52441  -0.50165
 Alpha  occ. eigenvalues --   -0.48971  -0.48354  -0.47500  -0.47219  -0.47129
 Alpha  occ. eigenvalues --   -0.46513  -0.46204  -0.45870  -0.45245  -0.44766
 Alpha  occ. eigenvalues --   -0.44569  -0.44390  -0.44211  -0.42674  -0.42367
 Alpha  occ. eigenvalues --   -0.41718  -0.41079  -0.40790  -0.40556  -0.40431
 Alpha  occ. eigenvalues --   -0.40184  -0.39968  -0.39176  -0.38482  -0.38454
 Alpha  occ. eigenvalues --   -0.37987  -0.37820  -0.37325  -0.37302  -0.36888
 Alpha  occ. eigenvalues --   -0.36531  -0.36388  -0.35323  -0.35107  -0.34278
 Alpha  occ. eigenvalues --   -0.33396  -0.33083  -0.32566  -0.32120  -0.31814
 Alpha  occ. eigenvalues --   -0.29933  -0.27552  -0.26863  -0.26513  -0.25836
 Alpha  occ. eigenvalues --   -0.25426  -0.25178  -0.24556  -0.24173  -0.23907
 Alpha  occ. eigenvalues --   -0.23437  -0.23028  -0.20932  -0.17934  -0.11356
 Alpha virt. eigenvalues --   -0.04293  -0.02388  -0.01151  -0.00273  -0.00031
 Alpha virt. eigenvalues --    0.00397   0.00604   0.01061   0.01237   0.01368
 Alpha virt. eigenvalues --    0.01828   0.02553   0.02767   0.03107   0.03144
 Alpha virt. eigenvalues --    0.03473   0.03818   0.04241   0.04298   0.04386
 Alpha virt. eigenvalues --    0.04452   0.04884   0.05129   0.05316   0.05429
 Alpha virt. eigenvalues --    0.05725   0.05856   0.05948   0.06199   0.06655
 Alpha virt. eigenvalues --    0.06908   0.07061   0.07188   0.07762   0.07843
 Alpha virt. eigenvalues --    0.08083   0.08489   0.08743   0.09028   0.09085
 Alpha virt. eigenvalues --    0.09403   0.09509   0.09540   0.09985   0.10641
 Alpha virt. eigenvalues --    0.10694   0.10857   0.11095   0.11343   0.11686
 Alpha virt. eigenvalues --    0.11942   0.12243   0.12414   0.12721   0.12886
 Alpha virt. eigenvalues --    0.13249   0.13537   0.13671   0.14191   0.14546
 Alpha virt. eigenvalues --    0.14676   0.14853   0.15187   0.15242   0.15436
 Alpha virt. eigenvalues --    0.15694   0.15898   0.16260   0.16543   0.16657
 Alpha virt. eigenvalues --    0.16718   0.16974   0.17032   0.17553   0.17799
 Alpha virt. eigenvalues --    0.17902   0.18241   0.18537   0.18610   0.18828
 Alpha virt. eigenvalues --    0.19005   0.19220   0.19739   0.19878   0.20026
 Alpha virt. eigenvalues --    0.20107   0.20296   0.20501   0.20620   0.20920
 Alpha virt. eigenvalues --    0.21226   0.21337   0.21446   0.21529   0.21813
 Alpha virt. eigenvalues --    0.21989   0.22128   0.22414   0.22719   0.22803
 Alpha virt. eigenvalues --    0.23113   0.23308   0.23702   0.23909   0.24042
 Alpha virt. eigenvalues --    0.24165   0.24320   0.24640   0.24702   0.24974
 Alpha virt. eigenvalues --    0.25237   0.25311   0.25533   0.25759   0.25974
 Alpha virt. eigenvalues --    0.26045   0.26391   0.26738   0.26857   0.26928
 Alpha virt. eigenvalues --    0.27033   0.27236   0.27554   0.27634   0.27931
 Alpha virt. eigenvalues --    0.28099   0.28208   0.28372   0.28431   0.28850
 Alpha virt. eigenvalues --    0.28974   0.29185   0.29294   0.29628   0.29796
 Alpha virt. eigenvalues --    0.29936   0.30149   0.30268   0.30580   0.30640
 Alpha virt. eigenvalues --    0.30869   0.31062   0.31348   0.31529   0.31726
 Alpha virt. eigenvalues --    0.31862   0.32260   0.32398   0.32474   0.32769
 Alpha virt. eigenvalues --    0.33209   0.33349   0.33604   0.33876   0.34191
 Alpha virt. eigenvalues --    0.34517   0.34730   0.34910   0.35257   0.35411
 Alpha virt. eigenvalues --    0.35824   0.35928   0.36345   0.36605   0.36838
 Alpha virt. eigenvalues --    0.37662   0.38052   0.38246   0.38642   0.38998
 Alpha virt. eigenvalues --    0.39239   0.39928   0.40464   0.40723   0.41138
 Alpha virt. eigenvalues --    0.41570   0.41760   0.42231   0.42504   0.43231
 Alpha virt. eigenvalues --    0.43857   0.43899   0.44467   0.44615   0.45204
 Alpha virt. eigenvalues --    0.45456   0.45867   0.46312   0.46671   0.47040
 Alpha virt. eigenvalues --    0.47048   0.47423   0.47705   0.47965   0.48147
 Alpha virt. eigenvalues --    0.48600   0.49543   0.50301   0.50356   0.51210
 Alpha virt. eigenvalues --    0.51487   0.52070   0.52688   0.52947   0.53413
 Alpha virt. eigenvalues --    0.54676   0.55035   0.55251   0.55798   0.56119
 Alpha virt. eigenvalues --    0.56726   0.56866   0.57316   0.57655   0.57825
 Alpha virt. eigenvalues --    0.58256   0.58558   0.58824   0.59130   0.59409
 Alpha virt. eigenvalues --    0.60264   0.60410   0.61014   0.61265   0.61565
 Alpha virt. eigenvalues --    0.61733   0.62925   0.63231   0.63764   0.64075
 Alpha virt. eigenvalues --    0.64363   0.64644   0.65191   0.65730   0.65881
 Alpha virt. eigenvalues --    0.66040   0.66248   0.66658   0.67012   0.67392
 Alpha virt. eigenvalues --    0.67753   0.68061   0.68410   0.68892   0.69162
 Alpha virt. eigenvalues --    0.69673   0.70031   0.70388   0.71183   0.71331
 Alpha virt. eigenvalues --    0.71827   0.71977   0.72417   0.72651   0.72990
 Alpha virt. eigenvalues --    0.73676   0.74014   0.74449   0.74509   0.74836
 Alpha virt. eigenvalues --    0.75394   0.75612   0.76125   0.76325   0.76530
 Alpha virt. eigenvalues --    0.76727   0.77080   0.77254   0.77542   0.78171
 Alpha virt. eigenvalues --    0.78349   0.78563   0.78916   0.79291   0.79508
 Alpha virt. eigenvalues --    0.79851   0.80406   0.80604   0.81366   0.81453
 Alpha virt. eigenvalues --    0.81874   0.82812   0.83228   0.83453   0.84001
 Alpha virt. eigenvalues --    0.84854   0.85275   0.85994   0.86849   0.87999
 Alpha virt. eigenvalues --    0.88263   0.88845   0.89345   0.90525   0.90840
 Alpha virt. eigenvalues --    0.91100   0.91695   0.92002   0.92472   0.93603
 Alpha virt. eigenvalues --    0.94203   0.94725   0.95366   0.95939   0.96553
 Alpha virt. eigenvalues --    0.96839   0.97524   0.97933   0.98072   0.98677
 Alpha virt. eigenvalues --    0.99014   0.99379   0.99973   1.00168   1.00396
 Alpha virt. eigenvalues --    1.00841   1.01468   1.02148   1.02469   1.03060
 Alpha virt. eigenvalues --    1.03724   1.04145   1.04429   1.04643   1.05145
 Alpha virt. eigenvalues --    1.05512   1.06093   1.06209   1.06511   1.07346
 Alpha virt. eigenvalues --    1.07528   1.07798   1.08201   1.08397   1.08746
 Alpha virt. eigenvalues --    1.09441   1.10099   1.10373   1.10647   1.11034
 Alpha virt. eigenvalues --    1.11135   1.11766   1.12745   1.13760   1.14556
 Alpha virt. eigenvalues --    1.14774   1.15704   1.16128   1.16203   1.17150
 Alpha virt. eigenvalues --    1.17611   1.18640   1.19366   1.19659   1.20876
 Alpha virt. eigenvalues --    1.21507   1.21760   1.22403   1.22826   1.23387
 Alpha virt. eigenvalues --    1.23905   1.24533   1.25860   1.26288   1.27612
 Alpha virt. eigenvalues --    1.28036   1.28280   1.28830   1.30699   1.30933
 Alpha virt. eigenvalues --    1.31126   1.31754   1.32124   1.32602   1.33227
 Alpha virt. eigenvalues --    1.33613   1.35139   1.35848   1.36161   1.37230
 Alpha virt. eigenvalues --    1.37981   1.39190   1.40115   1.40664   1.41011
 Alpha virt. eigenvalues --    1.43052   1.43861   1.44149   1.44360   1.44654
 Alpha virt. eigenvalues --    1.45287   1.45573   1.46158   1.46682   1.46948
 Alpha virt. eigenvalues --    1.47186   1.47824   1.48639   1.49769   1.49850
 Alpha virt. eigenvalues --    1.50217   1.51028   1.51644   1.52270   1.52563
 Alpha virt. eigenvalues --    1.53667   1.54902   1.55041   1.55531   1.56026
 Alpha virt. eigenvalues --    1.56278   1.56546   1.56929   1.57033   1.57274
 Alpha virt. eigenvalues --    1.57484   1.57657   1.58767   1.59324   1.61508
 Alpha virt. eigenvalues --    1.62217   1.62659   1.62779   1.63510   1.63963
 Alpha virt. eigenvalues --    1.64318   1.64814   1.65214   1.65528   1.66823
 Alpha virt. eigenvalues --    1.66893   1.67572   1.68345   1.69110   1.69452
 Alpha virt. eigenvalues --    1.70205   1.70662   1.71061   1.71925   1.73133
 Alpha virt. eigenvalues --    1.73411   1.74107   1.74468   1.74576   1.75370
 Alpha virt. eigenvalues --    1.76081   1.77053   1.77337   1.77806   1.78349
 Alpha virt. eigenvalues --    1.78658   1.79622   1.79933   1.80539   1.81154
 Alpha virt. eigenvalues --    1.82462   1.82804   1.83937   1.85306   1.85913
 Alpha virt. eigenvalues --    1.86218   1.87056   1.87259   1.88322   1.89176
 Alpha virt. eigenvalues --    1.89691   1.90174   1.90661   1.92508   1.92678
 Alpha virt. eigenvalues --    1.93515   1.94006   1.94419   1.94989   1.95552
 Alpha virt. eigenvalues --    1.95711   1.96045   1.96653   1.97193   1.98448
 Alpha virt. eigenvalues --    1.99719   2.00309   2.00868   2.01155   2.02379
 Alpha virt. eigenvalues --    2.02826   2.03409   2.04393   2.04693   2.05110
 Alpha virt. eigenvalues --    2.05676   2.05893   2.06507   2.07025   2.07289
 Alpha virt. eigenvalues --    2.07738   2.08374   2.09329   2.09917   2.10730
 Alpha virt. eigenvalues --    2.11346   2.12775   2.12974   2.13469   2.13874
 Alpha virt. eigenvalues --    2.14154   2.15122   2.16320   2.16352   2.17301
 Alpha virt. eigenvalues --    2.18583   2.19933   2.20308   2.20630   2.21601
 Alpha virt. eigenvalues --    2.22323   2.22538   2.23167   2.24286   2.25361
 Alpha virt. eigenvalues --    2.25909   2.29561   2.30181   2.30803   2.32464
 Alpha virt. eigenvalues --    2.36635   2.36907   2.37245   2.39557   2.41052
 Alpha virt. eigenvalues --    2.41922   2.42284   2.44032   2.44263   2.44325
 Alpha virt. eigenvalues --    2.44639   2.45453   2.47330   2.47630   2.49053
 Alpha virt. eigenvalues --    2.49790   2.49884   2.50701   2.52295   2.52810
 Alpha virt. eigenvalues --    2.53512   2.53611   2.53745   2.54548   2.54753
 Alpha virt. eigenvalues --    2.55010   2.55385   2.55671   2.56953   2.58905
 Alpha virt. eigenvalues --    2.59391   2.59898   2.61820   2.62046   2.62910
 Alpha virt. eigenvalues --    2.64697   2.65341   2.68213   2.68324   2.68653
 Alpha virt. eigenvalues --    2.69108   2.69382   2.69960   2.70759   2.71782
 Alpha virt. eigenvalues --    2.72988   2.73228   2.74284   2.75315   2.75774
 Alpha virt. eigenvalues --    2.76115   2.76275   2.76785   2.77554   2.79552
 Alpha virt. eigenvalues --    2.79805   2.80043   2.80947   2.81714   2.83623
 Alpha virt. eigenvalues --    2.84556   2.85042   2.86472   2.87060   2.88161
 Alpha virt. eigenvalues --    2.88710   2.89718   2.90234   2.90682   2.90816
 Alpha virt. eigenvalues --    2.92067   2.92865   2.93838   2.94091   2.94796
 Alpha virt. eigenvalues --    2.94863   2.96380   2.96870   2.97042   2.97532
 Alpha virt. eigenvalues --    2.98621   2.99064   3.00062   3.00744   3.01183
 Alpha virt. eigenvalues --    3.03672   3.04422   3.05502   3.07297   3.08558
 Alpha virt. eigenvalues --    3.09539   3.10425   3.11578   3.12211   3.12854
 Alpha virt. eigenvalues --    3.15193   3.15628   3.17978   3.18758   3.19142
 Alpha virt. eigenvalues --    3.19722   3.20627   3.22870   3.23626   3.24217
 Alpha virt. eigenvalues --    3.24739   3.25900   3.27136   3.30143   3.30964
 Alpha virt. eigenvalues --    3.32324   3.32983   3.34343   3.35530   3.37041
 Alpha virt. eigenvalues --    3.38390   3.38869   3.39122   3.40018   3.40540
 Alpha virt. eigenvalues --    3.42327   3.42681   3.44927   3.46876   3.47112
 Alpha virt. eigenvalues --    3.48478   3.49366   3.50080   3.51306   3.53789
 Alpha virt. eigenvalues --    3.55196   3.56290   3.59684   3.62546   3.63795
 Alpha virt. eigenvalues --    3.65072   3.66349   3.69453   3.69828   3.71381
 Alpha virt. eigenvalues --    3.73487   3.74543   3.74879   3.75372   3.77387
 Alpha virt. eigenvalues --    3.77537   3.77830   3.83286   3.85656   3.86544
 Alpha virt. eigenvalues --    3.88211   3.89205   3.94529   3.96546   3.97092
 Alpha virt. eigenvalues --    3.97811   3.98011   4.01446   4.04890   4.06162
 Alpha virt. eigenvalues --    4.08834   4.09187   4.11516   4.15019   4.17779
 Alpha virt. eigenvalues --    4.21307   4.25274   4.29834   4.31110   4.40691
 Alpha virt. eigenvalues --    4.41747   4.45612   4.54862   4.68024   4.90083
 Alpha virt. eigenvalues --    4.90908   4.91917   4.94249   5.02610   5.03440
 Alpha virt. eigenvalues --    5.08367   5.09583   5.10128   5.12910   5.15955
 Alpha virt. eigenvalues --    5.17443   5.29097   5.31038   5.33137   5.35494
 Alpha virt. eigenvalues --    5.43302   5.44683   5.77533   5.79978   5.81125
 Alpha virt. eigenvalues --    5.84478   5.86326   5.89885   8.02922   8.08402
 Alpha virt. eigenvalues --   17.29692  17.36838  17.50446  17.53587  17.58643
 Alpha virt. eigenvalues --   17.65017  23.53695  23.59778  23.74510  23.82689
 Alpha virt. eigenvalues --   23.86490  23.88244  23.89410  23.91194  23.91495
 Alpha virt. eigenvalues --   23.92379  23.92650  23.93216  23.94388  23.97005
 Alpha virt. eigenvalues --   23.97647  24.00686  24.01813  24.03115  24.03620
 Alpha virt. eigenvalues --   24.05122  24.06202  24.11647  24.14624  24.15558
 Alpha virt. eigenvalues --   24.19829  24.20542  35.59970  35.62814  49.97155
 Alpha virt. eigenvalues --   49.98233  50.07116  50.08706  50.10903  50.12444
 Alpha virt. eigenvalues --  189.20212 189.27101
          Condensed to atoms (all electrons):
 Mulliken charges:
               1
     1  C    0.328554
     2  C   -0.072117
     3  C    0.130111
     4  C    0.084443
     5  C    0.233038
     6  C   -0.758460
     7  C    0.207600
     8  C   -0.204832
     9  C    0.423370
    10  C   -0.206855
    11  C    0.344219
    12  C    0.024062
    13  C   -0.567467
    14  C   -0.664563
    15  H    0.117612
    16  H    0.119561
    17  H    0.114733
    18  N   -0.173822
    19  N   -0.162645
    20  O   -0.490834
    21  O   -0.478603
    22  O   -0.488428
    23  O   -0.402732
    24  C   -0.197619
    25  H    0.161343
    26  H    0.159718
    27  H    0.167011
    28  C   -0.198782
    29  H    0.160471
    30  H    0.161571
    31  H    0.167869
    32  C    0.165006
    33  C   -0.642232
    34  S   -0.102814
    35  C   -0.125714
    36  H    0.134214
    37  C    0.272525
    38  O   -0.153301
    39  C    0.800561
    40  C   -0.258362
    41  C    0.092250
    42  S   -0.222295
    43  H    0.171484
    44  H    0.159820
    45  H    0.162551
    46  C   -0.521127
    47  O   -0.168445
    48  C   -0.374978
    49  H    0.156611
    50  C   -0.247646
    51  H    0.182707
    52  H    0.155876
    53  H    0.170505
    54  H    0.155280
 Sum of Mulliken charges =  -2.00000
 Mulliken charges with hydrogens summed into heavy atoms:
               1
     1  C    0.328554
     2  C   -0.072117
     3  C    0.130111
     4  C    0.084443
     5  C    0.233038
     6  C   -0.643727
     7  C    0.207600
     8  C   -0.204832
     9  C    0.423370
    10  C   -0.206855
    11  C    0.344219
    12  C    0.024062
    13  C   -0.447907
    14  C   -0.546951
    18  N   -0.173822
    19  N   -0.162645
    20  O   -0.490834
    21  O   -0.478603
    22  O   -0.488428
    23  O   -0.402732
    24  C    0.290452
    28  C    0.291128
    32  C    0.165006
    33  C   -0.508019
    34  S   -0.102814
    35  C   -0.125714
    37  C    0.272525
    38  O   -0.153301
    39  C    0.800561
    40  C    0.235493
    41  C    0.092250
    42  S   -0.222295
    46  C   -0.364517
    47  O   -0.168445
    48  C   -0.192271
    50  C    0.234014
 Electronic spatial extent (au):  <R**2>=          22536.8211
 Charge=             -2.0000 electrons
 Dipole moment (field-independent basis, Debye):
    X=            -27.3102    Y=             -3.0096    Z=              0.3620  Tot=             27.4779
 Quadrupole moment (field-independent basis, Debye-Ang):
   XX=           -378.0941   YY=           -309.7055   ZZ=           -205.3705
   XY=             -6.7535   XZ=             17.4378   YZ=             -8.7430
 Traceless Quadrupole moment (field-independent basis, Debye-Ang):
   XX=            -80.3707   YY=            -11.9821   ZZ=             92.3528
   XY=             -6.7535   XZ=             17.4378   YZ=             -8.7430
 Octapole moment (field-independent basis, Debye-Ang**2):
  XXX=          -1042.7157  YYY=            -74.0562  ZZZ=              2.9428  XYY=           -231.7303
  XXY=            -13.4641  XXZ=            -40.1545  XZZ=           -133.8993  YZZ=            -12.9747
  YYZ=              1.0170  XYZ=             -0.6185
 Hexadecapole moment (field-independent basis, Debye-Ang**3):
 XXXX=         -26712.5745 YYYY=          -7448.3517 ZZZZ=          -2124.1892 XXXY=            273.9065
 XXXZ=            871.0150 YYYX=           -640.0733 YYYZ=            -46.0696 ZZZX=            107.4671
 ZZZY=            -86.6102 XXYY=          -5894.6628 XXZZ=          -3807.1335 YYZZ=          -1461.8659
 XXYZ=           -153.9572 YYXZ=             -8.4344 ZZXY=            -13.1915
 N-N= 4.079920673868D+03 E-N=-1.376267820332D+04  KE= 2.352512611389D+03
 D1PCM: PCM CHGder 1st derivatives, ID1Alg=3 FixD1E=F DoIter=F DoCFld=F I1PDM=0.
 Calling FoFJK, ICntrl=      2127 FMM=F ISym2X=0 I1Cent= 0 IOpClX= 0 NMat=1 NMatS=1 NMatT=0.
 ***** Axes restored to original set *****
 -------------------------------------------------------------------
 Center     Atomic                   Forces (Hartrees/Bohr)
 Number     Number              X              Y              Z
 -------------------------------------------------------------------
      1        6          -0.013093461    0.052947916    0.008071053
      2        6          -0.034587885   -0.035200667   -0.003000299
      3        6           0.000781667   -0.009517864   -0.001525998
      4        6           0.012029815   -0.042143473   -0.006232981
      5        6           0.036054834    0.041288033    0.004972787
      6        6           0.043181963    0.040306645   -0.001445377
      7        6           0.001427082    0.007708565    0.000937167
      8        6          -0.011359137    0.037793778    0.011808006
      9        6          -0.008766704   -0.052068595   -0.009779678
     10        6          -0.026279921   -0.038155112   -0.010153030
     11        6           0.016363983   -0.050360811   -0.008075005
     12        6           0.027882536    0.033516697    0.005359851
     13        6          -0.033788293   -0.030659032   -0.004240517
     14        6          -0.016236431    0.041702684    0.006492929
     15        1          -0.000439418    0.001869840    0.000224516
     16        1          -0.000734807   -0.001789347   -0.000321422
     17        1           0.002668280    0.002304610    0.000619534
     18        7          -0.001619983    0.000664611   -0.000984497
     19        7          -0.000454805   -0.000149336   -0.000274509
     20        8           0.023149698   -0.029688464   -0.004401989
     21        8          -0.035105274   -0.017635216   -0.001716646
     22        8          -0.023769724    0.028637047    0.004633235
     23        8           0.032941460    0.013101689    0.002168223
     24        6           0.000283849   -0.002192152   -0.001694650
     25        1          -0.000493172    0.001107490    0.000207384
     26        1          -0.001026330    0.000661885    0.001098979
     27        1           0.001210696    0.000409896    0.000243672
     28        6           0.000886351    0.002521060   -0.000106224
     29        1          -0.001069698   -0.000701233    0.000465643
     30        1          -0.000851275   -0.000863298   -0.000275758
     31        1           0.001005719   -0.000900915   -0.000083378
     32        6           0.014807508    0.006693202    0.005379140
     33        6          -0.014900766   -0.002083589    0.005970769
     34       16          -0.006116572   -0.001478581   -0.006396202
     35        6           0.008120149    0.001668242    0.015958709
     36        1          -0.002151710   -0.000851274   -0.001584777
     37        6           0.001396207    0.001108726   -0.011455995
     38        8           0.001434722    0.000600415   -0.001523129
     39        6           0.002748124   -0.000759006    0.005840839
     40        6          -0.000873508   -0.000744873   -0.004195308
     41        6           0.001418124    0.000510622   -0.007367620
     42       16          -0.000428701   -0.000317421    0.001007856
     43        1          -0.000718351    0.000090873   -0.000128562
     44        1           0.000937780    0.001548552    0.000774273
     45        1           0.001387771   -0.000752784    0.000174821
     46        6           0.000197585    0.000062625   -0.001308423
     47        8          -0.001474402   -0.000464617   -0.000085494
     48        6           0.004796021    0.000751553    0.003202226
     49        1           0.000189358    0.000090519   -0.000840677
     50        6           0.001486832    0.000935695    0.005167367
     51        1          -0.001479655   -0.000201159   -0.000216472
     52        1          -0.001017325   -0.001632288   -0.000739722
     53        1           0.000861731    0.000130052   -0.000193521
     54        1          -0.000812536    0.000577585   -0.000431115
 -------------------------------------------------------------------
 Cartesian Forces:  Max     0.052947916 RMS     0.015093280

 GradGradGradGradGradGradGradGradGradGradGradGradGradGradGradGradGradGrad
 Berny optimization.
 FormGI is forming the generalized inverse of G from B-inverse, IUseBI=4.
 Internal  Forces:  Max     0.038937530 RMS     0.007108686
 Search for a local minimum.
 Step number   1 out of a maximum of  307
 All quantities printed in internal units (Hartrees-Bohrs-Radians)
 Mixed Optimization -- RFO/linear search
 Second derivative matrix not updated -- first step.
 ITU=  0
     Eigenvalues ---    0.00803   0.00803   0.01176   0.01203   0.01245
     Eigenvalues ---    0.01292   0.01308   0.01311   0.01358   0.01392
     Eigenvalues ---    0.01419   0.01429   0.01455   0.01496   0.01515
     Eigenvalues ---    0.01568   0.01576   0.01577   0.01618   0.01650
     Eigenvalues ---    0.01692   0.01710   0.01711   0.01719   0.01754
     Eigenvalues ---    0.01783   0.01803   0.01847   0.01963   0.02040
     Eigenvalues ---    0.02045   0.02066   0.02077   0.02082   0.02135
     Eigenvalues ---    0.02149   0.02163   0.02175   0.02197   0.02221
     Eigenvalues ---    0.02228   0.02253   0.07556   0.07572   0.07690
     Eigenvalues ---    0.07700   0.10061   0.10072   0.10636   0.10640
     Eigenvalues ---    0.15983   0.15999   0.15999   0.16000   0.16000
     Eigenvalues ---    0.16000   0.16000   0.16000   0.16000   0.16000
     Eigenvalues ---    0.16000   0.16000   0.16000   0.16000   0.16000
     Eigenvalues ---    0.16000   0.16000   0.16000   0.22530   0.22583
     Eigenvalues ---    0.23518   0.23582   0.24516   0.24747   0.24864
     Eigenvalues ---    0.24931   0.24952   0.24985   0.24987   0.24988
     Eigenvalues ---    0.24991   0.24994   0.24997   0.24997   0.24998
     Eigenvalues ---    0.24998   0.25000   0.25000   0.25000   0.25000
     Eigenvalues ---    0.25000   0.25000   0.25000   0.25000   0.25000
     Eigenvalues ---    0.25000   0.28799   0.28964   0.30057   0.32085
     Eigenvalues ---    0.32582   0.32774   0.33111   0.33787   0.33952
     Eigenvalues ---    0.33981   0.34127   0.34143   0.34354   0.34466
     Eigenvalues ---    0.34577   0.34629   0.34693   0.34844   0.34894
     Eigenvalues ---    0.35198   0.35218   0.35468   0.35553   0.35582
     Eigenvalues ---    0.35804   0.35831   0.36078   0.36083   0.36284
     Eigenvalues ---    0.36396   0.36662   0.39352   0.40194   0.40200
     Eigenvalues ---    0.40651   0.40713   0.41524   0.41683   0.42061
     Eigenvalues ---    0.42300   0.42704   0.43455   0.43915   0.44092
     Eigenvalues ---    0.44539   0.44594   0.45014   0.45406   0.46251
     Eigenvalues ---    0.47305   0.47551   0.49310   0.49662   0.52944
     Eigenvalues ---    0.53058   0.93281   0.93432   0.93989   0.94585
     Eigenvalues --- 1000.000001000.000001000.000001000.000001000.00000
     Eigenvalues --- 1000.000001000.000001000.000001000.000001000.00000
     Eigenvalues --- 1000.000001000.000001000.000001000.000001000.00000
     Eigenvalues --- 1000.000001000.000001000.000001000.000001000.00000
     Eigenvalues --- 1000.000001000.000001000.000001000.000001000.00000
     Eigenvalues --- 1000.000001000.000001000.000001000.000001000.00000
     Eigenvalues --- 1000.000001000.000001000.000001000.000001000.00000
     Eigenvalues --- 1000.000001000.000001000.000001000.000001000.00000
     Eigenvalues --- 1000.000001000.000001000.000001000.000001000.00000
     Eigenvalues --- 1000.000001000.000001000.000001000.000001000.00000
     Eigenvalues --- 1000.000001000.000001000.000001000.000001000.00000
     Eigenvalues --- 1000.000001000.000001000.000001000.000001000.00000
     Eigenvalues --- 1000.000001000.000001000.000001000.000001000.00000
     Eigenvalues --- 1000.000001000.000001000.000001000.000001000.00000
     Eigenvalues --- 1000.000001000.000001000.000001000.000001000.00000
     Eigenvalues --- 1000.000001000.000001000.000001000.000001000.00000
     Eigenvalues --- 1000.000001000.000001000.000001000.000001000.00000
     Eigenvalues --- 1000.000001000.000001000.000001000.000001000.00000
     Eigenvalues --- 1000.000001000.000001000.000001000.000001000.00000
     Eigenvalues --- 1000.000001000.000001000.000001000.000001000.00000
     Eigenvalues --- 1000.000001000.000001000.000001000.000001000.00000
     Eigenvalues --- 1000.000001000.000001000.000001000.000001000.00000
     Eigenvalues --- 1000.000001000.000001000.000001000.000001000.00000
     Eigenvalues --- 1000.000001000.000001000.000001000.000001000.00000
     Eigenvalues --- 1000.000001000.000001000.000001000.000001000.00000
     Eigenvalues --- 1000.000001000.000001000.000001000.000001000.00000
     Eigenvalues --- 1000.000001000.000001000.000001000.000001000.00000
     Eigenvalues --- 1000.000001000.000001000.000001000.000001000.00000
     Eigenvalues --- 1000.000001000.00000
 RFO step:  Lambda=-2.91270695D-02 EMin= 8.02933640D-03
 Linear search not attempted -- first point.
 Iteration  1 RMS(Cart)=  0.06611134 RMS(Int)=  0.00052316
 Iteration  2 RMS(Cart)=  0.00159064 RMS(Int)=  0.00007287
 Iteration  3 RMS(Cart)=  0.00000086 RMS(Int)=  0.00007287
 Iteration  1 RMS(Cart)=  0.00000629 RMS(Int)=  0.00000101
 Iteration  2 RMS(Cart)=  0.00000358 RMS(Int)=  0.00000112
 Iteration  3 RMS(Cart)=  0.00000204 RMS(Int)=  0.00000127
 Iteration  4 RMS(Cart)=  0.00000117 RMS(Int)=  0.00000138
 Iteration  5 RMS(Cart)=  0.00000066 RMS(Int)=  0.00000144
 Variable       Old X    -DE/DX   Delta X   Delta X   Delta X     New X
                                 (Linear)    (Quad)   (Total)
    R1        2.80935  -0.02492   0.00000  -0.06765  -0.06766   2.74169
    R2        2.64584   0.00360   0.00000   0.00688   0.00690   2.65274
    R3        2.31147   0.03757   0.00000   0.03877   0.03877   2.35024
    R4        2.67311   0.00617   0.00000   0.01597   0.01587   2.68898
    R5        2.59267   0.03619   0.00000   0.06856   0.06846   2.66114
    R6        2.66894   0.00522   0.00000   0.01236   0.01236   2.68130
    R7        2.69164   0.00849   0.00000   0.02039   0.02043   2.71207
    R8        2.81049  -0.02351   0.00000  -0.06428  -0.06427   2.74623
    R9        2.62173   0.03163   0.00000   0.06245   0.06245   2.68418
   R10        2.65570   0.00309   0.00000   0.00581   0.00584   2.66154
   R11        2.30889   0.03894   0.00000   0.03994   0.03994   2.34883
   R12        2.70248  -0.03477   0.00000  -0.08004  -0.08006   2.62242
   R13        2.04786   0.00017   0.00000   0.00044   0.00044   2.04829
   R14        2.70495   0.00072   0.00000   0.00020   0.00034   2.70529
   R15        2.68322   0.00455   0.00000   0.01000   0.01002   2.69324
   R16        2.68655   0.01797   0.00000   0.03785   0.03792   2.72447
   R17        2.81233  -0.02667   0.00000  -0.07347  -0.07345   2.73888
   R18        2.76359   0.01006   0.00000   0.02543   0.02543   2.78902
   R19        2.66221   0.00406   0.00000   0.00856   0.00854   2.67075
   R20        2.31391   0.03544   0.00000   0.03678   0.03678   2.35069
   R21        2.79415  -0.02075   0.00000  -0.05465  -0.05467   2.73948
   R22        2.63842   0.00456   0.00000   0.00957   0.00953   2.64795
   R23        2.31456   0.03715   0.00000   0.03862   0.03862   2.35318
   R24        2.62448   0.03046   0.00000   0.05985   0.05983   2.68432
   R25        2.64561  -0.02279   0.00000  -0.04746  -0.04748   2.59813
   R26        2.04921  -0.00074   0.00000  -0.00193  -0.00193   2.04728
   R27        2.04741  -0.00018   0.00000  -0.00048  -0.00048   2.04693
   R28        2.77259  -0.00004   0.00000  -0.00011  -0.00011   2.77248
   R29        2.77252  -0.00005   0.00000  -0.00013  -0.00013   2.77239
   R30        2.06176  -0.00003   0.00000  -0.00007  -0.00007   2.06169
   R31        2.06551  -0.00112   0.00000  -0.00300  -0.00300   2.06252
   R32        2.05322  -0.00082   0.00000  -0.00216  -0.00216   2.05106
   R33        2.06368  -0.00061   0.00000  -0.00164  -0.00164   2.06204
   R34        2.06281  -0.00009   0.00000  -0.00024  -0.00024   2.06258
   R35        2.05355  -0.00090   0.00000  -0.00236  -0.00236   2.05119
   R36        2.61104  -0.00981   0.00000  -0.01927  -0.01930   2.59174
   R37        3.33381  -0.00441   0.00000  -0.01431  -0.01434   3.31948
   R38        2.66250   0.01152   0.00000   0.02459   0.02460   2.68710
   R39        2.03640   0.00225   0.00000   0.00575   0.00575   2.04214
   R40        3.30484   0.00610   0.00000   0.01847   0.01849   3.32334
   R41        2.64256  -0.00756   0.00000  -0.01508  -0.01505   2.62751
   R42        2.57006   0.00486   0.00000   0.00871   0.00871   2.57877
   R43        2.71283   0.00752   0.00000   0.01744   0.01744   2.73027
   R44        2.69328   0.00312   0.00000   0.00700   0.00700   2.70028
   R45        2.63466  -0.00183   0.00000  -0.00378  -0.00378   2.63088
   R46        3.32738   0.00121   0.00000   0.00381   0.00381   3.33119
   R47        2.05847  -0.00055   0.00000  -0.00146  -0.00146   2.05701
   R48        2.07362  -0.00196   0.00000  -0.00532  -0.00532   2.06830
   R49        2.07116  -0.00145   0.00000  -0.00393  -0.00393   2.06724
   R50        2.69057   0.00188   0.00000   0.00409   0.00409   2.69466
   R51        2.56899   0.00318   0.00000   0.00569   0.00569   2.57468
   R52        3.26339   0.00069   0.00000   0.00207   0.00207   3.26546
   R53        2.58571  -0.00219   0.00000  -0.00404  -0.00404   2.58167
   R54        2.04347  -0.00071   0.00000  -0.00183  -0.00183   2.04164
   R55        2.68846   0.00383   0.00000   0.00851   0.00851   2.69697
   R56        2.04389  -0.00148   0.00000  -0.00383  -0.00383   2.04006
   R57        2.07411  -0.00204   0.00000  -0.00554  -0.00554   2.06857
   R58        2.05929  -0.00086   0.00000  -0.00227  -0.00227   2.05701
   R59        2.07090  -0.00103   0.00000  -0.00279  -0.00279   2.06811
    A1        2.03797  -0.00202   0.00000  -0.00663  -0.00664   2.03133
    A2        2.14521   0.00677   0.00000   0.02396   0.02396   2.16916
    A3        2.10001  -0.00475   0.00000  -0.01732  -0.01732   2.08269
    A4        2.10395  -0.00264   0.00000  -0.00965  -0.00962   2.09433
    A5        2.08282   0.00326   0.00000   0.00720   0.00731   2.09013
    A6        2.09624  -0.00062   0.00000   0.00250   0.00236   2.09859
    A7        2.10093   0.00463   0.00000   0.01583   0.01577   2.11670
    A8        2.07104  -0.00127   0.00000  -0.00198  -0.00203   2.06901
    A9        2.11118  -0.00335   0.00000  -0.01381  -0.01371   2.09747
   A10        2.10296  -0.00319   0.00000  -0.01032  -0.01036   2.09261
   A11        2.09911   0.00043   0.00000   0.00255   0.00258   2.10169
   A12        2.08110   0.00276   0.00000   0.00778   0.00779   2.08889
   A13        2.03739  -0.00176   0.00000  -0.00639  -0.00637   2.03103
   A14        2.12972   0.00722   0.00000   0.02592   0.02590   2.15563
   A15        2.11607  -0.00546   0.00000  -0.01952  -0.01954   2.09653
   A16        2.15098  -0.00317   0.00000  -0.01084  -0.01106   2.13992
   A17        2.04399   0.00525   0.00000   0.02525   0.02521   2.06920
   A18        2.08722  -0.00203   0.00000  -0.01331  -0.01336   2.07386
   A19        2.11101  -0.00392   0.00000  -0.01417  -0.01411   2.09690
   A20        2.04385   0.00262   0.00000   0.01100   0.01094   2.05478
   A21        2.12832   0.00130   0.00000   0.00319   0.00318   2.13151
   A22        2.08678   0.00302   0.00000   0.00770   0.00770   2.09448
   A23        2.04738   0.00399   0.00000   0.01576   0.01563   2.06302
   A24        2.14662  -0.00693   0.00000  -0.02156  -0.02180   2.12482
   A25        2.04892   0.00602   0.00000   0.01788   0.01793   2.06685
   A26        2.00754   0.00288   0.00000   0.01222   0.01219   2.01973
   A27        2.22643  -0.00891   0.00000  -0.03002  -0.03005   2.19637
   A28        2.06022  -0.00434   0.00000  -0.01624  -0.01631   2.04391
   A29        2.17370   0.00056   0.00000   0.00246   0.00239   2.17609
[...]
 Alpha  occ. eigenvalues --   -0.49343  -0.48387  -0.47423  -0.47104  -0.47085
 Alpha  occ. eigenvalues --   -0.46613  -0.46024  -0.45748  -0.45426  -0.44773
 Alpha  occ. eigenvalues --   -0.44448  -0.44342  -0.44189  -0.42575  -0.42197
 Alpha  occ. eigenvalues --   -0.41625  -0.41072  -0.40907  -0.40534  -0.40316
 Alpha  occ. eigenvalues --   -0.40077  -0.39981  -0.39189  -0.38201  -0.38179
 Alpha  occ. eigenvalues --   -0.37876  -0.37729  -0.37339  -0.36916  -0.36737
 Alpha  occ. eigenvalues --   -0.36453  -0.36209  -0.35147  -0.34671  -0.34532
 Alpha  occ. eigenvalues --   -0.33335  -0.33066  -0.32716  -0.32358  -0.31586
 Alpha  occ. eigenvalues --   -0.30020  -0.27756  -0.26679  -0.26233  -0.25720
 Alpha  occ. eigenvalues --   -0.25511  -0.25031  -0.24356  -0.24229  -0.23971
 Alpha  occ. eigenvalues --   -0.23444  -0.23338  -0.20820  -0.18273  -0.13162
 Alpha virt. eigenvalues --   -0.04199  -0.03454  -0.01134  -0.00357  -0.00048
 Alpha virt. eigenvalues --    0.00347   0.00543   0.00987   0.01220   0.01358
 Alpha virt. eigenvalues --    0.01723   0.02574   0.02695   0.03052   0.03154
 Alpha virt. eigenvalues --    0.03398   0.03719   0.04141   0.04268   0.04375
 Alpha virt. eigenvalues --    0.04514   0.04822   0.04851   0.05077   0.05343
 Alpha virt. eigenvalues --    0.05674   0.05687   0.05956   0.06158   0.06603
 Alpha virt. eigenvalues --    0.06943   0.07006   0.07242   0.07739   0.07883
 Alpha virt. eigenvalues --    0.08047   0.08531   0.08662   0.08952   0.09122
 Alpha virt. eigenvalues --    0.09445   0.09478   0.09583   0.09930   0.10565
 Alpha virt. eigenvalues --    0.10717   0.10894   0.11166   0.11381   0.11562
 Alpha virt. eigenvalues --    0.11966   0.12224   0.12519   0.12611   0.13069
 Alpha virt. eigenvalues --    0.13374   0.13457   0.13640   0.14275   0.14448
 Alpha virt. eigenvalues --    0.14576   0.14796   0.15098   0.15360   0.15485
 Alpha virt. eigenvalues --    0.15631   0.15876   0.16175   0.16399   0.16657
 Alpha virt. eigenvalues --    0.16839   0.16897   0.16986   0.17556   0.17687
 Alpha virt. eigenvalues --    0.17926   0.18147   0.18508   0.18604   0.18749
 Alpha virt. eigenvalues --    0.18963   0.19309   0.19725   0.19835   0.20112
 Alpha virt. eigenvalues --    0.20178   0.20295   0.20514   0.20638   0.20896
 Alpha virt. eigenvalues --    0.21170   0.21267   0.21519   0.21536   0.21780
 Alpha virt. eigenvalues --    0.22024   0.22136   0.22399   0.22581   0.22928
 Alpha virt. eigenvalues --    0.23018   0.23255   0.23638   0.23741   0.23945
 Alpha virt. eigenvalues --    0.24121   0.24251   0.24545   0.24793   0.24967
 Alpha virt. eigenvalues --    0.25181   0.25359   0.25583   0.25685   0.25892
 Alpha virt. eigenvalues --    0.26077   0.26227   0.26772   0.26899   0.27004
 Alpha virt. eigenvalues --    0.27037   0.27118   0.27491   0.27599   0.27815
 Alpha virt. eigenvalues --    0.28120   0.28237   0.28393   0.28473   0.28743
 Alpha virt. eigenvalues --    0.28865   0.29070   0.29235   0.29513   0.29670
 Alpha virt. eigenvalues --    0.29800   0.30029   0.30208   0.30350   0.30706
 Alpha virt. eigenvalues --    0.30794   0.31114   0.31327   0.31348   0.31615
 Alpha virt. eigenvalues --    0.31845   0.31952   0.32440   0.32462   0.32818
 Alpha virt. eigenvalues --    0.33089   0.33372   0.33691   0.33919   0.34269
 Alpha virt. eigenvalues --    0.34839   0.34950   0.35040   0.35377   0.35716
 Alpha virt. eigenvalues --    0.35876   0.36012   0.36380   0.36618   0.36782
 Alpha virt. eigenvalues --    0.37785   0.38024   0.38457   0.39061   0.39210
 Alpha virt. eigenvalues --    0.39866   0.40116   0.40607   0.41123   0.41372
 Alpha virt. eigenvalues --    0.41591   0.42136   0.42374   0.43207   0.43470
 Alpha virt. eigenvalues --    0.43590   0.43926   0.44542   0.44951   0.45095
 Alpha virt. eigenvalues --    0.45416   0.45619   0.46211   0.46612   0.47306
 Alpha virt. eigenvalues --    0.47342   0.47392   0.47894   0.47991   0.48399
 Alpha virt. eigenvalues --    0.49562   0.50446   0.50568   0.50924   0.51604
 Alpha virt. eigenvalues --    0.52080   0.52561   0.52916   0.53313   0.53994
 Alpha virt. eigenvalues --    0.54574   0.54687   0.55216   0.55836   0.56189
 Alpha virt. eigenvalues --    0.56575   0.56906   0.57443   0.57752   0.58083
 Alpha virt. eigenvalues --    0.58370   0.58883   0.59015   0.59491   0.59739
 Alpha virt. eigenvalues --    0.60141   0.60926   0.61076   0.61578   0.61655
 Alpha virt. eigenvalues --    0.62818   0.63199   0.63258   0.63678   0.64076
 Alpha virt. eigenvalues --    0.64421   0.65010   0.65555   0.65768   0.65963
 Alpha virt. eigenvalues --    0.66205   0.66255   0.66760   0.67235   0.67687
 Alpha virt. eigenvalues --    0.68007   0.68397   0.68659   0.68873   0.69331
 Alpha virt. eigenvalues --    0.69879   0.70087   0.70532   0.71065   0.71396
 Alpha virt. eigenvalues --    0.71712   0.72184   0.72474   0.73014   0.73579
 Alpha virt. eigenvalues --    0.74064   0.74343   0.74427   0.74696   0.75261
 Alpha virt. eigenvalues --    0.75448   0.75875   0.76003   0.76125   0.76359
 Alpha virt. eigenvalues --    0.76910   0.77152   0.77535   0.77928   0.78151
 Alpha virt. eigenvalues --    0.78356   0.78753   0.78820   0.79367   0.79494
 Alpha virt. eigenvalues --    0.79904   0.80440   0.81058   0.81259   0.81600
 Alpha virt. eigenvalues --    0.82312   0.82992   0.83541   0.84093   0.84899
 Alpha virt. eigenvalues --    0.85195   0.86243   0.86816   0.87403   0.88519
 Alpha virt. eigenvalues --    0.89510   0.89671   0.90534   0.91061   0.91302
 Alpha virt. eigenvalues --    0.91611   0.91966   0.92856   0.93418   0.94057
 Alpha virt. eigenvalues --    0.94588   0.94992   0.95538   0.96033   0.96226
 Alpha virt. eigenvalues --    0.96957   0.97399   0.97792   0.98015   0.98922
 Alpha virt. eigenvalues --    0.99195   0.99600   0.99869   1.00265   1.01095
 Alpha virt. eigenvalues --    1.01443   1.01687   1.02510   1.02902   1.03623
 Alpha virt. eigenvalues --    1.04050   1.04357   1.04600   1.04881   1.05224
 Alpha virt. eigenvalues --    1.05506   1.05999   1.06329   1.07044   1.07403
 Alpha virt. eigenvalues --    1.07641   1.07801   1.08328   1.08388   1.09138
 Alpha virt. eigenvalues --    1.09613   1.10097   1.10442   1.10798   1.11274
 Alpha virt. eigenvalues --    1.11743   1.12244   1.13343   1.13743   1.14763
 Alpha virt. eigenvalues --    1.15621   1.15783   1.16517   1.16818   1.18089
 Alpha virt. eigenvalues --    1.18175   1.18707   1.19495   1.20618   1.21504
 Alpha virt. eigenvalues --    1.21842   1.22217   1.22736   1.23480   1.24255
 Alpha virt. eigenvalues --    1.24750   1.25904   1.26488   1.26810   1.27833
 Alpha virt. eigenvalues --    1.28476   1.29395   1.30330   1.30807   1.31017
 Alpha virt. eigenvalues --    1.31689   1.32230   1.32626   1.33047   1.33676
 Alpha virt. eigenvalues --    1.35049   1.35898   1.36301   1.37606   1.38433
 Alpha virt. eigenvalues --    1.39962   1.40483   1.41220   1.42284   1.43115
 Alpha virt. eigenvalues --    1.43804   1.43949   1.44616   1.44875   1.45021
 Alpha virt. eigenvalues --    1.45874   1.46423   1.46615   1.47065   1.47233
 Alpha virt. eigenvalues --    1.47457   1.48538   1.49418   1.49822   1.50272
 Alpha virt. eigenvalues --    1.50488   1.51157   1.52717   1.53540   1.53931
 Alpha virt. eigenvalues --    1.54343   1.54544   1.55475   1.55841   1.56187
 Alpha virt. eigenvalues --    1.56529   1.57136   1.57251   1.57406   1.58051
 Alpha virt. eigenvalues --    1.58206   1.58295   1.58721   1.61051   1.61761
 Alpha virt. eigenvalues --    1.62612   1.63125   1.63326   1.63480   1.64321
 Alpha virt. eigenvalues --    1.64569   1.65370   1.65631   1.66179   1.66817
 Alpha virt. eigenvalues --    1.67365   1.67769   1.69024   1.69428   1.70199
 Alpha virt. eigenvalues --    1.70872   1.71408   1.71527   1.72511   1.73006
 Alpha virt. eigenvalues --    1.73572   1.74134   1.74673   1.75429   1.76831
 Alpha virt. eigenvalues --    1.77142   1.77428   1.77750   1.78275   1.78586
 Alpha virt. eigenvalues --    1.79835   1.80331   1.80765   1.81430   1.82684
 Alpha virt. eigenvalues --    1.82991   1.84355   1.84792   1.85801   1.85988
 Alpha virt. eigenvalues --    1.87227   1.87375   1.88412   1.88838   1.89689
 Alpha virt. eigenvalues --    1.89958   1.90340   1.92322   1.92740   1.93309
 Alpha virt. eigenvalues --    1.93635   1.93983   1.94582   1.95271   1.95748
 Alpha virt. eigenvalues --    1.96320   1.96980   1.97315   1.98831   1.99464
 Alpha virt. eigenvalues --    2.00409   2.00682   2.01052   2.02082   2.02607
 Alpha virt. eigenvalues --    2.03459   2.04012   2.04280   2.05064   2.05429
 Alpha virt. eigenvalues --    2.05597   2.06699   2.07081   2.07497   2.08088
 Alpha virt. eigenvalues --    2.08257   2.08872   2.10148   2.10783   2.11254
 Alpha virt. eigenvalues --    2.12272   2.12824   2.13276   2.13938   2.14422
 Alpha virt. eigenvalues --    2.14552   2.16325   2.17104   2.17508   2.18218
 Alpha virt. eigenvalues --    2.19442   2.20139   2.21126   2.21533   2.22184
 Alpha virt. eigenvalues --    2.22650   2.23134   2.24281   2.24692   2.26778
 Alpha virt. eigenvalues --    2.28987   2.30338   2.31811   2.32767   2.36612
 Alpha virt. eigenvalues --    2.37317   2.37777   2.39238   2.39856   2.41464
 Alpha virt. eigenvalues --    2.42208   2.43750   2.44283   2.44475   2.44775
 Alpha virt. eigenvalues --    2.45828   2.47763   2.48047   2.48936   2.49603
 Alpha virt. eigenvalues --    2.50254   2.50920   2.52208   2.52862   2.53172
 Alpha virt. eigenvalues --    2.53408   2.53882   2.54336   2.54767   2.55071
 Alpha virt. eigenvalues --    2.55583   2.55709   2.57168   2.59090   2.59346
 Alpha virt. eigenvalues --    2.59855   2.61981   2.62456   2.63196   2.64829
 Alpha virt. eigenvalues --    2.65228   2.67707   2.67770   2.68453   2.69115
 Alpha virt. eigenvalues --    2.69215   2.70132   2.70482   2.71923   2.72422
 Alpha virt. eigenvalues --    2.73148   2.73626   2.75165   2.75409   2.75743
 Alpha virt. eigenvalues --    2.76295   2.76693   2.76875   2.79658   2.80064
 Alpha virt. eigenvalues --    2.80547   2.80685   2.81218   2.83148   2.84007
 Alpha virt. eigenvalues --    2.84469   2.86629   2.87031   2.87502   2.87914
 Alpha virt. eigenvalues --    2.88981   2.89783   2.90294   2.90683   2.92058
 Alpha virt. eigenvalues --    2.92857   2.93219   2.93899   2.94266   2.95057
 Alpha virt. eigenvalues --    2.96064   2.96721   2.96934   2.97289   2.98127
 Alpha virt. eigenvalues --    2.99687   3.00087   3.00593   3.01744   3.03401
 Alpha virt. eigenvalues --    3.04132   3.04832   3.07828   3.08687   3.09362
 Alpha virt. eigenvalues --    3.10620   3.11499   3.13415   3.14558   3.15511
 Alpha virt. eigenvalues --    3.16667   3.17444   3.17906   3.19872   3.20849
 Alpha virt. eigenvalues --    3.22067   3.22890   3.23426   3.23752   3.24312
 Alpha virt. eigenvalues --    3.25322   3.26113   3.27625   3.30946   3.32152
 Alpha virt. eigenvalues --    3.33122   3.34080   3.35051   3.35379   3.35859
 Alpha virt. eigenvalues --    3.36124   3.36806   3.37809   3.39168   3.41513
 Alpha virt. eigenvalues --    3.41617   3.42092   3.43535   3.44817   3.45769
 Alpha virt. eigenvalues --    3.46179   3.49555   3.49678   3.52439   3.52976
 Alpha virt. eigenvalues --    3.55760   3.56628   3.60634   3.61938   3.63378
 Alpha virt. eigenvalues --    3.64597   3.67849   3.69612   3.70426   3.73905
 Alpha virt. eigenvalues --    3.74953   3.75337   3.75486   3.78096   3.78195
 Alpha virt. eigenvalues --    3.78369   3.82936   3.85498   3.86284   3.88208
 Alpha virt. eigenvalues --    3.89617   3.94790   3.96072   3.96402   3.97174
 Alpha virt. eigenvalues --    3.97534   4.01106   4.03987   4.06951   4.08495
 Alpha virt. eigenvalues --    4.09728   4.10934   4.14902   4.17518   4.21108
 Alpha virt. eigenvalues --    4.25509   4.30132   4.31861   4.41290   4.41975
 Alpha virt. eigenvalues --    4.46685   4.54367   4.67775   4.86425   4.90487
 Alpha virt. eigenvalues --    4.91434   4.94789   5.02571   5.03521   5.08531
 Alpha virt. eigenvalues --    5.09705   5.10374   5.12572   5.17429   5.18998
 Alpha virt. eigenvalues --    5.28673   5.30813   5.33205   5.36642   5.42049
 Alpha virt. eigenvalues --    5.43596   5.76548   5.78788   5.80385   5.83645
 Alpha virt. eigenvalues --    5.85262   5.89837   8.02617   8.07313  17.29664
 Alpha virt. eigenvalues --   17.36266  17.50388  17.53125  17.58389  17.63943
 Alpha virt. eigenvalues --   23.53150  23.59555  23.73454  23.81818  23.84033
 Alpha virt. eigenvalues --   23.85986  23.87988  23.91027  23.91853  23.92525
 Alpha virt. eigenvalues --   23.92761  23.93845  23.94848  23.95574  23.97692
 Alpha virt. eigenvalues --   23.98482  23.99878  24.03373  24.04363  24.05120
 Alpha virt. eigenvalues --   24.05758  24.06809  24.13882  24.16156  24.21550
 Alpha virt. eigenvalues --   24.23250  35.59735  35.62931  49.97025  49.98085
 Alpha virt. eigenvalues --   50.05784  50.07593  50.09385  50.11021 189.19911
 Alpha virt. eigenvalues --  189.25776
          Condensed to atoms (all electrons):
 Mulliken charges:
               1
     1  C    0.411608
     2  C    0.001506
     3  C    0.189572
     4  C    0.144605
     5  C    0.251127
     6  C   -0.559372
     7  C    0.207083
     8  C   -0.202709
     9  C    0.369300
    10  C   -0.340987
    11  C    0.189819
    12  C    0.159104
    13  C   -0.559537
    14  C   -0.656511
    15  H    0.121941
    16  H    0.122543
    17  H    0.116261
    18  N   -0.173566
    19  N   -0.160907
    20  O   -0.527296
    21  O   -0.515804
    22  O   -0.515231
    23  O   -0.387515
    24  C   -0.216112
    25  H    0.160479
    26  H    0.159150
    27  H    0.168315
    28  C   -0.199472
    29  H    0.159507
    30  H    0.159124
    31  H    0.167756
    32  C    0.048224
    33  C   -0.421496
    34  S   -0.194485
    35  C   -0.137616
    36  H    0.132891
    37  C    0.208803
    38  O   -0.173123
    39  C    0.750970
    40  C   -0.236115
    41  C    0.035859
    42  S   -0.254445
    43  H    0.172214
    44  H    0.159544
    45  H    0.162430
    46  C   -0.524885
    47  O   -0.178928
    48  C   -0.371439
    49  H    0.157099
    50  C   -0.247128
    51  H    0.183819
    52  H    0.157233
    53  H    0.171055
    54  H    0.155737
 Sum of Mulliken charges =  -2.00000
 Mulliken charges with hydrogens summed into heavy atoms:
               1
     1  C    0.411608
     2  C    0.001506
     3  C    0.189572
     4  C    0.144605
     5  C    0.251127
     6  C   -0.443111
     7  C    0.207083
     8  C   -0.202709
     9  C    0.369300
    10  C   -0.340987
    11  C    0.189819
    12  C    0.159104
    13  C   -0.436994
    14  C   -0.534570
    18  N   -0.173566
    19  N   -0.160907
    20  O   -0.527296
    21  O   -0.515804
    22  O   -0.515231
    23  O   -0.387515
    24  C    0.271832
    28  C    0.286915
    32  C    0.048224
    33  C   -0.288605
    34  S   -0.194485
    35  C   -0.137616
    37  C    0.208803
    38  O   -0.173123
    39  C    0.750970
    40  C    0.258074
    41  C    0.035859
    42  S   -0.254445
    46  C   -0.367786
    47  O   -0.178928
    48  C   -0.187620
    50  C    0.236897
 Electronic spatial extent (au):  <R**2>=          22596.9596
 Charge=             -2.0000 electrons
 Dipole moment (field-independent basis, Debye):
    X=            -28.0285    Y=             -2.6368    Z=              0.2410  Tot=             28.1533
 Quadrupole moment (field-independent basis, Debye-Ang):
   XX=           -380.7331   YY=           -316.4211   ZZ=           -205.8200
   XY=             -1.4224   XZ=             22.5880   YZ=             -3.9932
 Traceless Quadrupole moment (field-independent basis, Debye-Ang):
   XX=            -79.7417   YY=            -15.4297   ZZ=             95.1714
   XY=             -1.4224   XZ=             22.5880   YZ=             -3.9932
 Octapole moment (field-independent basis, Debye-Ang**2):
  XXX=          -1083.6122  YYY=            -75.4078  ZZZ=              4.1108  XYY=           -254.5462
  XXY=             10.5033  XXZ=            -18.5318  XZZ=           -139.8592  YZZ=            -14.4056
  YYZ=              2.4063  XYZ=              9.2810
 Hexadecapole moment (field-independent basis, Debye-Ang**3):
 XXXX=         -27059.1170 YYYY=          -7483.5622 ZZZZ=          -2175.6570 XXXY=            489.2868
 XXXZ=           1058.5169 YYYX=           -615.5985 YYYZ=             62.7421 ZZZX=            140.2457
 ZZZY=            -55.9995 XXYY=          -5935.4332 XXZZ=          -3841.6871 YYZZ=          -1467.4623
 XXYZ=           -102.2356 YYXZ=             38.3627 ZZXY=              6.7061
 N-N= 4.077019433381D+03 E-N=-1.375604045154D+04  KE= 2.352147140651D+03
 Unable to Open any file for archive entry.
 1\1\GINC-CX3-5-22\FOpt\RB3LYP\6-311+G(d,p)\C26H18N2O6S2(2-)\NS5018\28-
 Oct-2021\0\\# opt=modredundant b3lyp/6-311+g(d,p) scrf=(pcm, solvent=w
 ater)\\NDI_-100.pdb\\-2,1\C,-2.6080259084,-2.9836027532,-0.505906138\C
 ,-2.2893246859,-1.6030083687,-0.2948951714\C,-3.3195364817,-0.66070213
 17,-0.0578951198\C,-4.6792580107,-1.0616482057,-0.0197299229\C,-5.0325
 741158,-2.4375793142,-0.2209904392\C,-0.9290619703,-1.1737773944,-0.31
 42259734\C,-2.9673237395,0.7289228213,0.140379492\C,-1.5995469557,1.13
 60122175,0.0974325597\C,-0.5673916899,0.1338026277,-0.1237450573\C,-1.
 2888971813,2.5315259963,0.2519815882\C,-3.7233144093,3.0498396611,0.56
 03632017\C,-4.0149819987,1.6609778781,0.3673295202\C,-5.3808015503,1.2
 226594037,0.4016067913\C,-5.7043951423,-0.0871784593,0.2160198439\H,-6
 .735207963,-0.4183684738,0.2405521648\H,-6.1458650117,1.9686910703,0.5
 775133053\H,-0.1649615913,-1.924195621,-0.4742191226\N,-2.3688121303,3
 .4088081794,0.4889801846\N,-3.9679355746,-3.3314967094,-0.4533945396\O
 ,-1.7641955221,-3.8867467231,-0.7297533478\O,-6.2114045366,-2.87069678
 61,-0.2016636735\O,-4.5937229238,3.9298025189,0.7776914738\O,-0.143827
 2539,3.0350271196,0.1933445706\C,-2.0166267412,4.8205260508,0.65818741
 02\H,-1.3131125812,4.9371271772,1.4838683476\H,-1.5411548901,5.2049882
 504,-0.2461837183\H,-2.9301030022,5.3697756041,0.8615044023\C,-4.28018
 39946,-4.7466963277,-0.6642669615\H,-3.948384944,-5.0642797317,-1.6545
 781007\H,-3.7660757121,-5.3603452893,0.0773062491\H,-5.3544126959,-4.8
 698444926,-0.5739154552\C,0.8863887912,0.4304684678,-0.1578880425\C,1.
 6960792916,0.5890700769,-1.2490712125\S,1.8222213925,0.4793197435,1.31
 67803803\C,3.0668768325,0.7866818549,-0.9108218868\H,1.3140494916,0.58
 58445837,-2.2598107767\C,3.333734336,0.7638160568,0.4488892133\O,4.088
 3509149,0.9803206564,-1.7955976654\C,4.6048410025,0.9250454894,1.11618
 05726\C,3.7675721319,1.0379149421,-3.1882400527\C,4.8776466872,0.88272
 31014,2.4768230054\S,6.1041157473,1.2305189275,0.2390111975\H,4.710104
 0351,1.2100840256,-3.7045105784\H,3.3314336483,0.0952617369,-3.5305468
 122\H,3.0796511665,1.8614872385,-3.3991287818\C,6.2488315528,1.0917496
 224,2.8085392978\O,3.8656894,0.6529718373,3.3632078572\C,7.0249594262,
 1.2926805393,1.7030463657\H,6.6397481079,1.092432651,3.8157133055\C,4.
 1868121088,0.6457573019,4.7565838981\H,8.0882250487,1.4723002926,1.659
 9524496\H,4.5920531232,1.6116165759,5.0717069603\H,3.249914239,0.45795
 0175,5.2774451471\H,4.900122433,-0.1493356912,4.9920377942\\Version=ES
 64L-G16RevC.01\State=1-A\HF=-2359.6243722\RMSD=2.650e-09\RMSF=1.789e-0
 4\Dipole=10.9436566,1.2745925,1.1390338\Quadrupole=-59.0966523,-12.483
 5792,71.5802314,-10.6837144,2.1819237,-10.658339\PG=C01 [X(C26H18N2O6S
 2)]\\@
 The archive entry for this job was punched.


 WE STILL HAVE JUDGEMENT HERE,
 THAT WE TEACH BUT BLOODY INSTRUCTIONS,
 WHICH, BEING TAUGHT,
 RETURN TO PLAGUE THE INVENTOR.
           MACBETH ACT I, SCENE VII
 Job cpu time:       3 days  4 hours 14 minutes 33.9 seconds.
 Elapsed time:       0 days  4 hours 49 minutes 55.5 seconds.
 File lengths (MBytes):  RWF=    868 Int=      0 D2E=      0 Chk=     71 Scr=      1
 Normal termination of Gaussian 16 at Thu Oct 28 10:59:59 2021.
