 Entering Gaussian System, Link 0=g16
 Input=NDI_-75.gjf
 Output=NDI_-75.log
 Initial command:
 /apps/gaussian/g16-c01-avx/g16/l1.exe "/tmp/pbs.4768676[100].pbs/Gau-3289607.inp" -scrdir="/tmp/pbs.4768676[100].pbs/"
 Entering Link 1 = /apps/gaussian/g16-c01-avx/g16/l1.exe PID=   3289608.
  
 Copyright (c) 1988-2019, Gaussian, Inc.  All Rights Reserved.
  
 This is part of the Gaussian(R) 16 program.  It is based on
 the Gaussian(R) 09 system (copyright 2009, Gaussian, Inc.),
 the Gaussian(R) 03 system (copyright 2003, Gaussian, Inc.),
 the Gaussian(R) 98 system (copyright 1998, Gaussian, Inc.),
 the Gaussian(R) 94 system (copyright 1995, Gaussian, Inc.),
 the Gaussian 92(TM) system (copyright 1992, Gaussian, Inc.),
 the Gaussian 90(TM) system (copyright 1990, Gaussian, Inc.),
 the Gaussian 88(TM) system (copyright 1988, Gaussian, Inc.),
 the Gaussian 86(TM) system (copyright 1986, Carnegie Mellon
 University), and the Gaussian 82(TM) system (copyright 1983,
 Carnegie Mellon University). Gaussian is a federally registered
 trademark of Gaussian, Inc.
  
 This software contains proprietary and confidential information,
 including trade secrets, belonging to Gaussian, Inc.
  
 This software is provided under written license and may be
 used, copied, transmitted, or stored only in accord with that
 written license.
  
 The following legend is applicable only to US Government
 contracts under FAR:
  
                    RESTRICTED RIGHTS LEGEND
  
 Use, reproduction and disclosure by the US Government is
 subject to restrictions as set forth in subparagraphs (a)
 and (c) of the Commercial Computer Software - Restricted
 Rights clause in FAR 52.227-19.
  
 Gaussian, Inc.
 340 Quinnipiac St., Bldg. 40, Wallingford CT 06492
  
  
 ---------------------------------------------------------------
 Warning -- This program may not be used in any manner that
 competes with the business of Gaussian, Inc. or will provide
 assistance to any competitor of Gaussian, Inc.  The licensee
 of this program is prohibited from giving any competitor of
 Gaussian, Inc. access to this program.  By using this program,
 the user acknowledges that Gaussian, Inc. is engaged in the
 business of creating and licensing software in the field of
 computational chemistry and represents and warrants to the
 licensee that it is not a competitor of Gaussian, Inc. and that
 it will not use this program in any manner prohibited above.
 ---------------------------------------------------------------
  

 Cite this work as:
 Gaussian 16, Revision C.01,
 M. J. Frisch, G. W. Trucks, H. B. Schlegel, G. E. Scuseria, 
 M. A. Robb, J. R. Cheeseman, G. Scalmani, V. Barone, 
 G. A. Petersson, H. Nakatsuji, X. Li, M. Caricato, A. V. Marenich, 
 J. Bloino, B. G. Janesko, R. Gomperts, B. Mennucci, H. P. Hratchian, 
 J. V. Ortiz, A. F. Izmaylov, J. L. Sonnenberg, D. Williams-Young, 
 F. Ding, F. Lipparini, F. Egidi, J. Goings, B. Peng, A. Petrone, 
 T. Henderson, D. Ranasinghe, V. G. Zakrzewski, J. Gao, N. Rega, 
 G. Zheng, W. Liang, M. Hada, M. Ehara, K. Toyota, R. Fukuda, 
 J. Hasegawa, M. Ishida, T. Nakajima, Y. Honda, O. Kitao, H. Nakai, 
 T. Vreven, K. Throssell, J. A. Montgomery, Jr., J. E. Peralta, 
 F. Ogliaro, M. J. Bearpark, J. J. Heyd, E. N. Brothers, K. N. Kudin, 
 V. N. Staroverov, T. A. Keith, R. Kobayashi, J. Normand, 
 K. Raghavachari, A. P. Rendell, J. C. Burant, S. S. Iyengar, 
 J. Tomasi, M. Cossi, J. M. Millam, M. Klene, C. Adamo, R. Cammi, 
 J. W. Ochterski, R. L. Martin, K. Morokuma, O. Farkas, 
 J. B. Foresman, and D. J. Fox, Gaussian, Inc., Wallingford CT, 2019.
 
 ******************************************
 Gaussian 16:  ES64L-G16RevC.01  3-Jul-2019
                28-Oct-2021 
 ******************************************
 %mem=100GB
 %nprocshared=16
 Will use up to   16 processors via shared memory.
 ---------------------------------------------------------------
 # opt=modredundant b3lyp/6-311+g(d,p) scrf=(pcm, solvent=water)
 ---------------------------------------------------------------
 1/18=120,19=15,26=3,38=1/1,3;
 2/9=110,12=2,17=6,18=5,40=1/2;
 3/5=4,6=6,7=111,11=2,25=1,30=1,70=2201,71=1,72=1,74=-5/1,2,3;
 4//1;
 5/5=2,38=5,53=1/2;
 6/7=2,8=2,9=2,10=2,28=1/1;
 7//1,2,3,16;
 1/18=20,19=15,26=3/3(2);
 2/9=110/2;
 99//99;
 2/9=110/2;
 3/5=4,6=6,7=111,11=2,25=1,30=1,70=2205,71=1,72=1,74=-5/1,2,3;
 4/5=5,16=3,69=1/1;
 5/5=2,38=5,53=1/2;
 7//1,2,3,16;
 1/18=20,19=15,26=3/3(-5);
 2/9=110/2;
 6/7=2,8=2,9=2,10=2,19=2,28=1/1;
 99/9=1/99;
 -----------
 NDI_-75.pdb
 -----------
 Symbolic Z-matrix:
 Charge = -2 Multiplicity = 1
 C                    -2.563    -2.994    -0.409 
 C                    -2.257    -1.551    -0.224 
 C                    -3.301    -0.607    -0.083 
 C                    -4.65     -1.024    -0.115 
 C                    -4.992    -2.459    -0.304 
 C                    -0.949    -1.137    -0.215 
 C                    -2.962     0.764     0.102 
 C                    -1.595     1.188     0.123 
 C                    -0.561     0.232    -0.072 
 C                    -1.328     2.616     0.446 
 C                    -3.777     3.115     0.508 
 C                    -4.035     1.679     0.268 
 C                    -5.356     1.252     0.23 
 C                    -5.672    -0.098     0.036 
 H                    -6.699    -0.442     0.008 
 H                    -6.133     1.997     0.361 
 H                    -0.19     -1.895    -0.369 
 N                    -2.432     3.476     0.608 
 N                    -3.916    -3.353    -0.438 
 O                    -1.695    -3.847    -0.532 
 O                    -6.149    -2.85     -0.34 
 O                    -4.676     3.938     0.629 
 O                    -0.212     3.097     0.596 
 C                    -2.111     4.875     0.912 
 H                    -1.54      4.931     1.84 
 H                    -1.5       5.299     0.111 
 H                    -3.05      5.414     1.003 
 C                    -4.206    -4.779    -0.625 
 H                    -3.759    -5.126    -1.559 
 H                    -3.775    -5.355     0.196 
 H                    -5.286    -4.897    -0.649 
 C                     0.876     0.482    -0.178 
 C                     1.629     1.006    -1.211 
 S                     1.934    -0.076     1.119 
 C                     3.016     0.969    -0.972 
 H                     1.188     1.411    -2.108 
 C                     3.376     0.418     0.263 
 O                     3.994     1.408    -1.809 
 C                     4.695     0.281     0.812 
 C                     3.589     2.091    -2.992 
 C                     5.053    -0.289     2.032 
 S                     6.144     0.843    -0.017 
 H                     4.507     2.426    -3.474 
 H                     3.045     1.422    -3.67 
 H                     2.959     2.957    -2.753 
 C                     6.453    -0.274     2.294 
 O                     4.083    -0.788     2.842 
 C                     7.157     0.306     1.274 
 H                     6.912    -0.672     3.188 
 C                     4.482    -1.396     4.065 
 H                     8.228     0.445     1.21 
 H                     4.991    -0.676     4.72 
 H                     3.566    -1.736     4.546 
 H                     5.141    -2.254     3.887 
 
 The following ModRedundant input section has been read:
 D       8       9      32      33 F                                           
 

 GradGradGradGradGradGradGradGradGradGradGradGradGradGradGradGradGradGrad
 Berny optimization.
 Initialization pass.
                           ----------------------------
                           !    Initial Parameters    !
                           ! (Angstroms and Degrees)  !
 --------------------------                            --------------------------
 ! Name  Definition              Value          Derivative Info.                !
 --------------------------------------------------------------------------------
 ! R1    R(1,2)                  1.4866         estimate D2E/DX2                !
 ! R2    R(1,19)                 1.4001         estimate D2E/DX2                !
 ! R3    R(1,20)                 1.2232         estimate D2E/DX2                !
 ! R4    R(2,3)                  1.4146         estimate D2E/DX2                !
 ! R5    R(2,6)                  1.372          estimate D2E/DX2                !
 ! R6    R(3,4)                  1.4123         estimate D2E/DX2                !
 ! R7    R(3,7)                  1.4244         estimate D2E/DX2                !
 ! R8    R(4,5)                  1.4872         estimate D2E/DX2                !
 ! R9    R(4,14)                 1.3874         estimate D2E/DX2                !
 ! R10   R(5,19)                 1.4053         estimate D2E/DX2                !
 ! R11   R(5,21)                 1.2218         estimate D2E/DX2                !
 ! R12   R(6,9)                  1.4301         estimate D2E/DX2                !
 ! R13   R(6,17)                 1.0837         estimate D2E/DX2                !
 ! R14   R(7,8)                  1.4314         estimate D2E/DX2                !
 ! R15   R(7,12)                 1.4199         estimate D2E/DX2                !
 ! R16   R(8,9)                  1.4217         estimate D2E/DX2                !
 ! R17   R(8,10)                 1.4882         estimate D2E/DX2                !
 ! R18   R(9,32)                 1.4624         estimate D2E/DX2                !
 ! R19   R(10,18)                1.4088         estimate D2E/DX2                !
 ! R20   R(10,23)                1.2245         estimate D2E/DX2                !
 ! R21   R(11,12)                1.4786         estimate D2E/DX2                !
 ! R22   R(11,18)                1.3962         estimate D2E/DX2                !
 ! R23   R(11,22)                1.2248         estimate D2E/DX2                !
 ! R24   R(12,13)                1.3888         estimate D2E/DX2                !
 ! R25   R(13,14)                1.4            estimate D2E/DX2                !
 ! R26   R(13,16)                1.0844         estimate D2E/DX2                !
 ! R27   R(14,15)                1.0834         estimate D2E/DX2                !
 ! R28   R(18,24)                1.4672         estimate D2E/DX2                !
 ! R29   R(19,28)                1.4672         estimate D2E/DX2                !
 ! R30   R(24,25)                1.091          estimate D2E/DX2                !
 ! R31   R(24,26)                1.093          estimate D2E/DX2                !
 ! R32   R(24,27)                1.0865         estimate D2E/DX2                !
 ! R33   R(28,29)                1.0921         estimate D2E/DX2                !
 ! R34   R(28,30)                1.0916         estimate D2E/DX2                !
 ! R35   R(28,31)                1.0867         estimate D2E/DX2                !
 ! R36   R(32,33)                1.3815         estimate D2E/DX2                !
 ! R37   R(32,34)                1.7644         estimate D2E/DX2                !
 ! R38   R(33,35)                1.4079         estimate D2E/DX2                !
 ! R39   R(33,36)                1.0785         estimate D2E/DX2                !
 ! R40   R(34,37)                1.7482         estimate D2E/DX2                !
 ! R41   R(35,37)                1.3994         estimate D2E/DX2                !
 ! R42   R(35,38)                1.3601         estimate D2E/DX2                !
 ! R43   R(37,39)                1.4352         estimate D2E/DX2                !
 ! R44   R(38,40)                1.4248         estimate D2E/DX2                !
 ! R45   R(39,41)                1.3934         estimate D2E/DX2                !
 ! R46   R(39,42)                1.7614         estimate D2E/DX2                !
 ! R47   R(40,43)                1.0896         estimate D2E/DX2                !
 ! R48   R(40,44)                1.0969         estimate D2E/DX2                !
 ! R49   R(40,45)                1.0973         estimate D2E/DX2                !
 ! R50   R(41,46)                1.4244         estimate D2E/DX2                !
 ! R51   R(41,47)                1.3587         estimate D2E/DX2                !
 ! R52   R(42,48)                1.7266         estimate D2E/DX2                !
 ! R53   R(46,48)                1.3684         estimate D2E/DX2                !
 ! R54   R(46,49)                1.0809         estimate D2E/DX2                !
 ! R55   R(47,50)                1.4229         estimate D2E/DX2                !
 ! R56   R(48,51)                1.0819         estimate D2E/DX2                !
 ! R57   R(50,52)                1.0984         estimate D2E/DX2                !
 ! R58   R(50,53)                1.089          estimate D2E/DX2                !
 ! R59   R(50,54)                1.0964         estimate D2E/DX2                !
 ! A1    A(2,1,19)             116.767          estimate D2E/DX2                !
 ! A2    A(2,1,20)             122.9113         estimate D2E/DX2                !
 ! A3    A(19,1,20)            120.3217         estimate D2E/DX2                !
 ! A4    A(1,2,3)              120.5473         estimate D2E/DX2                !
 ! A5    A(1,2,6)              119.3369         estimate D2E/DX2                !
 ! A6    A(3,2,6)              120.1056         estimate D2E/DX2                !
 ! A7    A(2,3,4)              120.3743         estimate D2E/DX2                !
 ! A8    A(2,3,7)              118.662          estimate D2E/DX2                !
 ! A9    A(4,3,7)              120.9617         estimate D2E/DX2                !
 ! A10   A(3,4,5)              120.4909         estimate D2E/DX2                !
 ! A11   A(3,4,14)             120.2702         estimate D2E/DX2                !
 ! A12   A(5,4,14)             119.2382         estimate D2E/DX2                !
 ! A13   A(4,5,19)             116.7341         estimate D2E/DX2                !
 ! A14   A(4,5,21)             122.024          estimate D2E/DX2                !
 ! A15   A(19,5,21)            121.2418         estimate D2E/DX2                !
 ! A16   A(2,6,9)              123.2421         estimate D2E/DX2                !
 ! A17   A(2,6,17)             117.1119         estimate D2E/DX2                !
 ! A18   A(9,6,17)             119.589          estimate D2E/DX2                !
 ! A19   A(3,7,8)              120.9519         estimate D2E/DX2                !
 ! A20   A(3,7,12)             117.1037         estimate D2E/DX2                !
 ! A21   A(8,7,12)             121.944          estimate D2E/DX2                !
 ! A22   A(7,8,9)              119.5639         estimate D2E/DX2                !
 ! A23   A(7,8,10)             117.3064         estimate D2E/DX2                !
 ! A24   A(9,8,10)             122.9922         estimate D2E/DX2                !
 ! A25   A(6,9,8)              117.3944         estimate D2E/DX2                !
 ! A26   A(6,9,32)             115.0236         estimate D2E/DX2                !
 ! A27   A(8,9,32)             127.5648         estimate D2E/DX2                !
 ! A28   A(8,10,18)            118.042          estimate D2E/DX2                !
 ! A29   A(8,10,23)            124.5436         estimate D2E/DX2                !
 ! A30   A(18,10,23)           117.4097         estimate D2E/DX2                !
 ! A31   A(12,11,18)           115.5202         estimate D2E/DX2                !
 ! A32   A(12,11,22)           122.7205         estimate D2E/DX2                !
 ! A33   A(18,11,22)           121.7534         estimate D2E/DX2                !
 ! A34   A(7,12,11)            120.8614         estimate D2E/DX2                !
 ! A35   A(7,12,13)            121.162          estimate D2E/DX2                !
 ! A36   A(11,12,13)           117.9699         estimate D2E/DX2                !
 ! A37   A(12,13,14)           120.9948         estimate D2E/DX2                !
 ! A38   A(12,13,16)           117.8401         estimate D2E/DX2                !
 ! A39   A(14,13,16)           121.1642         estimate D2E/DX2                !
 ! A40   A(4,14,13)            119.5003         estimate D2E/DX2                !
 ! A41   A(4,14,15)            118.9169         estimate D2E/DX2                !
 ! A42   A(13,14,15)           121.5811         estimate D2E/DX2                !
 ! A43   A(10,18,11)           126.0753         estimate D2E/DX2                !
 ! A44   A(10,18,24)           115.7508         estimate D2E/DX2                !
 ! A45   A(11,18,24)           118.1737         estimate D2E/DX2                !
 ! A46   A(1,19,5)             125.0856         estimate D2E/DX2                !
 ! A47   A(1,19,28)            116.2868         estimate D2E/DX2                !
 ! A48   A(5,19,28)            118.6276         estimate D2E/DX2                !
 ! A49   A(18,24,25)           109.8574         estimate D2E/DX2                !
 ! A50   A(18,24,26)           109.8979         estimate D2E/DX2                !
 ! A51   A(18,24,27)           107.5355         estimate D2E/DX2                !
 ! A52   A(25,24,26)           108.1108         estimate D2E/DX2                !
 ! A53   A(25,24,27)           110.8301         estimate D2E/DX2                !
 ! A54   A(26,24,27)           110.6124         estimate D2E/DX2                !
 ! A55   A(19,28,29)           109.6906         estimate D2E/DX2                !
 ! A56   A(19,28,30)           109.8136         estimate D2E/DX2                !
 ! A57   A(19,28,31)           107.7461         estimate D2E/DX2                !
 ! A58   A(29,28,30)           108.2991         estimate D2E/DX2                !
 ! A59   A(29,28,31)           110.6959         estimate D2E/DX2                !
 ! A60   A(30,28,31)           110.5924         estimate D2E/DX2                !
 ! A61   A(9,32,33)            130.8891         estimate D2E/DX2                !
 ! A62   A(9,32,34)            118.8082         estimate D2E/DX2                !
 ! A63   A(33,32,34)           110.0458         estimate D2E/DX2                !
 ! A64   A(32,33,35)           113.581          estimate D2E/DX2                !
 ! A65   A(32,33,36)           122.7826         estimate D2E/DX2                !
 ! A66   A(35,33,36)           123.6342         estimate D2E/DX2                !
 ! A67   A(32,34,37)            92.5969         estimate D2E/DX2                !
 ! A68   A(33,35,37)           114.4297         estimate D2E/DX2                !
 ! A69   A(33,35,38)           126.5443         estimate D2E/DX2                !
 ! A70   A(37,35,38)           119.0259         estimate D2E/DX2                !
 ! A71   A(34,37,35)           109.3407         estimate D2E/DX2                !
 ! A72   A(34,37,39)           122.9412         estimate D2E/DX2                !
 ! A73   A(35,37,39)           127.7024         estimate D2E/DX2                !
 ! A74   A(35,38,40)           117.4715         estimate D2E/DX2                !
 ! A75   A(37,39,41)           127.5961         estimate D2E/DX2                !
 ! A76   A(37,39,42)           123.0598         estimate D2E/DX2                !
 ! A77   A(41,39,42)           109.3442         estimate D2E/DX2                !
 ! A78   A(38,40,43)           105.9732         estimate D2E/DX2                !
 ! A79   A(38,40,44)           111.2121         estimate D2E/DX2                !
 ! A80   A(38,40,45)           111.1428         estimate D2E/DX2                !
 ! A81   A(43,40,44)           109.3854         estimate D2E/DX2                !
 ! A82   A(43,40,45)           109.7203         estimate D2E/DX2                !
 ! A83   A(44,40,45)           109.3442         estimate D2E/DX2                !
 ! A84   A(39,41,46)           114.1595         estimate D2E/DX2                !
 ! A85   A(39,41,47)           119.262          estimate D2E/DX2                !
 ! A86   A(46,41,47)           126.5781         estimate D2E/DX2                !
 ! A87   A(39,42,48)            91.8051         estimate D2E/DX2                !
 ! A88   A(41,46,48)           111.9025         estimate D2E/DX2                !
 ! A89   A(41,46,49)           124.4467         estimate D2E/DX2                !
 ! A90   A(48,46,49)           123.6508         estimate D2E/DX2                !
 ! A91   A(41,47,50)           117.9796         estimate D2E/DX2                !
 ! A92   A(42,48,46)           112.7886         estimate D2E/DX2                !
 ! A93   A(42,48,51)           119.7757         estimate D2E/DX2                !
 ! A94   A(46,48,51)           127.4353         estimate D2E/DX2                !
 ! A95   A(47,50,52)           111.2476         estimate D2E/DX2                !
 ! A96   A(47,50,53)           106.0914         estimate D2E/DX2                !
 ! A97   A(47,50,54)           111.3084         estimate D2E/DX2                !
 ! A98   A(52,50,53)           109.3316         estimate D2E/DX2                !
 ! A99   A(52,50,54)           109.3441         estimate D2E/DX2                !
 ! A100  A(53,50,54)           109.4471         estimate D2E/DX2                !
 ! D1    D(19,1,2,3)             0.1578         estimate D2E/DX2                !
 ! D2    D(19,1,2,6)          -178.6792         estimate D2E/DX2                !
 ! D3    D(20,1,2,3)          -179.8231         estimate D2E/DX2                !
 ! D4    D(20,1,2,6)             1.3399         estimate D2E/DX2                !
 ! D5    D(2,1,19,5)            -0.124          estimate D2E/DX2                !
 ! D6    D(2,1,19,28)          179.8267         estimate D2E/DX2                !
 ! D7    D(20,1,19,5)          179.8575         estimate D2E/DX2                !
 ! D8    D(20,1,19,28)          -0.1919         estimate D2E/DX2                !
 ! D9    D(1,2,3,4)              0.0571         estimate D2E/DX2                !
 ! D10   D(1,2,3,7)            179.5453         estimate D2E/DX2                !
 ! D11   D(6,2,3,4)            178.8851         estimate D2E/DX2                !
 ! D12   D(6,2,3,7)             -1.6266         estimate D2E/DX2                !
 ! D13   D(1,2,6,9)            178.625          estimate D2E/DX2                !
 ! D14   D(1,2,6,17)             1.3881         estimate D2E/DX2                !
 ! D15   D(3,2,6,9)             -0.2173         estimate D2E/DX2                !
 ! D16   D(3,2,6,17)          -177.4541         estimate D2E/DX2                !
 ! D17   D(2,3,4,5)             -0.3074         estimate D2E/DX2                !
 ! D18   D(2,3,4,14)           179.3968         estimate D2E/DX2                !
 ! D19   D(7,3,4,5)           -179.7837         estimate D2E/DX2                !
 ! D20   D(7,3,4,14)            -0.0795         estimate D2E/DX2                !
 ! D21   D(2,3,7,8)              1.0523         estimate D2E/DX2                !
 ! D22   D(2,3,7,12)          -178.712          estimate D2E/DX2                !
 ! D23   D(4,3,7,8)           -179.4626         estimate D2E/DX2                !
 ! D24   D(4,3,7,12)             0.7731         estimate D2E/DX2                !
 ! D25   D(3,4,5,19)             0.3343         estimate D2E/DX2                !
 ! D26   D(3,4,5,21)          -179.7799         estimate D2E/DX2                !
 ! D27   D(14,4,5,19)         -179.3729         estimate D2E/DX2                !
 ! D28   D(14,4,5,21)            0.5129         estimate D2E/DX2                !
 ! D29   D(3,4,14,13)           -0.4559         estimate D2E/DX2                !
 ! D30   D(3,4,14,15)         -179.9937         estimate D2E/DX2                !
 ! D31   D(5,4,14,13)          179.252          estimate D2E/DX2                !
 ! D32   D(5,4,14,15)           -0.2858         estimate D2E/DX2                !
 ! D33   D(4,5,19,1)            -0.1141         estimate D2E/DX2                !
 ! D34   D(4,5,19,28)          179.9364         estimate D2E/DX2                !
 ! D35   D(21,5,19,1)          179.9992         estimate D2E/DX2                !
 ! D36   D(21,5,19,28)           0.0496         estimate D2E/DX2                !
 ! D37   D(2,6,9,8)              2.5984         estimate D2E/DX2                !
 ! D38   D(2,6,9,32)          -176.0103         estimate D2E/DX2                !
 ! D39   D(17,6,9,8)           179.77           estimate D2E/DX2                !
 ! D40   D(17,6,9,32)            1.1613         estimate D2E/DX2                !
 ! D41   D(3,7,8,9)              1.3551         estimate D2E/DX2                !
 ! D42   D(3,7,8,10)          -174.5099         estimate D2E/DX2                !
 ! D43   D(12,7,8,9)          -178.8921         estimate D2E/DX2                !
 ! D44   D(12,7,8,10)            5.2428         estimate D2E/DX2                !
 ! D45   D(3,7,12,11)          178.0768         estimate D2E/DX2                !
 ! D46   D(3,7,12,13)           -0.9621         estimate D2E/DX2                !
 ! D47   D(8,7,12,11)           -1.685          estimate D2E/DX2                !
 ! D48   D(8,7,12,13)          179.2761         estimate D2E/DX2                !
 ! D49   D(7,8,9,6)             -3.0809         estimate D2E/DX2                !
 ! D50   D(7,8,9,32)           175.3285         estimate D2E/DX2                !
 ! D51   D(10,8,9,6)           172.5381         estimate D2E/DX2                !
 ! D52   D(10,8,9,32)           -9.0525         estimate D2E/DX2                !
 ! D53   D(7,8,10,18)           -4.7549         estimate D2E/DX2                !
 ! D54   D(7,8,10,23)          174.4235         estimate D2E/DX2                !
 ! D55   D(9,8,10,18)          179.5335         estimate D2E/DX2                !
 ! D56   D(9,8,10,23)           -1.2882         estimate D2E/DX2                !
 ! D57   D(6,9,32,33)          103.4475         estimate D2E/DX2                !
 ! D58   D(6,9,32,34)          -70.0903         estimate D2E/DX2                !
 ! D59   D(8,9,32,33)          -74.9941         Frozen                          !
 ! D60   D(8,9,32,34)          111.4682         estimate D2E/DX2                !
 ! D61   D(8,10,18,11)           0.7189         estimate D2E/DX2                !
 ! D62   D(8,10,18,24)        -179.4089         estimate D2E/DX2                !
 ! D63   D(23,10,18,11)       -178.5188         estimate D2E/DX2                !
 ! D64   D(23,10,18,24)          1.3535         estimate D2E/DX2                !
 ! D65   D(18,11,12,7)          -2.3856         estimate D2E/DX2                !
 ! D66   D(18,11,12,13)        176.6833         estimate D2E/DX2                !
 ! D67   D(22,11,12,7)         178.4862         estimate D2E/DX2                !
 ! D68   D(22,11,12,13)         -2.445          estimate D2E/DX2                !
 ! D69   D(12,11,18,10)          2.8444         estimate D2E/DX2                !
 ! D70   D(12,11,18,24)       -177.0251         estimate D2E/DX2                !
 ! D71   D(22,11,18,10)       -178.0181         estimate D2E/DX2                !
 ! D72   D(22,11,18,24)          2.1124         estimate D2E/DX2                !
 ! D73   D(7,12,13,14)           0.461          estimate D2E/DX2                !
 ! D74   D(7,12,13,16)        -179.8781         estimate D2E/DX2                !
 ! D75   D(11,12,13,14)       -178.6049         estimate D2E/DX2                !
 ! D76   D(11,12,13,16)          1.056          estimate D2E/DX2                !
 ! D77   D(12,13,14,4)           0.2708         estimate D2E/DX2                !
 ! D78   D(12,13,14,15)        179.7958         estimate D2E/DX2                !
 ! D79   D(16,13,14,4)        -179.3788         estimate D2E/DX2                !
 ! D80   D(16,13,14,15)          0.1463         estimate D2E/DX2                !
 ! D81   D(10,18,24,25)        -59.609          estimate D2E/DX2                !
 ! D82   D(10,18,24,26)         59.2209         estimate D2E/DX2                !
 ! D83   D(10,18,24,27)        179.6858         estimate D2E/DX2                !
 ! D84   D(11,18,24,25)        120.2739         estimate D2E/DX2                !
 ! D85   D(11,18,24,26)       -120.8962         estimate D2E/DX2                !
 ! D86   D(11,18,24,27)         -0.4313         estimate D2E/DX2                !
 ! D87   D(1,19,28,29)         -58.1407         estimate D2E/DX2                !
 ! D88   D(1,19,28,30)          60.7668         estimate D2E/DX2                !
 ! D89   D(1,19,28,31)        -178.7139         estimate D2E/DX2                !
 ! D90   D(5,19,28,29)         121.8132         estimate D2E/DX2                !
 ! D91   D(5,19,28,30)        -119.2792         estimate D2E/DX2                !
 ! D92   D(5,19,28,31)           1.2401         estimate D2E/DX2                !
 ! D93   D(9,32,33,35)        -174.2298         estimate D2E/DX2                !
 ! D94   D(9,32,33,36)           6.2882         estimate D2E/DX2                !
 ! D95   D(34,32,33,35)         -0.2558         estimate D2E/DX2                !
 ! D96   D(34,32,33,36)       -179.7378         estimate D2E/DX2                !
 ! D97   D(9,32,34,37)         175.3665         estimate D2E/DX2                !
 ! D98   D(33,32,34,37)          0.563          estimate D2E/DX2                !
 ! D99   D(32,33,35,37)         -0.3039         estimate D2E/DX2                !
 ! D100  D(32,33,35,38)        179.7426         estimate D2E/DX2                !
 ! D101  D(36,33,35,37)        179.1731         estimate D2E/DX2                !
 ! D102  D(36,33,35,38)         -0.7804         estimate D2E/DX2                !
 ! D103  D(32,34,37,35)         -0.7177         estimate D2E/DX2                !
 ! D104  D(32,34,37,39)        177.9418         estimate D2E/DX2                !
 ! D105  D(33,35,37,34)          0.7146         estimate D2E/DX2                !
 ! D106  D(33,35,37,39)       -177.8636         estimate D2E/DX2                !
 ! D107  D(38,35,37,34)       -179.3282         estimate D2E/DX2                !
 ! D108  D(38,35,37,39)          2.0937         estimate D2E/DX2                !
 ! D109  D(33,35,38,40)          6.477          estimate D2E/DX2                !
 ! D110  D(37,35,38,40)       -173.4745         estimate D2E/DX2                !
 ! D111  D(34,37,39,41)          2.8101         estimate D2E/DX2                !
 ! D112  D(34,37,39,42)       -177.1888         estimate D2E/DX2                !
 ! D113  D(35,37,39,41)       -178.7886         estimate D2E/DX2                !
 ! D114  D(35,37,39,42)          1.2125         estimate D2E/DX2                !
 ! D115  D(35,38,40,43)        175.493          estimate D2E/DX2                !
 ! D116  D(35,38,40,44)        -65.7278         estimate D2E/DX2                !
 ! D117  D(35,38,40,45)         56.3489         estimate D2E/DX2                !
 ! D118  D(37,39,41,46)       -179.9663         estimate D2E/DX2                !
 ! D119  D(37,39,41,47)         -0.1759         estimate D2E/DX2                !
 ! D120  D(42,39,41,46)          0.0328         estimate D2E/DX2                !
 ! D121  D(42,39,41,47)        179.8232         estimate D2E/DX2                !
 ! D122  D(37,39,42,48)        179.978          estimate D2E/DX2                !
 ! D123  D(41,39,42,48)         -0.0211         estimate D2E/DX2                !
 ! D124  D(39,41,46,48)         -0.0303         estimate D2E/DX2                !
 ! D125  D(39,41,46,49)       -179.9579         estimate D2E/DX2                !
 ! D126  D(47,41,46,48)       -179.8026         estimate D2E/DX2                !
 ! D127  D(47,41,46,49)          0.2699         estimate D2E/DX2                !
 ! D128  D(39,41,47,50)        178.3481         estimate D2E/DX2                !
 ! D129  D(46,41,47,50)         -1.8901         estimate D2E/DX2                !
 ! D130  D(39,42,48,46)          0.0046         estimate D2E/DX2                !
 ! D131  D(39,42,48,51)        179.8041         estimate D2E/DX2                !
 ! D132  D(41,46,48,42)          0.0131         estimate D2E/DX2                !
 ! D133  D(41,46,48,51)       -179.7677         estimate D2E/DX2                !
 ! D134  D(49,46,48,42)        179.9413         estimate D2E/DX2                !
 ! D135  D(49,46,48,51)          0.1604         estimate D2E/DX2                !
 ! D136  D(41,47,50,52)         62.0254         estimate D2E/DX2                !
 ! D137  D(41,47,50,53)       -179.1697         estimate D2E/DX2                !
 ! D138  D(41,47,50,54)        -60.1927         estimate D2E/DX2                !
 --------------------------------------------------------------------------------
 Trust Radius=3.00D-01 FncErr=1.00D-07 GrdErr=1.00D-06 EigMax=2.50D+02 EigMin=1.00D-04
 Number of steps in this run=    307 maximum allowed number of steps=    324.
 GradGradGradGradGradGradGradGradGradGradGradGradGradGradGradGradGradGrad

 Stoichiometry    C26H18N2O6S2(2-)
 Framework group  C1[X(C26H18N2O6S2)]
 Deg. of freedom   156
 Full point group                 C1      NOp   1
 Largest Abelian subgroup         C1      NOp   1
 Largest concise Abelian subgroup C1      NOp   1
                         Standard orientation:                         
 ---------------------------------------------------------------------
 Center     Atomic      Atomic             Coordinates (Angstroms)
 Number     Number       Type             X           Y           Z
 ---------------------------------------------------------------------
      1          6           0        2.903649   -2.903503    0.510397
      2          6           0        2.440658   -1.503817    0.319011
      3          6           0        3.368521   -0.469540    0.053877
      4          6           0        4.749162   -0.753892   -0.033808
      5          6           0        5.247402   -2.142028    0.157880
      6          6           0        1.103083   -1.217717    0.425702
      7          6           0        2.879948    0.855357   -0.132487
      8          6           0        1.481812    1.145329   -0.032298
      9          6           0        0.570093    0.101954    0.285908
     10          6           0        1.046031    2.529027   -0.364375
     11          6           0        3.417177    3.258105   -0.675118
     12          6           0        3.837067    1.862695   -0.424554
     13          6           0        5.191518    1.565919   -0.503312
     14          6           0        5.656072    0.260021   -0.306310
     15          1           0        6.710121    0.017272   -0.368768
     16          1           0        5.875454    2.376979   -0.727652
     17          1           0        0.440415   -2.039182    0.671522
     18          7           0        2.039669    3.484764   -0.654050
     19          7           0        4.282243   -3.129878    0.417860
     20          8           0        2.139478   -3.831004    0.738315
     21          8           0        6.435634   -2.418787    0.092038
     22          8           0        4.215210    4.158804   -0.903272
     23          8           0       -0.121135    2.895278   -0.418218
     24          6           0        1.555032    4.835097   -0.961271
     25          1           0        0.897002    4.803736   -1.830968
     26          1           0        0.982760    5.226187   -0.116137
     27          1           0        2.423552    5.458159   -1.156184
     28          6           0        4.727891   -4.514117    0.612346
     29          1           0        4.406689   -4.869647    1.593673
     30          1           0        4.280992   -5.157030   -0.148261
     31          1           0        5.811751   -4.527102    0.535025
     32          6           0       -0.868326    0.216544    0.523658
     33          6           0       -1.569453    0.701574    1.610783
     34         16           0       -1.982700   -0.485163   -0.650529
     35          6           0       -2.962261    0.523442    1.507758
     36          1           0       -1.088649    1.177984    2.450411
     37          6           0       -3.380016   -0.102210    0.327730
     38          8           0       -3.896236    0.895514    2.423743
     39          6           0       -4.724577   -0.384094   -0.087756
     40          6           0       -3.451802    1.654981    3.544319
     41          6           0       -5.137070   -1.027932   -1.252567
     42         16           0       -6.138070    0.064893    0.862578
     43          1           0       -4.349270    1.916989    4.103942
     44          1           0       -2.783358    1.065247    4.183519
     45          1           0       -2.935553    2.568553    3.223614
     46          6           0       -6.550044   -1.156383   -1.378550
     47          8           0       -4.202569   -1.459518   -2.139383
     48          6           0       -7.209375   -0.611399   -0.310518
     49          1           0       -7.049093   -1.627451   -2.213635
     50          6           0       -4.652208   -2.145194   -3.302253
     51          1           0       -8.278161   -0.573596   -0.147041
     52          1           0       -5.288863   -1.500568   -3.923247
     53          1           0       -3.756135   -2.412332   -3.860560
     54          1           0       -5.203683   -3.055712   -3.039649
 ---------------------------------------------------------------------
 Rotational constants (GHZ):           0.1563493           0.0553029           0.0466309
 Standard basis: 6-311+G(d,p) (5D, 7F)
 There are   952 symmetry adapted cartesian basis functions of A   symmetry.
 There are   916 symmetry adapted basis functions of A   symmetry.
   916 basis functions,  1468 primitive gaussians,   952 cartesian basis functions
   135 alpha electrons      135 beta electrons
       nuclear repulsion energy      4075.2506022978 Hartrees.
 NAtoms=   54 NActive=   54 NUniq=   54 SFac= 1.00D+00 NAtFMM=   60 NAOKFM=F Big=F
 Integral buffers will be    131072 words long.
 Raffenetti 2 integral format.
 Two-electron integral symmetry is turned on.
 ------------------------------------------------------------------------------
 Polarizable Continuum Model (PCM)
 =================================
 Model                : PCM.
 Atomic radii         : UFF (Universal Force Field).
 Polarization charges : Total charges.
 Charge compensation  : None.
 Solution method      : On-the-fly selection.
 Cavity type          : Scaled VdW (van der Waals Surface) (Alpha=1.100).
 Cavity algorithm     : GePol (No added spheres)
                        Default sphere list used, NSphG=   54.
                        Lebedev-Laikov grids with approx.  5.0 points / Ang**2.
                        Smoothing algorithm: York/Karplus (Gamma=1.0000).
                        Polarization charges: spherical gaussians, with
                                              point-specific exponents (IZeta= 3).
                        Self-potential: point-specific (ISelfS= 7).
                        Self-field    : sphere-specific E.n sum rule (ISelfD= 2).
 1st derivatives      : Analytical E(r).r(x)/FMM algorithm (CHGder, D1EAlg=3).
                        Cavity 1st derivative terms included.
 Solvent              : Water, Eps=  78.355300 Eps(inf)=   1.777849
 ------------------------------------------------------------------------------
 One-electron integrals computed using PRISM.
 NBasis=   916 RedAO= T EigKep=  1.03D-06  NBF=   916
 NBsUse=   902 1.00D-06 EigRej=  6.70D-07 NBFU=   902
 ExpMin= 4.05D-02 ExpMax= 9.34D+04 ExpMxC= 3.17D+03 IAcc=3 IRadAn=         5 AccDes= 0.00D+00
 Harris functional with IExCor=  402 and IRadAn=       5 diagonalized for initial guess.
 HarFok:  IExCor=  402 AccDes= 0.00D+00 IRadAn=         5 IDoV= 1 UseB2=F ITyADJ=14
 ICtDFT=  3500011 ScaDFX=  1.000000  1.000000  1.000000  1.000000
 FoFCou: FMM=F IPFlag=           0 FMFlag=      100000 FMFlg1=           0
         NFxFlg=           0 DoJE=T BraDBF=F KetDBF=T FulRan=T
         wScrn=  0.000000 ICntrl=       500 IOpCl=  0 I1Cent=   200000004 NGrid=           0
         NMat0=    1 NMatS0=      1 NMatT0=    0 NMatD0=    1 NMtDS0=    0 NMtDT0=    0
 Petite list used in FoFCou.
 Requested convergence on RMS density matrix=1.00D-08 within 128 cycles.
 Requested convergence on MAX density matrix=1.00D-06.
 Requested convergence on             energy=1.00D-06.
 No special actions if energy rises.
 Inv3:  Mode=1 IEnd=    54468363.
 Iteration    1 A*A^-1 deviation from unit magnitude is 9.33D-15 for   4252.
 Iteration    1 A*A^-1 deviation from orthogonality  is 3.44D-15 for   4256   4179.
 Iteration    1 A^-1*A deviation from unit magnitude is 9.77D-15 for   4252.
 Iteration    1 A^-1*A deviation from orthogonality  is 1.03D-14 for   4020   3998.
 Error on total polarization charges =  0.03048
 SCF Done:  E(RB3LYP) =  -2359.60443084     A.U. after   16 cycles
            NFock= 16  Conv=0.89D-08     -V/T= 2.0030

 **********************************************************************

            Population analysis using the SCF Density.

 **********************************************************************

 Orbital symmetries:
       Occupied  (A) (A) (A) (A) (A) (A) (A) (A) (A) (A) (A) (A)
                 (A) (A) (A) (A) (A) (A) (A) (A) (A) (A) (A) (A)
                 (A) (A) (A) (A) (A) (A) (A) (A) (A) (A) (A) (A)
                 (A) (A) (A) (A) (A) (A) (A) (A) (A) (A) (A) (A)
                 (A) (A) (A) (A) (A) (A) (A) (A) (A) (A) (A) (A)
                 (A) (A) (A) (A) (A) (A) (A) (A) (A) (A) (A) (A)
                 (A) (A) (A) (A) (A) (A) (A) (A) (A) (A) (A) (A)
                 (A) (A) (A) (A) (A) (A) (A) (A) (A) (A) (A) (A)
                 (A) (A) (A) (A) (A) (A) (A) (A) (A) (A) (A) (A)
                 (A) (A) (A) (A) (A) (A) (A) (A) (A) (A) (A) (A)
                 (A) (A) (A) (A) (A) (A) (A) (A) (A) (A) (A) (A)
                 (A) (A) (A)
       Virtual   (A) (A) (A) (A) (A) (A) (A) (A) (A) (A) (A) (A)
                 (A) (A) (A) (A) (A) (A) (A) (A) (A) (A) (A) (A)
                 (A) (A) (A) (A) (A) (A) (A) (A) (A) (A) (A) (A)
                 (A) (A) (A) (A) (A) (A) (A) (A) (A) (A) (A) (A)
                 (A) (A) (A) (A) (A) (A) (A) (A) (A) (A) (A) (A)
                 (A) (A) (A) (A) (A) (A) (A) (A) (A) (A) (A) (A)
                 (A) (A) (A) (A) (A) (A) (A) (A) (A) (A) (A) (A)
                 (A) (A) (A) (A) (A) (A) (A) (A) (A) (A) (A) (A)
                 (A) (A) (A) (A) (A) (A) (A) (A) (A) (A) (A) (A)
                 (A) (A) (A) (A) (A) (A) (A) (A) (A) (A) (A) (A)
                 (A) (A) (A) (A) (A) (A) (A) (A) (A) (A) (A) (A)
                 (A) (A) (A) (A) (A) (A) (A) (A) (A) (A) (A) (A)
                 (A) (A) (A) (A) (A) (A) (A) (A) (A) (A) (A) (A)
                 (A) (A) (A) (A) (A) (A) (A) (A) (A) (A) (A) (A)
                 (A) (A) (A) (A) (A) (A) (A) (A) (A) (A) (A) (A)
                 (A) (A) (A) (A) (A) (A) (A) (A) (A) (A) (A) (A)
                 (A) (A) (A) (A) (A) (A) (A) (A) (A) (A) (A) (A)
                 (A) (A) (A) (A) (A) (A) (A) (A) (A) (A) (A) (A)
                 (A) (A) (A) (A) (A) (A) (A) (A) (A) (A) (A) (A)
                 (A) (A) (A) (A) (A) (A) (A) (A) (A) (A) (A) (A)
                 (A) (A) (A) (A) (A) (A) (A) (A) (A) (A) (A) (A)
                 (A) (A) (A) (A) (A) (A) (A) (A) (A) (A) (A) (A)
                 (A) (A) (A) (A) (A) (A) (A) (A) (A) (A) (A) (A)
                 (A) (A) (A) (A) (A) (A) (A) (A) (A) (A) (A) (A)
                 (A) (A) (A) (A) (A) (A) (A) (A) (A) (A) (A) (A)
                 (A) (A) (A) (A) (A) (A) (A) (A) (A) (A) (A) (A)
                 (A) (A) (A) (A) (A) (A) (A) (A) (A) (A) (A) (A)
                 (A) (A) (A) (A) (A) (A) (A) (A) (A) (A) (A) (A)
                 (A) (A) (A) (A) (A) (A) (A) (A) (A) (A) (A) (A)
                 (A) (A) (A) (A) (A) (A) (A) (A) (A) (A) (A) (A)
                 (A) (A) (A) (A) (A) (A) (A) (A) (A) (A) (A) (A)
                 (A) (A) (A) (A) (A) (A) (A) (A) (A) (A) (A) (A)
                 (A) (A) (A) (A) (A) (A) (A) (A) (A) (A) (A) (A)
                 (A) (A) (A) (A) (A) (A) (A) (A) (A) (A) (A) (A)
                 (A) (A) (A) (A) (A) (A) (A) (A) (A) (A) (A) (A)
                 (A) (A) (A) (A) (A) (A) (A) (A) (A) (A) (A) (A)
                 (A) (A) (A) (A) (A) (A) (A) (A) (A) (A) (A) (A)
                 (A) (A) (A) (A) (A) (A) (A) (A) (A) (A) (A) (A)
                 (A) (A) (A) (A) (A) (A) (A) (A) (A) (A) (A) (A)
                 (A) (A) (A) (A) (A) (A) (A) (A) (A) (A) (A) (A)
                 (A) (A) (A) (A) (A) (A) (A) (A) (A) (A) (A) (A)
                 (A) (A) (A) (A) (A) (A) (A) (A) (A) (A) (A) (A)
                 (A) (A) (A) (A) (A) (A) (A) (A) (A) (A) (A) (A)
                 (A) (A) (A) (A) (A) (A) (A) (A) (A) (A) (A) (A)
                 (A) (A) (A) (A) (A) (A) (A) (A) (A) (A) (A) (A)
                 (A) (A) (A) (A) (A) (A) (A) (A) (A) (A) (A) (A)
                 (A) (A) (A) (A) (A) (A) (A) (A) (A) (A) (A) (A)
                 (A) (A) (A) (A) (A) (A) (A) (A) (A) (A) (A) (A)
                 (A) (A) (A) (A) (A) (A) (A) (A) (A) (A) (A) (A)
                 (A) (A) (A) (A) (A) (A) (A) (A) (A) (A) (A) (A)
                 (A) (A) (A) (A) (A) (A) (A) (A) (A) (A) (A) (A)
                 (A) (A) (A) (A) (A) (A) (A) (A) (A) (A) (A) (A)
                 (A) (A) (A) (A) (A) (A) (A) (A) (A) (A) (A) (A)
                 (A) (A) (A) (A) (A) (A) (A) (A) (A) (A) (A) (A)
                 (A) (A) (A) (A) (A) (A) (A) (A) (A) (A) (A) (A)
                 (A) (A) (A) (A) (A) (A) (A) (A) (A) (A) (A) (A)
                 (A) (A) (A) (A) (A) (A) (A) (A) (A) (A) (A) (A)
                 (A) (A) (A) (A) (A) (A) (A) (A) (A) (A) (A) (A)
                 (A) (A) (A) (A) (A) (A) (A) (A) (A) (A) (A) (A)
                 (A) (A) (A) (A) (A) (A) (A) (A) (A) (A) (A) (A)
                 (A) (A) (A) (A) (A) (A) (A) (A) (A) (A) (A) (A)
                 (A) (A) (A) (A) (A) (A) (A) (A) (A) (A) (A) (A)
                 (A) (A) (A) (A) (A) (A) (A) (A) (A) (A) (A) (A)
                 (A) (A) (A) (A) (A) (A) (A) (A) (A) (A) (A)
 The electronic state is 1-A.
 Alpha  occ. eigenvalues --  -88.87590 -88.86624 -19.15972 -19.15909 -19.07140
 Alpha  occ. eigenvalues --  -19.07066 -19.06793 -19.06356 -14.34554 -14.34159
 Alpha  occ. eigenvalues --  -10.25212 -10.25018 -10.24801 -10.24752 -10.23392
 Alpha  occ. eigenvalues --  -10.23115 -10.22320 -10.22230 -10.20739 -10.20160
 Alpha  occ. eigenvalues --  -10.19902 -10.19665 -10.18813 -10.18531 -10.17952
 Alpha  occ. eigenvalues --  -10.17347 -10.17026 -10.17003 -10.16673 -10.15712
 Alpha  occ. eigenvalues --  -10.15198 -10.14844 -10.14723 -10.14667 -10.14636
 Alpha  occ. eigenvalues --  -10.14632  -7.96160  -7.95196  -5.92465  -5.92085
 Alpha  occ. eigenvalues --   -5.91732  -5.91507  -5.91125  -5.90756  -1.07599
 Alpha  occ. eigenvalues --   -1.07423  -1.03778  -1.03400  -1.01871  -1.01375
 Alpha  occ. eigenvalues --   -0.91747  -0.91234  -0.88853  -0.87183  -0.86058
 Alpha  occ. eigenvalues --   -0.80972  -0.78437  -0.77191  -0.75486  -0.74141
 Alpha  occ. eigenvalues --   -0.73128  -0.72315  -0.71471  -0.71131  -0.69124
 Alpha  occ. eigenvalues --   -0.68959  -0.67199  -0.65208  -0.62699  -0.61190
 Alpha  occ. eigenvalues --   -0.60802  -0.59544  -0.58886  -0.57210  -0.55067
 Alpha  occ. eigenvalues --   -0.54818  -0.53412  -0.53023  -0.52489  -0.50233
 Alpha  occ. eigenvalues --   -0.49037  -0.48310  -0.47471  -0.47170  -0.47063
 Alpha  occ. eigenvalues --   -0.46564  -0.46242  -0.45895  -0.45265  -0.44813
 Alpha  occ. eigenvalues --   -0.44592  -0.44345  -0.44245  -0.42615  -0.42301
 Alpha  occ. eigenvalues --   -0.41858  -0.41103  -0.40765  -0.40563  -0.40373
 Alpha  occ. eigenvalues --   -0.40242  -0.39999  -0.39162  -0.38508  -0.38491
 Alpha  occ. eigenvalues --   -0.38014  -0.37828  -0.37421  -0.37194  -0.37003
 Alpha  occ. eigenvalues --   -0.36602  -0.36371  -0.35315  -0.35143  -0.34322
 Alpha  occ. eigenvalues --   -0.33389  -0.33050  -0.32641  -0.32107  -0.31853
 Alpha  occ. eigenvalues --   -0.30113  -0.27597  -0.26891  -0.26546  -0.25882
 Alpha  occ. eigenvalues --   -0.25474  -0.25208  -0.24626  -0.24270  -0.23733
 Alpha  occ. eigenvalues --   -0.23566  -0.23118  -0.20999  -0.17853  -0.11402
 Alpha virt. eigenvalues --   -0.04282  -0.02350  -0.01279  -0.00316  -0.00041
 Alpha virt. eigenvalues --    0.00490   0.00596   0.01086   0.01197   0.01452
 Alpha virt. eigenvalues --    0.01861   0.02565   0.02699   0.03088   0.03182
 Alpha virt. eigenvalues --    0.03525   0.03753   0.04153   0.04297   0.04448
 Alpha virt. eigenvalues --    0.04589   0.04738   0.05181   0.05253   0.05526
 Alpha virt. eigenvalues --    0.05643   0.05799   0.06119   0.06197   0.06570
 Alpha virt. eigenvalues --    0.07001   0.07046   0.07215   0.07586   0.07903
 Alpha virt. eigenvalues --    0.08061   0.08461   0.08605   0.09136   0.09276
 Alpha virt. eigenvalues --    0.09360   0.09389   0.09654   0.10067   0.10323
 Alpha virt. eigenvalues --    0.10546   0.10908   0.11107   0.11694   0.11753
 Alpha virt. eigenvalues --    0.11938   0.12336   0.12408   0.12888   0.13001
 Alpha virt. eigenvalues --    0.13089   0.13217   0.13518   0.14448   0.14636
 Alpha virt. eigenvalues --    0.14681   0.15058   0.15151   0.15241   0.15465
 Alpha virt. eigenvalues --    0.15917   0.16039   0.16138   0.16441   0.16552
 Alpha virt. eigenvalues --    0.16707   0.16849   0.17257   0.17348   0.17731
 Alpha virt. eigenvalues --    0.17989   0.18193   0.18279   0.18540   0.18835
 Alpha virt. eigenvalues --    0.19067   0.19117   0.19709   0.19984   0.20060
 Alpha virt. eigenvalues --    0.20228   0.20301   0.20400   0.20737   0.20794
 Alpha virt. eigenvalues --    0.21160   0.21267   0.21407   0.21529   0.21700
 Alpha virt. eigenvalues --    0.21993   0.22149   0.22356   0.22587   0.22799
 Alpha virt. eigenvalues --    0.23026   0.23245   0.23716   0.23965   0.24158
 Alpha virt. eigenvalues --    0.24283   0.24308   0.24575   0.24880   0.24973
 Alpha virt. eigenvalues --    0.25098   0.25232   0.25520   0.25823   0.26058
 Alpha virt. eigenvalues --    0.26347   0.26458   0.26504   0.26782   0.27041
 Alpha virt. eigenvalues --    0.27108   0.27184   0.27334   0.27718   0.27860
 Alpha virt. eigenvalues --    0.28072   0.28245   0.28518   0.28696   0.28912
 Alpha virt. eigenvalues --    0.29192   0.29332   0.29438   0.29641   0.29831
 Alpha virt. eigenvalues --    0.29958   0.30047   0.30443   0.30535   0.30626
 Alpha virt. eigenvalues --    0.30869   0.31109   0.31188   0.31353   0.31827
 Alpha virt. eigenvalues --    0.31878   0.31975   0.32335   0.32678   0.33027
 Alpha virt. eigenvalues --    0.33185   0.33287   0.33660   0.33708   0.34167
 Alpha virt. eigenvalues --    0.34451   0.34619   0.34861   0.35103   0.35424
 Alpha virt. eigenvalues --    0.35672   0.36310   0.36435   0.36630   0.36722
 Alpha virt. eigenvalues --    0.37664   0.38249   0.38535   0.38664   0.39092
 Alpha virt. eigenvalues --    0.39576   0.39974   0.40468   0.40683   0.41233
 Alpha virt. eigenvalues --    0.41383   0.41904   0.42309   0.42610   0.43235
 Alpha virt. eigenvalues --    0.43325   0.43846   0.44085   0.44634   0.44927
 Alpha virt. eigenvalues --    0.45611   0.46124   0.46333   0.46610   0.46807
 Alpha virt. eigenvalues --    0.47082   0.47409   0.47473   0.47566   0.47737
 Alpha virt. eigenvalues --    0.48882   0.49222   0.50104   0.50527   0.51243
 Alpha virt. eigenvalues --    0.51456   0.52280   0.52776   0.53075   0.53529
 Alpha virt. eigenvalues --    0.53855   0.54965   0.55331   0.55792   0.56306
 Alpha virt. eigenvalues --    0.56593   0.57027   0.57437   0.57700   0.58187
 Alpha virt. eigenvalues --    0.58246   0.58653   0.58844   0.59015   0.59765
 Alpha virt. eigenvalues --    0.60331   0.60766   0.61174   0.61624   0.61841
 Alpha virt. eigenvalues --    0.62141   0.62404   0.62528   0.63363   0.64120
 Alpha virt. eigenvalues --    0.64265   0.64553   0.64955   0.65503   0.65930
 Alpha virt. eigenvalues --    0.66033   0.66378   0.66558   0.67217   0.67773
 Alpha virt. eigenvalues --    0.67954   0.68138   0.68605   0.68879   0.69322
 Alpha virt. eigenvalues --    0.69580   0.69901   0.70392   0.70538   0.70864
 Alpha virt. eigenvalues --    0.71835   0.72019   0.72519   0.72985   0.73095
 Alpha virt. eigenvalues --    0.73786   0.74072   0.74182   0.74365   0.75117
 Alpha virt. eigenvalues --    0.75425   0.75837   0.76009   0.76276   0.76391
 Alpha virt. eigenvalues --    0.76923   0.77101   0.77582   0.77743   0.77996
 Alpha virt. eigenvalues --    0.78372   0.78619   0.79100   0.79129   0.79325
 Alpha virt. eigenvalues --    0.80068   0.80381   0.81221   0.81272   0.81664
 Alpha virt. eigenvalues --    0.81982   0.82578   0.82870   0.83318   0.83541
 Alpha virt. eigenvalues --    0.84391   0.85436   0.85907   0.86641   0.87652
 Alpha virt. eigenvalues --    0.88375   0.89030   0.89833   0.90635   0.90872
 Alpha virt. eigenvalues --    0.91415   0.91761   0.92189   0.93062   0.93544
 Alpha virt. eigenvalues --    0.93785   0.94384   0.94963   0.95331   0.96267
 Alpha virt. eigenvalues --    0.97191   0.97362   0.98023   0.98278   0.98804
 Alpha virt. eigenvalues --    0.99085   0.99341   1.00222   1.00322   1.00629
 Alpha virt. eigenvalues --    1.00820   1.01480   1.01966   1.02247   1.03092
 Alpha virt. eigenvalues --    1.03400   1.03471   1.04465   1.04533   1.04866
 Alpha virt. eigenvalues --    1.05578   1.05860   1.06341   1.06635   1.06769
 Alpha virt. eigenvalues --    1.07062   1.07721   1.08078   1.08487   1.08627
 Alpha virt. eigenvalues --    1.09337   1.09888   1.10164   1.10767   1.11109
 Alpha virt. eigenvalues --    1.11758   1.12061   1.12879   1.13254   1.13804
 Alpha virt. eigenvalues --    1.14152   1.15379   1.16170   1.16417   1.17383
 Alpha virt. eigenvalues --    1.18023   1.18623   1.19078   1.19945   1.20191
 Alpha virt. eigenvalues --    1.21210   1.21421   1.22301   1.22517   1.23542
 Alpha virt. eigenvalues --    1.23950   1.24643   1.26137   1.26540   1.27757
 Alpha virt. eigenvalues --    1.27889   1.28201   1.28986   1.30503   1.30998
 Alpha virt. eigenvalues --    1.31378   1.31491   1.32233   1.32856   1.33473
 Alpha virt. eigenvalues --    1.34488   1.34823   1.36141   1.36534   1.36819
 Alpha virt. eigenvalues --    1.38673   1.39343   1.39973   1.40730   1.41721
 Alpha virt. eigenvalues --    1.42156   1.43533   1.43968   1.44457   1.44930
 Alpha virt. eigenvalues --    1.45295   1.45530   1.46335   1.46728   1.46854
 Alpha virt. eigenvalues --    1.47068   1.47727   1.48576   1.49139   1.49991
 Alpha virt. eigenvalues --    1.50169   1.50509   1.51811   1.52275   1.52453
 Alpha virt. eigenvalues --    1.54038   1.54670   1.55015   1.55675   1.55784
 Alpha virt. eigenvalues --    1.56002   1.56462   1.56824   1.57076   1.57290
 Alpha virt. eigenvalues --    1.57597   1.57810   1.58847   1.59231   1.60341
 Alpha virt. eigenvalues --    1.62084   1.62652   1.62952   1.63323   1.63761
 Alpha virt. eigenvalues --    1.64373   1.64966   1.65198   1.65324   1.66876
 Alpha virt. eigenvalues --    1.67242   1.67702   1.68477   1.69243   1.69904
 Alpha virt. eigenvalues --    1.70417   1.71032   1.71475   1.72103   1.73205
 Alpha virt. eigenvalues --    1.73415   1.73776   1.74205   1.74621   1.75207
 Alpha virt. eigenvalues --    1.76112   1.77350   1.77510   1.78084   1.78193
 Alpha virt. eigenvalues --    1.79205   1.79684   1.79883   1.80505   1.81207
 Alpha virt. eigenvalues --    1.81558   1.82805   1.83523   1.83925   1.85740
 Alpha virt. eigenvalues --    1.86299   1.86797   1.87544   1.88501   1.89387
 Alpha virt. eigenvalues --    1.89721   1.90060   1.91615   1.92290   1.92664
 Alpha virt. eigenvalues --    1.93230   1.93600   1.94446   1.94913   1.95299
 Alpha virt. eigenvalues --    1.95565   1.95782   1.96882   1.97094   1.98546
 Alpha virt. eigenvalues --    1.99799   2.00108   2.00595   2.02164   2.02715
 Alpha virt. eigenvalues --    2.02879   2.03576   2.04429   2.04665   2.04829
 Alpha virt. eigenvalues --    2.05568   2.05682   2.06539   2.07204   2.07240
 Alpha virt. eigenvalues --    2.07883   2.08169   2.08540   2.09751   2.10451
 Alpha virt. eigenvalues --    2.10998   2.12262   2.12881   2.13284   2.13811
 Alpha virt. eigenvalues --    2.14249   2.15007   2.16434   2.16808   2.17072
 Alpha virt. eigenvalues --    2.19352   2.19792   2.20555   2.20631   2.21799
 Alpha virt. eigenvalues --    2.22590   2.22941   2.23815   2.24272   2.25618
 Alpha virt. eigenvalues --    2.25904   2.29275   2.29927   2.30558   2.32216
 Alpha virt. eigenvalues --    2.36346   2.36892   2.37390   2.39496   2.41191
 Alpha virt. eigenvalues --    2.41953   2.42361   2.43840   2.43952   2.44267
 Alpha virt. eigenvalues --    2.44877   2.45995   2.47258   2.47571   2.48726
 Alpha virt. eigenvalues --    2.49252   2.49573   2.50420   2.51750   2.52793
 Alpha virt. eigenvalues --    2.53374   2.53466   2.54039   2.54561   2.54742
 Alpha virt. eigenvalues --    2.55401   2.55488   2.55772   2.57046   2.58299
 Alpha virt. eigenvalues --    2.58933   2.59655   2.61825   2.61995   2.62860
 Alpha virt. eigenvalues --    2.64773   2.65971   2.68040   2.68382   2.68719
 Alpha virt. eigenvalues --    2.69287   2.69673   2.70116   2.71361   2.72237
 Alpha virt. eigenvalues --    2.72624   2.72882   2.74483   2.75297   2.75914
 Alpha virt. eigenvalues --    2.76060   2.76098   2.76672   2.77469   2.79274
 Alpha virt. eigenvalues --    2.79679   2.80338   2.81014   2.82868   2.83271
 Alpha virt. eigenvalues --    2.84977   2.85974   2.86225   2.87348   2.87413
 Alpha virt. eigenvalues --    2.88361   2.88815   2.89583   2.90612   2.90843
 Alpha virt. eigenvalues --    2.91885   2.92835   2.93742   2.94014   2.94517
 Alpha virt. eigenvalues --    2.94942   2.96209   2.96721   2.97162   2.97651
 Alpha virt. eigenvalues --    2.98551   2.99917   3.00454   3.00487   3.01153
 Alpha virt. eigenvalues --    3.03611   3.04451   3.05462   3.07574   3.08588
 Alpha virt. eigenvalues --    3.09654   3.10255   3.11186   3.12448   3.12951
 Alpha virt. eigenvalues --    3.15127   3.15549   3.17855   3.18479   3.19120
 Alpha virt. eigenvalues --    3.19577   3.20983   3.22917   3.23798   3.24446
 Alpha virt. eigenvalues --    3.24727   3.25589   3.26915   3.30074   3.30900
 Alpha virt. eigenvalues --    3.32103   3.32857   3.34211   3.35012   3.37378
 Alpha virt. eigenvalues --    3.38330   3.38817   3.39071   3.39812   3.40461
 Alpha virt. eigenvalues --    3.42112   3.43135   3.44884   3.46919   3.47037
 Alpha virt. eigenvalues --    3.48174   3.49360   3.49971   3.51787   3.53818
 Alpha virt. eigenvalues --    3.55004   3.56122   3.59681   3.62498   3.63730
 Alpha virt. eigenvalues --    3.64950   3.66228   3.69307   3.69746   3.71564
 Alpha virt. eigenvalues --    3.73481   3.74503   3.75037   3.75429   3.77328
 Alpha virt. eigenvalues --    3.77507   3.77615   3.83243   3.85665   3.86477
 Alpha virt. eigenvalues --    3.88229   3.89183   3.94580   3.96479   3.97039
 Alpha virt. eigenvalues --    3.97611   3.98070   4.01331   4.04787   4.05991
 Alpha virt. eigenvalues --    4.08806   4.09335   4.11553   4.14990   4.17680
 Alpha virt. eigenvalues --    4.21010   4.25407   4.29849   4.31193   4.40618
 Alpha virt. eigenvalues --    4.42101   4.45551   4.54675   4.68522   4.90079
 Alpha virt. eigenvalues --    4.90897   4.92682   4.94233   5.02512   5.03690
 Alpha virt. eigenvalues --    5.08249   5.09474   5.10019   5.12442   5.15900
 Alpha virt. eigenvalues --    5.17418   5.29136   5.31023   5.33042   5.35015
 Alpha virt. eigenvalues --    5.43317   5.44870   5.77581   5.79955   5.81179
 Alpha virt. eigenvalues --    5.84423   5.86304   5.89825   8.02874   8.07043
 Alpha virt. eigenvalues --   17.29762  17.35360  17.50315  17.53440  17.58314
 Alpha virt. eigenvalues --   17.64662  23.53537  23.59875  23.74330  23.82629
 Alpha virt. eigenvalues --   23.86231  23.88151  23.89295  23.91004  23.91462
 Alpha virt. eigenvalues --   23.92399  23.92586  23.93068  23.94294  23.96954
 Alpha virt. eigenvalues --   23.97578  24.00639  24.01850  24.03094  24.03812
 Alpha virt. eigenvalues --   24.05188  24.06155  24.11563  24.14764  24.15622
 Alpha virt. eigenvalues --   24.19632  24.20473  35.59937  35.62805  49.97120
 Alpha virt. eigenvalues --   49.98350  50.07040  50.08750  50.10846  50.12393
 Alpha virt. eigenvalues --  189.20144 189.25279
          Condensed to atoms (all electrons):
 Mulliken charges:
               1
     1  C    0.351677
     2  C   -0.127972
     3  C    0.114277
     4  C    0.061130
     5  C    0.250913
     6  C   -0.762766
     7  C    0.206702
     8  C    0.074635
     9  C    0.657263
    10  C   -0.459118
    11  C    0.328659
    12  C   -0.006015
    13  C   -0.567784
    14  C   -0.645938
    15  H    0.117593
    16  H    0.119569
    17  H    0.119436
    18  N   -0.164720
    19  N   -0.162597
    20  O   -0.491619
    21  O   -0.476087
    22  O   -0.486375
    23  O   -0.354193
    24  C   -0.198697
    25  H    0.161952
    26  H    0.160441
    27  H    0.167281
    28  C   -0.198764
    29  H    0.161023
    30  H    0.161572
    31  H    0.168028
    32  C    0.046258
    33  C   -0.549091
    34  S   -0.325624
    35  C   -0.384661
    36  H    0.133470
    37  C    0.495364
    38  O   -0.156127
    39  C    0.867999
    40  C   -0.247270
    41  C    0.047717
    42  S   -0.219581
    43  H    0.171341
    44  H    0.158821
    45  H    0.161122
    46  C   -0.518583
    47  O   -0.162901
    48  C   -0.365630
    49  H    0.156162
    50  C   -0.251768
    51  H    0.182126
    52  H    0.155838
    53  H    0.170547
    54  H    0.154966
 Sum of Mulliken charges =  -2.00000
 Mulliken charges with hydrogens summed into heavy atoms:
               1
     1  C    0.351677
     2  C   -0.127972
     3  C    0.114277
     4  C    0.061130
     5  C    0.250913
     6  C   -0.643330
     7  C    0.206702
     8  C    0.074635
     9  C    0.657263
    10  C   -0.459118
    11  C    0.328659
    12  C   -0.006015
    13  C   -0.448215
    14  C   -0.528345
    18  N   -0.164720
    19  N   -0.162597
    20  O   -0.491619
    21  O   -0.476087
    22  O   -0.486375
    23  O   -0.354193
    24  C    0.290977
    28  C    0.291860
    32  C    0.046258
    33  C   -0.415620
    34  S   -0.325624
    35  C   -0.384661
    37  C    0.495364
    38  O   -0.156127
    39  C    0.867999
    40  C    0.244013
    41  C    0.047717
    42  S   -0.219581
    46  C   -0.362420
    47  O   -0.162901
    48  C   -0.183504
    50  C    0.229582
 Electronic spatial extent (au):  <R**2>=          22593.7108
 Charge=             -2.0000 electrons
 Dipole moment (field-independent basis, Debye):
    X=            -26.7970    Y=             -2.0674    Z=              0.9387  Tot=             26.8930
 Quadrupole moment (field-independent basis, Debye-Ang):
   XX=           -379.2712   YY=           -300.1745   ZZ=           -214.3586
   XY=              2.8681   XZ=             15.4178   YZ=             26.7230
 Traceless Quadrupole moment (field-independent basis, Debye-Ang):
   XX=            -81.3364   YY=             -2.2398   ZZ=             83.5762
   XY=              2.8681   XZ=             15.4178   YZ=             26.7230
 Octapole moment (field-independent basis, Debye-Ang**2):
  XXX=          -1018.1005  YYY=            -55.2103  ZZZ=              7.1327  XYY=           -261.1523
  XXY=            -47.1136  XXZ=            -32.2240  XZZ=           -107.7539  YZZ=             -6.5720
  YYZ=              6.0093  XYZ=            -19.9600
 Hexadecapole moment (field-independent basis, Debye-Ang**3):
 XXXX=         -26500.5726 YYYY=          -7679.5090 ZZZZ=          -2010.4443 XXXY=            672.4289
 XXXZ=            622.9992 YYYX=           -482.9155 YYYZ=            282.3881 ZZZX=             82.8565
 ZZZY=            208.0048 XXYY=          -5947.1583 XXZZ=          -3892.9256 YYZZ=          -1447.8392
 XXYZ=            442.4557 YYXZ=            169.4657 ZZXY=             -5.4110
 N-N= 4.075250602298D+03 E-N=-1.375316157144D+04  KE= 2.352503037953D+03
 D1PCM: PCM CHGder 1st derivatives, ID1Alg=3 FixD1E=F DoIter=F DoCFld=F I1PDM=0.
 Calling FoFJK, ICntrl=      2127 FMM=F ISym2X=0 I1Cent= 0 IOpClX= 0 NMat=1 NMatS=1 NMatT=0.
 ***** Axes restored to original set *****
 -------------------------------------------------------------------
 Center     Atomic                   Forces (Hartrees/Bohr)
 Number     Number              X              Y              Z
 -------------------------------------------------------------------
      1        6          -0.012822367    0.052477917    0.007305509
      2        6          -0.033720942   -0.034748108   -0.003446760
      3        6           0.000347565   -0.009338542   -0.001387028
      4        6           0.012118686   -0.041431904   -0.006121468
      5        6           0.035596236    0.040673071    0.004985451
      6        6           0.042248970    0.038311004    0.003287984
      7        6           0.001143391    0.007914407    0.000146287
      8        6          -0.011221630    0.038069279    0.008620964
      9        6          -0.006520408   -0.050180668   -0.005451455
     10        6          -0.025623599   -0.038576217   -0.009796942
     11        6           0.016215796   -0.049644470   -0.008090778
     12        6           0.027676380    0.032874770    0.005320392
     13        6          -0.033491415   -0.030417786   -0.004084267
     14        6          -0.016040029    0.041333232    0.006314221
     15        1          -0.000341348    0.001827824    0.000316159
     16        1          -0.000677385   -0.001889862   -0.000259103
     17        1           0.002412634    0.002341049    0.000141262
     18        7          -0.001605662    0.000692084   -0.000927819
     19        7          -0.000512047   -0.000153908   -0.000136460
     20        8           0.022812664   -0.029422520   -0.004209751
     21        8          -0.034591858   -0.017410333   -0.001821203
     22        8          -0.023389755    0.028267411    0.004638404
     23        8           0.033188843    0.012705935    0.003739599
     24        6           0.000254747   -0.002133620   -0.001686853
     25        1          -0.000514935    0.001068082    0.000201397
     26        1          -0.001043162    0.000649832    0.001114763
     27        1           0.001197242    0.000454495    0.000214017
     28        6           0.000832876    0.002549562   -0.000106251
     29        1          -0.001104343   -0.000722662    0.000471905
     30        1          -0.000877353   -0.000827299   -0.000257765
     31        1           0.001001850   -0.000892507   -0.000086839
     32        6           0.012579074    0.004264640   -0.000804463
     33        6          -0.011949133   -0.000887458    0.005280442
     34       16          -0.009210083    0.001592027   -0.005245428
     35        6           0.007162561   -0.004179767    0.014207071
     36        1          -0.001923809   -0.000425993   -0.001057693
     37        6           0.002261812    0.005342816   -0.010010093
     38        8           0.001331937    0.000537336   -0.001016675
     39        6           0.002445915   -0.003097139    0.003726665
     40        6          -0.001476523    0.002092782   -0.003876792
     41        6           0.002546781    0.003539477   -0.006223199
     42       16          -0.000689367   -0.000716347    0.000655027
     43        1          -0.000876462    0.000010322    0.000061390
     44        1           0.000990868    0.000876058    0.001124314
     45        1           0.001757912   -0.001378461   -0.000431558
     46        6          -0.000463942    0.000804347   -0.001681015
     47        8          -0.002561221   -0.000814421    0.000666179
     48        6           0.005765135   -0.000951373    0.003225144
     49        1           0.000238571    0.000265519   -0.000449265
     50        6           0.002779921   -0.000929905    0.004872443
     51        1          -0.001717274    0.000050732   -0.000146055
     52        1          -0.001326551   -0.001449479   -0.001579431
     53        1           0.000418621    0.000081891   -0.000153498
     54        1          -0.001034386    0.000952847   -0.000091081
 -------------------------------------------------------------------
 Cartesian Forces:  Max     0.052477917 RMS     0.014804378

 GradGradGradGradGradGradGradGradGradGradGradGradGradGradGradGradGradGrad
 Berny optimization.
 FormGI is forming the generalized inverse of G from B-inverse, IUseBI=4.
 Internal  Forces:  Max     0.038382205 RMS     0.007001473
 Search for a local minimum.
 Step number   1 out of a maximum of  307
 All quantities printed in internal units (Hartrees-Bohrs-Radians)
 Mixed Optimization -- RFO/linear search
 Second derivative matrix not updated -- first step.
 ITU=  0
     Eigenvalues ---    0.00803   0.00803   0.01176   0.01203   0.01245
     Eigenvalues ---    0.01292   0.01308   0.01311   0.01364   0.01389
     Eigenvalues ---    0.01419   0.01429   0.01456   0.01496   0.01515
     Eigenvalues ---    0.01568   0.01576   0.01577   0.01623   0.01651
     Eigenvalues ---    0.01696   0.01709   0.01711   0.01719   0.01754
     Eigenvalues ---    0.01783   0.01803   0.01847   0.01962   0.02040
     Eigenvalues ---    0.02046   0.02069   0.02077   0.02083   0.02135
     Eigenvalues ---    0.02149   0.02163   0.02180   0.02197   0.02220
     Eigenvalues ---    0.02238   0.02252   0.07556   0.07572   0.07690
     Eigenvalues ---    0.07700   0.10062   0.10076   0.10628   0.10634
     Eigenvalues ---    0.15983   0.15999   0.15999   0.16000   0.16000
     Eigenvalues ---    0.16000   0.16000   0.16000   0.16000   0.16000
     Eigenvalues ---    0.16000   0.16000   0.16000   0.16000   0.16000
     Eigenvalues ---    0.16000   0.16000   0.16000   0.22530   0.22583
     Eigenvalues ---    0.23518   0.23581   0.24516   0.24747   0.24865
     Eigenvalues ---    0.24931   0.24952   0.24985   0.24987   0.24988
     Eigenvalues ---    0.24991   0.24994   0.24997   0.24997   0.24998
     Eigenvalues ---    0.24998   0.25000   0.25000   0.25000   0.25000
     Eigenvalues ---    0.25000   0.25000   0.25000   0.25000   0.25000
     Eigenvalues ---    0.25000   0.28785   0.28907   0.30116   0.32113
     Eigenvalues ---    0.32582   0.32774   0.33111   0.33787   0.33858
     Eigenvalues ---    0.33987   0.34028   0.34082   0.34354   0.34466
     Eigenvalues ---    0.34577   0.34629   0.34693   0.34857   0.34923
     Eigenvalues ---    0.35198   0.35218   0.35468   0.35553   0.35582
     Eigenvalues ---    0.35768   0.35887   0.36078   0.36083   0.36179
     Eigenvalues ---    0.36396   0.36662   0.39352   0.40194   0.40245
     Eigenvalues ---    0.40633   0.40651   0.41524   0.41748   0.42029
     Eigenvalues ---    0.42300   0.42821   0.43455   0.43809   0.44092
     Eigenvalues ---    0.44594   0.44655   0.45014   0.45406   0.46251
     Eigenvalues ---    0.47305   0.47554   0.49310   0.49664   0.52935
     Eigenvalues ---    0.53216   0.93281   0.93432   0.93989   0.94585
     Eigenvalues --- 1000.000001000.000001000.000001000.000001000.00000
     Eigenvalues --- 1000.000001000.000001000.000001000.000001000.00000
     Eigenvalues --- 1000.000001000.000001000.000001000.000001000.00000
     Eigenvalues --- 1000.000001000.000001000.000001000.000001000.00000
     Eigenvalues --- 1000.000001000.000001000.000001000.000001000.00000
     Eigenvalues --- 1000.000001000.000001000.000001000.000001000.00000
     Eigenvalues --- 1000.000001000.000001000.000001000.000001000.00000
     Eigenvalues --- 1000.000001000.000001000.000001000.000001000.00000
     Eigenvalues --- 1000.000001000.000001000.000001000.000001000.00000
     Eigenvalues --- 1000.000001000.000001000.000001000.000001000.00000
     Eigenvalues --- 1000.000001000.000001000.000001000.000001000.00000
     Eigenvalues --- 1000.000001000.000001000.000001000.000001000.00000
     Eigenvalues --- 1000.000001000.000001000.000001000.000001000.00000
     Eigenvalues --- 1000.000001000.000001000.000001000.000001000.00000
     Eigenvalues --- 1000.000001000.000001000.000001000.000001000.00000
     Eigenvalues --- 1000.000001000.000001000.000001000.000001000.00000
     Eigenvalues --- 1000.000001000.000001000.000001000.000001000.00000
     Eigenvalues --- 1000.000001000.000001000.000001000.000001000.00000
     Eigenvalues --- 1000.000001000.000001000.000001000.000001000.00000
     Eigenvalues --- 1000.000001000.000001000.000001000.000001000.00000
     Eigenvalues --- 1000.000001000.000001000.000001000.000001000.00000
     Eigenvalues --- 1000.000001000.000001000.000001000.000001000.00000
     Eigenvalues --- 1000.000001000.000001000.000001000.000001000.00000
     Eigenvalues --- 1000.000001000.000001000.000001000.000001000.00000
     Eigenvalues --- 1000.000001000.000001000.000001000.000001000.00000
     Eigenvalues --- 1000.000001000.000001000.000001000.000001000.00000
     Eigenvalues --- 1000.000001000.000001000.000001000.000001000.00000
     Eigenvalues --- 1000.000001000.000001000.000001000.000001000.00000
     Eigenvalues --- 1000.000001000.00000
 RFO step:  Lambda=-2.77740655D-02 EMin= 8.02933640D-03
 Linear search not attempted -- first point.
 Iteration  1 RMS(Cart)=  0.06995878 RMS(Int)=  0.00049722
 Iteration  2 RMS(Cart)=  0.00171573 RMS(Int)=  0.00005441
 Iteration  3 RMS(Cart)=  0.00000081 RMS(Int)=  0.00005441
 Iteration  1 RMS(Cart)=  0.00001124 RMS(Int)=  0.00000180
 Iteration  2 RMS(Cart)=  0.00000642 RMS(Int)=  0.00000201
 Iteration  3 RMS(Cart)=  0.00000366 RMS(Int)=  0.00000228
 Iteration  4 RMS(Cart)=  0.00000209 RMS(Int)=  0.00000247
 Iteration  5 RMS(Cart)=  0.00000119 RMS(Int)=  0.00000258
 Iteration  6 RMS(Cart)=  0.00000068 RMS(Int)=  0.00000265
 Variable       Old X    -DE/DX   Delta X   Delta X   Delta X     New X
                                 (Linear)    (Quad)   (Total)
    R1        2.80935  -0.02454   0.00000  -0.06681  -0.06681   2.74254
    R2        2.64584   0.00372   0.00000   0.00718   0.00720   2.65304
    R3        2.31147   0.03713   0.00000   0.03837   0.03837   2.34984
    R4        2.67311   0.00664   0.00000   0.01715   0.01705   2.69016
    R5        2.59267   0.03577   0.00000   0.06812   0.06803   2.66070
    R6        2.66894   0.00480   0.00000   0.01143   0.01143   2.68037
    R7        2.69164   0.00825   0.00000   0.01969   0.01974   2.71138
    R8        2.81049  -0.02325   0.00000  -0.06387  -0.06386   2.74663
    R9        2.62173   0.03125   0.00000   0.06195   0.06194   2.68366
   R10        2.65570   0.00294   0.00000   0.00552   0.00554   2.66124
   R11        2.30889   0.03838   0.00000   0.03942   0.03942   2.34831
   R12        2.70248  -0.03340   0.00000  -0.07704  -0.07705   2.62542
   R13        2.04786   0.00003   0.00000   0.00008   0.00008   2.04794
   R14        2.70495   0.00018   0.00000  -0.00142  -0.00126   2.70369
   R15        2.68322   0.00408   0.00000   0.00880   0.00885   2.69207
   R16        2.68655   0.01643   0.00000   0.03443   0.03451   2.72106
   R17        2.81233  -0.02696   0.00000  -0.07462  -0.07460   2.73773
   R18        2.76359   0.00780   0.00000   0.01978   0.01978   2.78337
   R19        2.66221   0.00415   0.00000   0.00890   0.00885   2.67106
   R20        2.31391   0.03570   0.00000   0.03711   0.03711   2.35101
   R21        2.79415  -0.02022   0.00000  -0.05336  -0.05338   2.74077
   R22        2.63842   0.00469   0.00000   0.01002   0.00996   2.64838
   R23        2.31456   0.03662   0.00000   0.03812   0.03812   2.35269
   R24        2.62448   0.03014   0.00000   0.05939   0.05937   2.68385
   R25        2.64561  -0.02261   0.00000  -0.04711  -0.04714   2.59847
   R26        2.04921  -0.00084   0.00000  -0.00221  -0.00221   2.04700
   R27        2.04741  -0.00027   0.00000  -0.00069  -0.00069   2.04672
   R28        2.77259  -0.00002   0.00000  -0.00005  -0.00005   2.77255
   R29        2.77252  -0.00008   0.00000  -0.00020  -0.00020   2.77232
   R30        2.06176  -0.00005   0.00000  -0.00012  -0.00012   2.06164
   R31        2.06551  -0.00115   0.00000  -0.00308  -0.00308   2.06244
   R32        2.05322  -0.00079   0.00000  -0.00208  -0.00208   2.05114
   R33        2.06368  -0.00063   0.00000  -0.00168  -0.00168   2.06200
   R34        2.06281  -0.00010   0.00000  -0.00028  -0.00028   2.06254
   R35        2.05355  -0.00090   0.00000  -0.00236  -0.00236   2.05119
   R36        2.61075  -0.00817   0.00000  -0.01609  -0.01612   2.59463
   R37        3.33414  -0.00565   0.00000  -0.01820  -0.01823   3.31591
   R38        2.66060   0.01014   0.00000   0.02166   0.02167   2.68226
   R39        2.03803   0.00151   0.00000   0.00387   0.00387   2.04189
   R40        3.30358   0.00678   0.00000   0.02050   0.02051   3.32409
   R41        2.64455  -0.00678   0.00000  -0.01360  -0.01357   2.63098
   R42        2.57015   0.00448   0.00000   0.00804   0.00804   2.57819
   R43        2.71222   0.00718   0.00000   0.01669   0.01669   2.72891
   R44        2.69245   0.00324   0.00000   0.00728   0.00728   2.69973
   R45        2.63308  -0.00114   0.00000  -0.00238  -0.00238   2.63069
   R46        3.32865   0.00111   0.00000   0.00356   0.00356   3.33221
   R47        2.05908  -0.00076   0.00000  -0.00203  -0.00203   2.05706
   R48        2.07283  -0.00172   0.00000  -0.00467  -0.00467   2.06816
   R49        2.07352  -0.00219   0.00000  -0.00597  -0.00597   2.06755
   R50        2.69170   0.00154   0.00000   0.00331   0.00331   2.69501
   R51        2.56753   0.00425   0.00000   0.00758   0.00758   2.57511
   R52        3.26284   0.00122   0.00000   0.00356   0.00356   3.26640
   R53        2.58583  -0.00213   0.00000  -0.00397  -0.00397   2.58186
   R54        2.04258  -0.00037   0.00000  -0.00095  -0.00095   2.04164
   R55        2.68886   0.00343   0.00000   0.00766   0.00766   2.69652
   R56        2.04445  -0.00169   0.00000  -0.00437  -0.00437   2.04008
   R57        2.07570  -0.00251   0.00000  -0.00684  -0.00684   2.06886
   R58        2.05800  -0.00044   0.00000  -0.00118  -0.00118   2.05682
   R59        2.07193  -0.00135   0.00000  -0.00367  -0.00367   2.06825
    A1        2.03797  -0.00206   0.00000  -0.00669  -0.00669   2.03128
    A2        2.14521   0.00683   0.00000   0.02422   0.02422   2.16943
    A3        2.10001  -0.00477   0.00000  -0.01753  -0.01754   2.08247
    A4        2.10395  -0.00280   0.00000  -0.01040  -0.01036   2.09358
    A5        2.08282   0.00339   0.00000   0.00756   0.00765   2.09048
    A6        2.09624  -0.00058   0.00000   0.00284   0.00271   2.09895
    A7        2.10093   0.00472   0.00000   0.01646   0.01640   2.11733
    A8        2.07104  -0.00121   0.00000  -0.00177  -0.00182   2.06922
    A9        2.11118  -0.00351   0.00000  -0.01469  -0.01457   2.09661
   A10        2.10296  -0.00319   0.00000  -0.01051  -0.01054   2.09243
   A11        2.09911   0.00046   0.00000   0.00264   0.00268   2.10179
   A12        2.08110   0.00273   0.00000   0.00786   0.00786   2.08896
   A13        2.03739  -0.00168   0.00000  -0.00627  -0.00625   2.03115
   A14        2.12972   0.00715   0.00000   0.02584   0.02583   2.15555
   A15        2.11607  -0.00546   0.00000  -0.01957  -0.01958   2.09649
   A16        2.15098  -0.00372   0.00000  -0.01313  -0.01320   2.13778
   A17        2.04399   0.00530   0.00000   0.02495   0.02499   2.06898
   A18        2.08722  -0.00158   0.00000  -0.01175  -0.01172   2.07550
   A19        2.11101  -0.00412   0.00000  -0.01507  -0.01502   2.09599
   A20        2.04385   0.00294   0.00000   0.01246   0.01239   2.05623
   A21        2.12832   0.00118   0.00000   0.00261   0.00263   2.13095
   A22        2.08678   0.00356   0.00000   0.00897   0.00909   2.09587
   A23        2.04738   0.00460   0.00000   0.01744   0.01743   2.06481
   A24        2.14662  -0.00812   0.00000  -0.02538  -0.02560   2.12102
   A25        2.04892   0.00610   0.00000   0.01803   0.01811   2.06703
   A26        2.00754   0.00587   0.00000   0.02321   0.02316   2.03070
   A27        2.22643  -0.01198   0.00000  -0.04104  -0.04110   2.18532
   A28        2.06022  -0.00468   0.00000  -0.01787  -0.01787   2.04235
   A29        2.17370   0.00054   0.00000   0.00248   0.00246   2.17616
[...]
 Alpha  occ. eigenvalues --   -0.49338  -0.48402  -0.47410  -0.47092  -0.47037
 Alpha  occ. eigenvalues --   -0.46637  -0.46047  -0.45758  -0.45439  -0.44800
 Alpha  occ. eigenvalues --   -0.44443  -0.44321  -0.44230  -0.42519  -0.42166
 Alpha  occ. eigenvalues --   -0.41707  -0.41094  -0.40883  -0.40505  -0.40352
 Alpha  occ. eigenvalues --   -0.40119  -0.39987  -0.39155  -0.38243  -0.38173
 Alpha  occ. eigenvalues --   -0.38005  -0.37735  -0.37308  -0.36923  -0.36814
 Alpha  occ. eigenvalues --   -0.36473  -0.36199  -0.35147  -0.34772  -0.34484
 Alpha  occ. eigenvalues --   -0.33332  -0.33033  -0.32770  -0.32359  -0.31641
 Alpha  occ. eigenvalues --   -0.30136  -0.27774  -0.26684  -0.26272  -0.25763
 Alpha  occ. eigenvalues --   -0.25530  -0.25010  -0.24539  -0.24148  -0.23965
 Alpha  occ. eigenvalues --   -0.23586  -0.23175  -0.20840  -0.18225  -0.13180
 Alpha virt. eigenvalues --   -0.04291  -0.03374  -0.01274  -0.00385  -0.00038
 Alpha virt. eigenvalues --    0.00486   0.00555   0.01021   0.01164   0.01413
 Alpha virt. eigenvalues --    0.01777   0.02567   0.02670   0.03053   0.03168
 Alpha virt. eigenvalues --    0.03442   0.03676   0.04097   0.04269   0.04408
 Alpha virt. eigenvalues --    0.04579   0.04726   0.04845   0.05206   0.05432
 Alpha virt. eigenvalues --    0.05477   0.05581   0.06081   0.06253   0.06565
 Alpha virt. eigenvalues --    0.06981   0.07083   0.07234   0.07617   0.07922
 Alpha virt. eigenvalues --    0.08060   0.08445   0.08528   0.09055   0.09217
 Alpha virt. eigenvalues --    0.09330   0.09443   0.09515   0.10121   0.10479
 Alpha virt. eigenvalues --    0.10533   0.10965   0.11167   0.11709   0.11772
 Alpha virt. eigenvalues --    0.11874   0.12209   0.12480   0.12862   0.12938
 Alpha virt. eigenvalues --    0.13123   0.13222   0.13524   0.14419   0.14561
 Alpha virt. eigenvalues --    0.14679   0.15077   0.15157   0.15255   0.15467
 Alpha virt. eigenvalues --    0.15916   0.15941   0.16111   0.16316   0.16533
 Alpha virt. eigenvalues --    0.16807   0.16915   0.17209   0.17275   0.17685
 Alpha virt. eigenvalues --    0.17790   0.17990   0.18333   0.18599   0.18849
 Alpha virt. eigenvalues --    0.19003   0.19129   0.19839   0.19982   0.20186
 Alpha virt. eigenvalues --    0.20216   0.20381   0.20441   0.20656   0.20718
 Alpha virt. eigenvalues --    0.21143   0.21316   0.21426   0.21546   0.21716
 Alpha virt. eigenvalues --    0.21966   0.22173   0.22413   0.22513   0.22849
 Alpha virt. eigenvalues --    0.23185   0.23306   0.23711   0.23797   0.24126
 Alpha virt. eigenvalues --    0.24158   0.24316   0.24496   0.24779   0.24945
 Alpha virt. eigenvalues --    0.25019   0.25115   0.25525   0.25803   0.26030
 Alpha virt. eigenvalues --    0.26245   0.26358   0.26654   0.26925   0.27094
 Alpha virt. eigenvalues --    0.27141   0.27272   0.27414   0.27609   0.27916
 Alpha virt. eigenvalues --    0.28023   0.28229   0.28335   0.28728   0.28762
 Alpha virt. eigenvalues --    0.29115   0.29224   0.29342   0.29592   0.29661
 Alpha virt. eigenvalues --    0.29845   0.30014   0.30348   0.30621   0.30757
 Alpha virt. eigenvalues --    0.30923   0.30998   0.31326   0.31553   0.31644
 Alpha virt. eigenvalues --    0.31843   0.32096   0.32164   0.32590   0.32940
 Alpha virt. eigenvalues --    0.33014   0.33276   0.33406   0.33836   0.34007
 Alpha virt. eigenvalues --    0.34572   0.34727   0.34978   0.35315   0.35758
 Alpha virt. eigenvalues --    0.36279   0.36304   0.36659   0.36757   0.36808
 Alpha virt. eigenvalues --    0.38028   0.38216   0.38521   0.39059   0.39409
 Alpha virt. eigenvalues --    0.39505   0.40100   0.40658   0.41136   0.41324
 Alpha virt. eigenvalues --    0.41711   0.41981   0.42380   0.42714   0.43113
 Alpha virt. eigenvalues --    0.43844   0.43892   0.44156   0.44619   0.45039
 Alpha virt. eigenvalues --    0.45394   0.46064   0.46200   0.46657   0.46870
 Alpha virt. eigenvalues --    0.47125   0.47270   0.47521   0.47770   0.48797
 Alpha virt. eigenvalues --    0.49352   0.50141   0.50314   0.50721   0.51319
 Alpha virt. eigenvalues --    0.52014   0.52526   0.52708   0.53021   0.53392
 Alpha virt. eigenvalues --    0.54343   0.54785   0.55129   0.55635   0.56393
 Alpha virt. eigenvalues --    0.56621   0.56802   0.57493   0.57919   0.58219
 Alpha virt. eigenvalues --    0.58293   0.58720   0.58994   0.59330   0.59979
 Alpha virt. eigenvalues --    0.60409   0.61107   0.61403   0.61582   0.62061
 Alpha virt. eigenvalues --    0.62249   0.62809   0.62986   0.63584   0.64093
 Alpha virt. eigenvalues --    0.64385   0.64833   0.65115   0.65818   0.65970
 Alpha virt. eigenvalues --    0.66128   0.66568   0.66981   0.67481   0.67535
 Alpha virt. eigenvalues --    0.67927   0.68326   0.68754   0.68904   0.69540
 Alpha virt. eigenvalues --    0.69754   0.70204   0.70486   0.70790   0.71211
 Alpha virt. eigenvalues --    0.71518   0.72004   0.72274   0.72998   0.73428
 Alpha virt. eigenvalues --    0.73799   0.74099   0.74318   0.74706   0.75236
 Alpha virt. eigenvalues --    0.75394   0.75733   0.76095   0.76171   0.76606
 Alpha virt. eigenvalues --    0.76759   0.77251   0.77614   0.77762   0.78187
 Alpha virt. eigenvalues --    0.78370   0.78441   0.78871   0.79046   0.79776
 Alpha virt. eigenvalues --    0.80229   0.80641   0.80904   0.80976   0.81702
 Alpha virt. eigenvalues --    0.82321   0.82436   0.83579   0.83946   0.84362
 Alpha virt. eigenvalues --    0.85311   0.86085   0.86543   0.87620   0.87943
 Alpha virt. eigenvalues --    0.88845   0.89529   0.90119   0.91119   0.91197
 Alpha virt. eigenvalues --    0.91510   0.92184   0.92674   0.93465   0.93785
 Alpha virt. eigenvalues --    0.94352   0.94690   0.94994   0.95893   0.96553
 Alpha virt. eigenvalues --    0.96946   0.97379   0.97765   0.98361   0.98679
 Alpha virt. eigenvalues --    0.98919   0.99562   1.00139   1.00485   1.00876
 Alpha virt. eigenvalues --    1.01337   1.01928   1.02250   1.02790   1.03372
 Alpha virt. eigenvalues --    1.03643   1.04280   1.04391   1.04810   1.05504
 Alpha virt. eigenvalues --    1.05564   1.05853   1.06055   1.06610   1.06826
 Alpha virt. eigenvalues --    1.07375   1.07705   1.08327   1.08397   1.09352
 Alpha virt. eigenvalues --    1.09533   1.10114   1.10247   1.11196   1.11546
 Alpha virt. eigenvalues --    1.11821   1.12310   1.12724   1.13458   1.13806
 Alpha virt. eigenvalues --    1.15024   1.16069   1.16335   1.17232   1.17776
 Alpha virt. eigenvalues --    1.18244   1.19164   1.19914   1.20533   1.21293
 Alpha virt. eigenvalues --    1.21830   1.22010   1.23171   1.23795   1.24191
 Alpha virt. eigenvalues --    1.24989   1.26140   1.26978   1.27531   1.27739
 Alpha virt. eigenvalues --    1.28263   1.29124   1.30071   1.30778   1.31484
 Alpha virt. eigenvalues --    1.31975   1.32600   1.32699   1.33269   1.34272
 Alpha virt. eigenvalues --    1.34933   1.36114   1.36892   1.37351   1.39207
 Alpha virt. eigenvalues --    1.39266   1.39830   1.41044   1.41583   1.42254
 Alpha virt. eigenvalues --    1.43724   1.43955   1.44143   1.44761   1.45133
 Alpha virt. eigenvalues --    1.46039   1.46359   1.46548   1.47104   1.47741
 Alpha virt. eigenvalues --    1.47969   1.48666   1.49187   1.49561   1.49910
 Alpha virt. eigenvalues --    1.50724   1.51296   1.52034   1.52730   1.53834
 Alpha virt. eigenvalues --    1.54111   1.54736   1.55482   1.55733   1.55882
 Alpha virt. eigenvalues --    1.56389   1.56676   1.56843   1.57287   1.57456
 Alpha virt. eigenvalues --    1.58208   1.58838   1.59343   1.60420   1.61045
 Alpha virt. eigenvalues --    1.62352   1.63092   1.63321   1.63479   1.63832
 Alpha virt. eigenvalues --    1.64663   1.65084   1.65368   1.66500   1.67083
 Alpha virt. eigenvalues --    1.67365   1.68011   1.69218   1.70052   1.70619
 Alpha virt. eigenvalues --    1.70924   1.71405   1.71871   1.72696   1.73037
 Alpha virt. eigenvalues --    1.73749   1.74025   1.74752   1.75277   1.76820
 Alpha virt. eigenvalues --    1.77410   1.77530   1.77865   1.78306   1.79062
 Alpha virt. eigenvalues --    1.79781   1.80264   1.80669   1.81426   1.82076
 Alpha virt. eigenvalues --    1.82942   1.83654   1.84000   1.85295   1.85587
 Alpha virt. eigenvalues --    1.87097   1.87755   1.88742   1.89215   1.89659
 Alpha virt. eigenvalues --    1.90046   1.90586   1.91770   1.92497   1.93223
 Alpha virt. eigenvalues --    1.93523   1.93971   1.94124   1.94854   1.95779
 Alpha virt. eigenvalues --    1.96184   1.96667   1.97233   1.98852   1.99695
 Alpha virt. eigenvalues --    2.00232   2.00382   2.01276   2.02442   2.02637
 Alpha virt. eigenvalues --    2.03041   2.04380   2.04435   2.04843   2.05243
 Alpha virt. eigenvalues --    2.05361   2.06552   2.07403   2.07454   2.07827
 Alpha virt. eigenvalues --    2.08020   2.08918   2.10114   2.10581   2.10967
 Alpha virt. eigenvalues --    2.11915   2.12254   2.13141   2.13469   2.13737
 Alpha virt. eigenvalues --    2.15099   2.16477   2.16696   2.17079   2.18940
 Alpha virt. eigenvalues --    2.19168   2.20448   2.20769   2.21487   2.22413
 Alpha virt. eigenvalues --    2.23371   2.23734   2.24069   2.25039   2.26174
 Alpha virt. eigenvalues --    2.28982   2.29190   2.31673   2.32579   2.36563
 Alpha virt. eigenvalues --    2.37519   2.37596   2.39223   2.39866   2.41587
 Alpha virt. eigenvalues --    2.42269   2.43709   2.44205   2.44468   2.44762
 Alpha virt. eigenvalues --    2.46187   2.47707   2.48086   2.48794   2.49316
 Alpha virt. eigenvalues --    2.49785   2.50380   2.52014   2.52595   2.53205
 Alpha virt. eigenvalues --    2.53457   2.53832   2.54246   2.54771   2.55462
 Alpha virt. eigenvalues --    2.55586   2.55876   2.57337   2.58303   2.59133
 Alpha virt. eigenvalues --    2.60010   2.61640   2.62548   2.63423   2.64814
 Alpha virt. eigenvalues --    2.65641   2.67271   2.67926   2.68486   2.69098
 Alpha virt. eigenvalues --    2.69459   2.70291   2.70819   2.71343   2.72233
 Alpha virt. eigenvalues --    2.72618   2.73402   2.75204   2.75270   2.75838
 Alpha virt. eigenvalues --    2.76074   2.76612   2.77205   2.79172   2.79799
 Alpha virt. eigenvalues --    2.80430   2.80912   2.82532   2.82987   2.84402
 Alpha virt. eigenvalues --    2.85027   2.85933   2.86622   2.87199   2.87446
 Alpha virt. eigenvalues --    2.88010   2.89091   2.90221   2.90792   2.91760
 Alpha virt. eigenvalues --    2.93039   2.93257   2.93896   2.94462   2.94721
 Alpha virt. eigenvalues --    2.96013   2.96652   2.97137   2.97435   2.98113
 Alpha virt. eigenvalues --    2.99602   3.00465   3.00983   3.01210   3.03005
 Alpha virt. eigenvalues --    3.04177   3.04942   3.07992   3.09054   3.09381
 Alpha virt. eigenvalues --    3.10529   3.11682   3.13197   3.14039   3.15406
 Alpha virt. eigenvalues --    3.15553   3.17404   3.18174   3.19859   3.21194
 Alpha virt. eigenvalues --    3.21783   3.22968   3.23167   3.23738   3.24143
 Alpha virt. eigenvalues --    3.25522   3.25889   3.27415   3.30724   3.32146
 Alpha virt. eigenvalues --    3.32771   3.33951   3.34308   3.35381   3.35819
 Alpha virt. eigenvalues --    3.36125   3.36672   3.37773   3.39674   3.41213
 Alpha virt. eigenvalues --    3.41841   3.42123   3.43384   3.44604   3.45645
 Alpha virt. eigenvalues --    3.46205   3.49479   3.49571   3.52403   3.52950
 Alpha virt. eigenvalues --    3.55421   3.56458   3.60584   3.61876   3.63268
 Alpha virt. eigenvalues --    3.64342   3.67724   3.69708   3.70449   3.73530
 Alpha virt. eigenvalues --    3.74941   3.75422   3.75887   3.78095   3.78117
 Alpha virt. eigenvalues --    3.78341   3.82921   3.85493   3.86066   3.88152
 Alpha virt. eigenvalues --    3.89365   3.94266   3.95818   3.96486   3.97355
 Alpha virt. eigenvalues --    3.97708   4.00928   4.03914   4.06815   4.08511
 Alpha virt. eigenvalues --    4.09368   4.10951   4.14815   4.17286   4.20790
 Alpha virt. eigenvalues --    4.25513   4.30180   4.31972   4.41240   4.41946
 Alpha virt. eigenvalues --    4.46479   4.53891   4.67595   4.86364   4.90505
 Alpha virt. eigenvalues --    4.91307   4.94657   5.02520   5.03647   5.08461
 Alpha virt. eigenvalues --    5.09652   5.10288   5.13132   5.17316   5.18632
 Alpha virt. eigenvalues --    5.28618   5.30585   5.32796   5.35257   5.42193
 Alpha virt. eigenvalues --    5.43564   5.76509   5.78684   5.80349   5.83401
 Alpha virt. eigenvalues --    5.85218   5.89201   8.02508   8.06218  17.29693
 Alpha virt. eigenvalues --   17.35224  17.50136  17.52998  17.57964  17.64011
 Alpha virt. eigenvalues --   23.52943  23.59531  23.73257  23.81896  23.83860
 Alpha virt. eigenvalues --   23.85931  23.88111  23.91010  23.91865  23.92428
 Alpha virt. eigenvalues --   23.92792  23.93815  23.94838  23.95585  23.97645
 Alpha virt. eigenvalues --   23.98414  23.99860  24.03237  24.04388  24.05100
 Alpha virt. eigenvalues --   24.05484  24.06683  24.13912  24.16160  24.21064
 Alpha virt. eigenvalues --   24.23091  35.59615  35.62604  49.96922  49.98142
 Alpha virt. eigenvalues --   50.05701  50.07526  50.09245  50.10862 189.19769
 Alpha virt. eigenvalues --  189.24340
          Condensed to atoms (all electrons):
 Mulliken charges:
               1
     1  C    0.425009
     2  C   -0.105535
     3  C    0.139540
     4  C    0.145709
     5  C    0.236096
     6  C   -0.561170
     7  C    0.197120
     8  C   -0.019403
     9  C    0.484698
    10  C   -0.404912
    11  C    0.205666
    12  C    0.126938
    13  C   -0.555069
    14  C   -0.640498
    15  H    0.121863
    16  H    0.122643
    17  H    0.121766
    18  N   -0.160904
    19  N   -0.161576
    20  O   -0.528126
    21  O   -0.514458
    22  O   -0.516818
    23  O   -0.375003
    24  C   -0.211596
    25  H    0.161157
    26  H    0.160380
    27  H    0.168016
    28  C   -0.199700
    29  H    0.159474
    30  H    0.159696
    31  H    0.167777
    32  C    0.066560
    33  C   -0.551971
    34  S   -0.267209
    35  C   -0.193481
    36  H    0.135393
    37  C    0.398009
    38  O   -0.176718
    39  C    0.730349
    40  C   -0.233467
    41  C    0.013186
    42  S   -0.251432
    43  H    0.171973
    44  H    0.158860
    45  H    0.161704
    46  C   -0.545024
    47  O   -0.174237
    48  C   -0.367143
    49  H    0.157060
    50  C   -0.248611
    51  H    0.183693
    52  H    0.156750
    53  H    0.171017
    54  H    0.155959
 Sum of Mulliken charges =  -2.00000
 Mulliken charges with hydrogens summed into heavy atoms:
               1
     1  C    0.425009
     2  C   -0.105535
     3  C    0.139540
     4  C    0.145709
     5  C    0.236096
     6  C   -0.439404
     7  C    0.197120
     8  C   -0.019403
     9  C    0.484698
    10  C   -0.404912
    11  C    0.205666
    12  C    0.126938
    13  C   -0.432425
    14  C   -0.518636
    18  N   -0.160904
    19  N   -0.161576
    20  O   -0.528126
    21  O   -0.514458
    22  O   -0.516818
    23  O   -0.375003
    24  C    0.277957
    28  C    0.287248
    32  C    0.066560
    33  C   -0.416577
    34  S   -0.267209
    35  C   -0.193481
    37  C    0.398009
    38  O   -0.176718
    39  C    0.730349
    40  C    0.259070
    41  C    0.013186
    42  S   -0.251432
    46  C   -0.387964
    47  O   -0.174237
    48  C   -0.183450
    50  C    0.235115
 Electronic spatial extent (au):  <R**2>=          22722.9848
 Charge=             -2.0000 electrons
 Dipole moment (field-independent basis, Debye):
    X=            -27.9035    Y=             -1.6185    Z=              1.4214  Tot=             27.9865
 Quadrupole moment (field-independent basis, Debye-Ang):
   XX=           -381.9978   YY=           -307.3286   ZZ=           -214.3369
   XY=              7.1195   XZ=             15.0813   YZ=             27.9533
 Traceless Quadrupole moment (field-independent basis, Debye-Ang):
   XX=            -80.7767   YY=             -6.1075   ZZ=             86.8842
   XY=              7.1195   XZ=             15.0813   YZ=             27.9533
 Octapole moment (field-independent basis, Debye-Ang**2):
  XXX=          -1092.6632  YYY=            -53.3872  ZZZ=              9.5556  XYY=           -286.3167
  XXY=            -31.2523  XXZ=            -45.1395  XZZ=           -109.7736  YZZ=             -7.7513
  YYZ=             10.6036  XYZ=            -14.5433
 Hexadecapole moment (field-independent basis, Debye-Ang**3):
 XXXX=         -27042.8405 YYYY=          -7708.4728 ZZZZ=          -1983.1497 XXXY=            903.4854
 XXXZ=            627.0650 YYYX=           -499.0936 YYYZ=            320.4728 ZZZX=             94.0735
 ZZZY=            212.0356 XXYY=          -6027.5734 XXZZ=          -3940.4337 YYZZ=          -1431.3115
 XXYZ=            447.5642 YYXZ=            175.5034 ZZXY=              0.3638
 N-N= 4.073067129250D+03 E-N=-1.374802441282D+04  KE= 2.352151098023D+03
 Unable to Open any file for archive entry.
 1\1\GINC-CX3-6-4\FOpt\RB3LYP\6-311+G(d,p)\C26H18N2O6S2(2-)\NS5018\28-O
 ct-2021\0\\# opt=modredundant b3lyp/6-311+g(d,p) scrf=(pcm, solvent=wa
 ter)\\NDI_-75.pdb\\-2,1\C,-2.6500444328,-3.0070773373,-0.4345948106\C,
 -2.3156815743,-1.6284436659,-0.2327680576\C,-3.3398391946,-0.657857051
 8,-0.1040856918\C,-4.7068262425,-1.0266402959,-0.1739786614\C,-5.07566
 66073,-2.3976901494,-0.3818824424\C,-0.9484947731,-1.2232387131,-0.195
 4024694\C,-2.9733973434,0.7251301755,0.1124069318\C,-1.5976550534,1.09
 71844182,0.1916727829\C,-0.5745466834,0.0833131865,-0.0159150507\C,-1.
 2689608455,2.4581496798,0.5198580781\C,-3.7036548288,3.0599447795,0.49
 57166922\C,-4.0136276252,1.6812463903,0.2597810756\C,-5.3875428048,1.2
 74928763,0.1838172097\C,-5.72471215,-0.027949852,-0.0264139036\H,-6.76
 11273072,-0.337466497,-0.0801840789\H,-6.1485306201,2.0361453058,0.304
 0058744\H,-0.1920375845,-1.9805711835,-0.360448824\N,-2.3406710457,3.3
 72849317,0.6074745577\N,-4.0178415156,-3.3205314035,-0.50334094\O,-1.8
 139447946,-3.936605337,-0.5541822212\O,-6.2620752043,-2.8022933414,-0.
 4564832361\O,-4.5646930327,3.9674549626,0.6136281664\O,-0.1182579422,2
 .8988247624,0.7418092599\C,-1.9724301525,4.7623945235,0.8874104795\H,-
 1.5543359061,4.8556873523,1.8924465107\H,-1.2174298018,5.096414775,0.1
 757400325\H,-2.8690063969,5.368101936,0.8052720071\C,-4.347171184,-4.7
 314956701,-0.7167628018\H,-3.8719332662,-5.0934867438,-1.629476341\H,-
 3.985482659,-5.3367942961,0.1168952114\H,-5.4262009171,-4.8149924186,-
 0.7948478694\C,0.8733119001,0.3887325981,-0.1017846531\C,1.5759300777,
 0.9551641656,-1.1310337376\S,1.9522521183,-0.1316152525,1.168474709\C,
 2.979086182,1.0010520878,-0.8963230194\H,1.0966709002,1.3366629191,-2.
 0210408987\C,3.3821698905,0.4534441539,0.3128364588\O,3.9159920189,1.5
 083302508,-1.7499093133\C,4.7202927622,0.334968318,0.8424451747\C,3.46
 08573051,2.1031059882,-2.9683715991\C,5.1247060132,-0.2161209579,2.050
 9480771\S,6.1402640748,0.9202626967,-0.0249798134\H,4.3544260367,2.454
 5956006,-3.480759582\H,2.9458166799,1.369855875,-3.595340427\H,2.79727
 6682,2.9490561738,-2.7684376382\C,6.5319388131,-0.1710890777,2.2770127
 547\O,4.1929720186,-0.737680336,2.9012695617\C,7.2048695496,0.41440376
 86,1.2428474138\H,7.0199921888,-0.5532313449,3.1619278101\C,4.65265029
 47,-1.2937126039,4.1357657327\H,8.2670736976,0.5798642039,1.1481371169
 \H,5.1542151815,-0.5368087315,4.7456449241\H,3.76280989,-1.6457637393,
 4.6540218131\H,5.3292452138,-2.1351131278,3.9604816649\\Version=ES64L-
 G16RevC.01\State=1-A\HF=-2359.624562\RMSD=5.488e-09\RMSF=2.366e-04\Dip
 ole=10.9759557,0.6129566,0.6235837\Quadrupole=-59.6314765,-7.080787,66
 .7122635,-9.198995,0.093569,-19.3059324\PG=C01 [X(C26H18N2O6S2)]\\@
 The archive entry for this job was punched.


 ORIGINALITY CONSISTS NOT IN SAYING WHAT NO ONE HAS EVER SAID BEFORE, 
 BUT IN SAYING WHAT YOU THINK YOUR SELF.

                                    -- JAMES F. STEPHEN
 Job cpu time:       2 days 15 hours 32 minutes 10.8 seconds.
 Elapsed time:       0 days  4 hours  1 minutes  0.7 seconds.
 File lengths (MBytes):  RWF=    802 Int=      0 D2E=      0 Chk=     61 Scr=      1
 Normal termination of Gaussian 16 at Thu Oct 28 11:09:46 2021.
