 Entering Gaussian System, Link 0=g16
 Input=NDI_-15.gjf
 Output=NDI_-15.log
 Initial command:
 /apps/gaussian/g16-c01-avx/g16/l1.exe "/tmp/pbs.4768676[160].pbs/Gau-2464348.inp" -scrdir="/tmp/pbs.4768676[160].pbs/"
 Entering Link 1 = /apps/gaussian/g16-c01-avx/g16/l1.exe PID=   2464349.
  
 Copyright (c) 1988-2019, Gaussian, Inc.  All Rights Reserved.
  
 This is part of the Gaussian(R) 16 program.  It is based on
 the Gaussian(R) 09 system (copyright 2009, Gaussian, Inc.),
 the Gaussian(R) 03 system (copyright 2003, Gaussian, Inc.),
 the Gaussian(R) 98 system (copyright 1998, Gaussian, Inc.),
 the Gaussian(R) 94 system (copyright 1995, Gaussian, Inc.),
 the Gaussian 92(TM) system (copyright 1992, Gaussian, Inc.),
 the Gaussian 90(TM) system (copyright 1990, Gaussian, Inc.),
 the Gaussian 88(TM) system (copyright 1988, Gaussian, Inc.),
 the Gaussian 86(TM) system (copyright 1986, Carnegie Mellon
 University), and the Gaussian 82(TM) system (copyright 1983,
 Carnegie Mellon University). Gaussian is a federally registered
 trademark of Gaussian, Inc.
  
 This software contains proprietary and confidential information,
 including trade secrets, belonging to Gaussian, Inc.
  
 This software is provided under written license and may be
 used, copied, transmitted, or stored only in accord with that
 written license.
  
 The following legend is applicable only to US Government
 contracts under FAR:
  
                    RESTRICTED RIGHTS LEGEND
  
 Use, reproduction and disclosure by the US Government is
 subject to restrictions as set forth in subparagraphs (a)
 and (c) of the Commercial Computer Software - Restricted
 Rights clause in FAR 52.227-19.
  
 Gaussian, Inc.
 340 Quinnipiac St., Bldg. 40, Wallingford CT 06492
  
  
 ---------------------------------------------------------------
 Warning -- This program may not be used in any manner that
 competes with the business of Gaussian, Inc. or will provide
 assistance to any competitor of Gaussian, Inc.  The licensee
 of this program is prohibited from giving any competitor of
 Gaussian, Inc. access to this program.  By using this program,
 the user acknowledges that Gaussian, Inc. is engaged in the
 business of creating and licensing software in the field of
 computational chemistry and represents and warrants to the
 licensee that it is not a competitor of Gaussian, Inc. and that
 it will not use this program in any manner prohibited above.
 ---------------------------------------------------------------
  

 Cite this work as:
 Gaussian 16, Revision C.01,
 M. J. Frisch, G. W. Trucks, H. B. Schlegel, G. E. Scuseria, 
 M. A. Robb, J. R. Cheeseman, G. Scalmani, V. Barone, 
 G. A. Petersson, H. Nakatsuji, X. Li, M. Caricato, A. V. Marenich, 
 J. Bloino, B. G. Janesko, R. Gomperts, B. Mennucci, H. P. Hratchian, 
 J. V. Ortiz, A. F. Izmaylov, J. L. Sonnenberg, D. Williams-Young, 
 F. Ding, F. Lipparini, F. Egidi, J. Goings, B. Peng, A. Petrone, 
 T. Henderson, D. Ranasinghe, V. G. Zakrzewski, J. Gao, N. Rega, 
 G. Zheng, W. Liang, M. Hada, M. Ehara, K. Toyota, R. Fukuda, 
 J. Hasegawa, M. Ishida, T. Nakajima, Y. Honda, O. Kitao, H. Nakai, 
 T. Vreven, K. Throssell, J. A. Montgomery, Jr., J. E. Peralta, 
 F. Ogliaro, M. J. Bearpark, J. J. Heyd, E. N. Brothers, K. N. Kudin, 
 V. N. Staroverov, T. A. Keith, R. Kobayashi, J. Normand, 
 K. Raghavachari, A. P. Rendell, J. C. Burant, S. S. Iyengar, 
 J. Tomasi, M. Cossi, J. M. Millam, M. Klene, C. Adamo, R. Cammi, 
 J. W. Ochterski, R. L. Martin, K. Morokuma, O. Farkas, 
 J. B. Foresman, and D. J. Fox, Gaussian, Inc., Wallingford CT, 2019.
 
 ******************************************
 Gaussian 16:  ES64L-G16RevC.01  3-Jul-2019
                28-Oct-2021 
 ******************************************
 %mem=100GB
 %nprocshared=16
 Will use up to   16 processors via shared memory.
 ---------------------------------------------------------------
 # opt=modredundant b3lyp/6-311+g(d,p) scrf=(pcm, solvent=water)
 ---------------------------------------------------------------
 1/18=120,19=15,26=3,38=1/1,3;
 2/9=110,12=2,17=6,18=5,40=1/2;
 3/5=4,6=6,7=111,11=2,25=1,30=1,70=2201,71=1,72=1,74=-5/1,2,3;
 4//1;
 5/5=2,38=5,53=1/2;
 6/7=2,8=2,9=2,10=2,28=1/1;
 7//1,2,3,16;
 1/18=20,19=15,26=3/3(2);
 2/9=110/2;
 99//99;
 2/9=110/2;
 3/5=4,6=6,7=111,11=2,25=1,30=1,70=2205,71=1,72=1,74=-5/1,2,3;
 4/5=5,16=3,69=1/1;
 5/5=2,38=5,53=1/2;
 7//1,2,3,16;
 1/18=20,19=15,26=3/3(-5);
 2/9=110/2;
 6/7=2,8=2,9=2,10=2,19=2,28=1/1;
 99/9=1/99;
 -----------
 NDI_-15.pdb
 -----------
 Symbolic Z-matrix:
 Charge = -2 Multiplicity = 1
 C                    -2.563    -2.994    -0.409 
 C                    -2.257    -1.551    -0.224 
 C                    -3.301    -0.607    -0.083 
 C                    -4.65     -1.024    -0.115 
 C                    -4.992    -2.459    -0.304 
 C                    -0.949    -1.137    -0.215 
 C                    -2.962     0.764     0.102 
 C                    -1.595     1.188     0.123 
 C                    -0.561     0.232    -0.072 
 C                    -1.328     2.616     0.446 
 C                    -3.777     3.115     0.508 
 C                    -4.035     1.679     0.268 
 C                    -5.356     1.252     0.23 
 C                    -5.672    -0.098     0.036 
 H                    -6.699    -0.442     0.008 
 H                    -6.133     1.997     0.361 
 H                    -0.19     -1.895    -0.369 
 N                    -2.432     3.476     0.608 
 N                    -3.916    -3.353    -0.438 
 O                    -1.695    -3.847    -0.532 
 O                    -6.149    -2.85     -0.34 
 O                    -4.676     3.938     0.629 
 O                    -0.212     3.097     0.596 
 C                    -2.111     4.875     0.912 
 H                    -1.54      4.931     1.84 
 H                    -1.5       5.299     0.111 
 H                    -3.05      5.414     1.003 
 C                    -4.206    -4.779    -0.625 
 H                    -3.759    -5.126    -1.559 
 H                    -3.775    -5.355     0.196 
 H                    -5.286    -4.897    -0.649 
 C                     0.876     0.482    -0.178 
 C                     1.576     1.653    -0.393 
 S                     1.979    -0.894    -0.191 
 C                     2.962     1.458    -0.559 
 H                     1.102     2.621    -0.42 
 C                     3.373     0.125    -0.47 
 O                     3.893     2.422    -0.788 
 C                     4.711    -0.389    -0.552 
 C                     3.462     3.779    -0.731 
 C                     5.117    -1.72     -0.486 
 S                     6.125     0.642    -0.76 
 H                     4.359     4.385    -0.859 
 H                     2.753     4.005    -1.537 
 H                     2.997     4.007     0.236 
 C                     6.523    -1.908    -0.599 
 O                     4.181    -2.692    -0.322 
 C                     7.186    -0.72     -0.751 
 H                     7.017    -2.869    -0.57 
 C                     4.622    -4.045    -0.294 
 H                     8.252    -0.571    -0.861 
 H                     5.3      -4.225     0.549 
 H                     3.725    -4.651    -0.172 
 H                     5.123    -4.32     -1.23 
 
 The following ModRedundant input section has been read:
 D       8       9      32      33 F                                           
 

 GradGradGradGradGradGradGradGradGradGradGradGradGradGradGradGradGradGrad
 Berny optimization.
 Initialization pass.
                           ----------------------------
                           !    Initial Parameters    !
                           ! (Angstroms and Degrees)  !
 --------------------------                            --------------------------
 ! Name  Definition              Value          Derivative Info.                !
 --------------------------------------------------------------------------------
 ! R1    R(1,2)                  1.4866         estimate D2E/DX2                !
 ! R2    R(1,19)                 1.4001         estimate D2E/DX2                !
 ! R3    R(1,20)                 1.2232         estimate D2E/DX2                !
 ! R4    R(2,3)                  1.4146         estimate D2E/DX2                !
 ! R5    R(2,6)                  1.372          estimate D2E/DX2                !
 ! R6    R(3,4)                  1.4123         estimate D2E/DX2                !
 ! R7    R(3,7)                  1.4244         estimate D2E/DX2                !
 ! R8    R(4,5)                  1.4872         estimate D2E/DX2                !
 ! R9    R(4,14)                 1.3874         estimate D2E/DX2                !
 ! R10   R(5,19)                 1.4053         estimate D2E/DX2                !
 ! R11   R(5,21)                 1.2218         estimate D2E/DX2                !
 ! R12   R(6,9)                  1.4301         estimate D2E/DX2                !
 ! R13   R(6,17)                 1.0837         estimate D2E/DX2                !
 ! R14   R(7,8)                  1.4314         estimate D2E/DX2                !
 ! R15   R(7,12)                 1.4199         estimate D2E/DX2                !
 ! R16   R(8,9)                  1.4217         estimate D2E/DX2                !
 ! R17   R(8,10)                 1.4882         estimate D2E/DX2                !
 ! R18   R(9,32)                 1.4624         estimate D2E/DX2                !
 ! R19   R(10,18)                1.4088         estimate D2E/DX2                !
 ! R20   R(10,23)                1.2245         estimate D2E/DX2                !
 ! R21   R(11,12)                1.4786         estimate D2E/DX2                !
 ! R22   R(11,18)                1.3962         estimate D2E/DX2                !
 ! R23   R(11,22)                1.2248         estimate D2E/DX2                !
 ! R24   R(12,13)                1.3888         estimate D2E/DX2                !
 ! R25   R(13,14)                1.4            estimate D2E/DX2                !
 ! R26   R(13,16)                1.0844         estimate D2E/DX2                !
 ! R27   R(14,15)                1.0834         estimate D2E/DX2                !
 ! R28   R(18,24)                1.4672         estimate D2E/DX2                !
 ! R29   R(19,28)                1.4672         estimate D2E/DX2                !
 ! R30   R(24,25)                1.091          estimate D2E/DX2                !
 ! R31   R(24,26)                1.093          estimate D2E/DX2                !
 ! R32   R(24,27)                1.0865         estimate D2E/DX2                !
 ! R33   R(28,29)                1.0921         estimate D2E/DX2                !
 ! R34   R(28,30)                1.0916         estimate D2E/DX2                !
 ! R35   R(28,31)                1.0867         estimate D2E/DX2                !
 ! R36   R(32,33)                1.3811         estimate D2E/DX2                !
 ! R37   R(32,34)                1.7636         estimate D2E/DX2                !
 ! R38   R(33,35)                1.4095         estimate D2E/DX2                !
 ! R39   R(33,36)                1.0782         estimate D2E/DX2                !
 ! R40   R(34,37)                1.7491         estimate D2E/DX2                !
 ! R41   R(35,37)                1.3978         estimate D2E/DX2                !
 ! R42   R(35,38)                1.3596         estimate D2E/DX2                !
 ! R43   R(37,39)                1.4357         estimate D2E/DX2                !
 ! R44   R(38,40)                1.4249         estimate D2E/DX2                !
 ! R45   R(39,41)                1.3931         estimate D2E/DX2                !
 ! R46   R(39,42)                1.7623         estimate D2E/DX2                !
 ! R47   R(40,43)                1.0901         estimate D2E/DX2                !
 ! R48   R(40,44)                1.097          estimate D2E/DX2                !
 ! R49   R(40,45)                1.0969         estimate D2E/DX2                !
 ! R50   R(41,46)                1.423          estimate D2E/DX2                !
 ! R51   R(41,47)                1.3593         estimate D2E/DX2                !
 ! R52   R(42,48)                1.7265         estimate D2E/DX2                !
 ! R53   R(46,48)                1.3689         estimate D2E/DX2                !
 ! R54   R(46,49)                1.0809         estimate D2E/DX2                !
 ! R55   R(47,50)                1.4233         estimate D2E/DX2                !
 ! R56   R(48,51)                1.082          estimate D2E/DX2                !
 ! R57   R(50,52)                1.0967         estimate D2E/DX2                !
 ! R58   R(50,53)                1.0894         estimate D2E/DX2                !
 ! R59   R(50,54)                1.0967         estimate D2E/DX2                !
 ! A1    A(2,1,19)             116.767          estimate D2E/DX2                !
 ! A2    A(2,1,20)             122.9113         estimate D2E/DX2                !
 ! A3    A(19,1,20)            120.3217         estimate D2E/DX2                !
 ! A4    A(1,2,3)              120.5473         estimate D2E/DX2                !
 ! A5    A(1,2,6)              119.3369         estimate D2E/DX2                !
 ! A6    A(3,2,6)              120.1056         estimate D2E/DX2                !
 ! A7    A(2,3,4)              120.3743         estimate D2E/DX2                !
 ! A8    A(2,3,7)              118.662          estimate D2E/DX2                !
 ! A9    A(4,3,7)              120.9617         estimate D2E/DX2                !
 ! A10   A(3,4,5)              120.4909         estimate D2E/DX2                !
 ! A11   A(3,4,14)             120.2702         estimate D2E/DX2                !
 ! A12   A(5,4,14)             119.2382         estimate D2E/DX2                !
 ! A13   A(4,5,19)             116.7341         estimate D2E/DX2                !
 ! A14   A(4,5,21)             122.024          estimate D2E/DX2                !
 ! A15   A(19,5,21)            121.2418         estimate D2E/DX2                !
 ! A16   A(2,6,9)              123.2421         estimate D2E/DX2                !
 ! A17   A(2,6,17)             117.1119         estimate D2E/DX2                !
 ! A18   A(9,6,17)             119.589          estimate D2E/DX2                !
 ! A19   A(3,7,8)              120.9519         estimate D2E/DX2                !
 ! A20   A(3,7,12)             117.1037         estimate D2E/DX2                !
 ! A21   A(8,7,12)             121.944          estimate D2E/DX2                !
 ! A22   A(7,8,9)              119.5639         estimate D2E/DX2                !
 ! A23   A(7,8,10)             117.3064         estimate D2E/DX2                !
 ! A24   A(9,8,10)             122.9922         estimate D2E/DX2                !
 ! A25   A(6,9,8)              117.3944         estimate D2E/DX2                !
 ! A26   A(6,9,32)             115.0236         estimate D2E/DX2                !
 ! A27   A(8,9,32)             127.5648         estimate D2E/DX2                !
 ! A28   A(8,10,18)            118.042          estimate D2E/DX2                !
 ! A29   A(8,10,23)            124.5436         estimate D2E/DX2                !
 ! A30   A(18,10,23)           117.4097         estimate D2E/DX2                !
 ! A31   A(12,11,18)           115.5202         estimate D2E/DX2                !
 ! A32   A(12,11,22)           122.7205         estimate D2E/DX2                !
 ! A33   A(18,11,22)           121.7534         estimate D2E/DX2                !
 ! A34   A(7,12,11)            120.8614         estimate D2E/DX2                !
 ! A35   A(7,12,13)            121.162          estimate D2E/DX2                !
 ! A36   A(11,12,13)           117.9699         estimate D2E/DX2                !
 ! A37   A(12,13,14)           120.9948         estimate D2E/DX2                !
 ! A38   A(12,13,16)           117.8401         estimate D2E/DX2                !
 ! A39   A(14,13,16)           121.1642         estimate D2E/DX2                !
 ! A40   A(4,14,13)            119.5003         estimate D2E/DX2                !
 ! A41   A(4,14,15)            118.9169         estimate D2E/DX2                !
 ! A42   A(13,14,15)           121.5811         estimate D2E/DX2                !
 ! A43   A(10,18,11)           126.0753         estimate D2E/DX2                !
 ! A44   A(10,18,24)           115.7508         estimate D2E/DX2                !
 ! A45   A(11,18,24)           118.1737         estimate D2E/DX2                !
 ! A46   A(1,19,5)             125.0856         estimate D2E/DX2                !
 ! A47   A(1,19,28)            116.2868         estimate D2E/DX2                !
 ! A48   A(5,19,28)            118.6276         estimate D2E/DX2                !
 ! A49   A(18,24,25)           109.8574         estimate D2E/DX2                !
 ! A50   A(18,24,26)           109.8979         estimate D2E/DX2                !
 ! A51   A(18,24,27)           107.5355         estimate D2E/DX2                !
 ! A52   A(25,24,26)           108.1108         estimate D2E/DX2                !
 ! A53   A(25,24,27)           110.8301         estimate D2E/DX2                !
 ! A54   A(26,24,27)           110.6124         estimate D2E/DX2                !
 ! A55   A(19,28,29)           109.6906         estimate D2E/DX2                !
 ! A56   A(19,28,30)           109.8136         estimate D2E/DX2                !
 ! A57   A(19,28,31)           107.7461         estimate D2E/DX2                !
 ! A58   A(29,28,30)           108.2991         estimate D2E/DX2                !
 ! A59   A(29,28,31)           110.6959         estimate D2E/DX2                !
 ! A60   A(30,28,31)           110.5924         estimate D2E/DX2                !
 ! A61   A(9,32,33)            130.8628         estimate D2E/DX2                !
 ! A62   A(9,32,34)            118.7975         estimate D2E/DX2                !
 ! A63   A(33,32,34)           110.0839         estimate D2E/DX2                !
 ! A64   A(32,33,35)           113.5428         estimate D2E/DX2                !
 ! A65   A(32,33,36)           122.8411         estimate D2E/DX2                !
 ! A66   A(35,33,36)           123.6134         estimate D2E/DX2                !
 ! A67   A(32,34,37)            92.5839         estimate D2E/DX2                !
 ! A68   A(33,35,37)           114.4305         estimate D2E/DX2                !
 ! A69   A(33,35,38)           126.5203         estimate D2E/DX2                !
 ! A70   A(37,35,38)           119.0492         estimate D2E/DX2                !
 ! A71   A(34,37,35)           109.3537         estimate D2E/DX2                !
 ! A72   A(34,37,39)           122.9075         estimate D2E/DX2                !
 ! A73   A(35,37,39)           127.7221         estimate D2E/DX2                !
 ! A74   A(35,38,40)           117.4756         estimate D2E/DX2                !
 ! A75   A(37,39,41)           127.6589         estimate D2E/DX2                !
 ! A76   A(37,39,42)           123.0293         estimate D2E/DX2                !
 ! A77   A(41,39,42)           109.3118         estimate D2E/DX2                !
 ! A78   A(38,40,43)           106.0115         estimate D2E/DX2                !
 ! A79   A(38,40,44)           111.2411         estimate D2E/DX2                !
 ! A80   A(38,40,45)           111.1874         estimate D2E/DX2                !
 ! A81   A(43,40,44)           109.3317         estimate D2E/DX2                !
 ! A82   A(43,40,45)           109.6814         estimate D2E/DX2                !
 ! A83   A(44,40,45)           109.3235         estimate D2E/DX2                !
 ! A84   A(39,41,46)           114.2308         estimate D2E/DX2                !
 ! A85   A(39,41,47)           119.2237         estimate D2E/DX2                !
 ! A86   A(46,41,47)           126.5452         estimate D2E/DX2                !
 ! A87   A(39,42,48)            91.7734         estimate D2E/DX2                !
 ! A88   A(41,46,48)           111.8817         estimate D2E/DX2                !
 ! A89   A(41,46,49)           124.533          estimate D2E/DX2                !
 ! A90   A(48,46,49)           123.5853         estimate D2E/DX2                !
 ! A91   A(41,47,50)           117.9534         estimate D2E/DX2                !
 ! A92   A(42,48,46)           112.8023         estimate D2E/DX2                !
 ! A93   A(42,48,51)           119.7553         estimate D2E/DX2                !
 ! A94   A(46,48,51)           127.4424         estimate D2E/DX2                !
 ! A95   A(47,50,52)           111.2654         estimate D2E/DX2                !
 ! A96   A(47,50,53)           106.0143         estimate D2E/DX2                !
 ! A97   A(47,50,54)           111.2918         estimate D2E/DX2                !
 ! A98   A(52,50,53)           109.3698         estimate D2E/DX2                !
 ! A99   A(52,50,54)           109.4187         estimate D2E/DX2                !
 ! A100  A(53,50,54)           109.4054         estimate D2E/DX2                !
 ! D1    D(19,1,2,3)             0.1578         estimate D2E/DX2                !
 ! D2    D(19,1,2,6)          -178.6792         estimate D2E/DX2                !
 ! D3    D(20,1,2,3)          -179.8231         estimate D2E/DX2                !
 ! D4    D(20,1,2,6)             1.3399         estimate D2E/DX2                !
 ! D5    D(2,1,19,5)            -0.124          estimate D2E/DX2                !
 ! D6    D(2,1,19,28)          179.8267         estimate D2E/DX2                !
 ! D7    D(20,1,19,5)          179.8575         estimate D2E/DX2                !
 ! D8    D(20,1,19,28)          -0.1919         estimate D2E/DX2                !
 ! D9    D(1,2,3,4)              0.0571         estimate D2E/DX2                !
 ! D10   D(1,2,3,7)            179.5453         estimate D2E/DX2                !
 ! D11   D(6,2,3,4)            178.8851         estimate D2E/DX2                !
 ! D12   D(6,2,3,7)             -1.6266         estimate D2E/DX2                !
 ! D13   D(1,2,6,9)            178.625          estimate D2E/DX2                !
 ! D14   D(1,2,6,17)             1.3881         estimate D2E/DX2                !
 ! D15   D(3,2,6,9)             -0.2173         estimate D2E/DX2                !
 ! D16   D(3,2,6,17)          -177.4541         estimate D2E/DX2                !
 ! D17   D(2,3,4,5)             -0.3074         estimate D2E/DX2                !
 ! D18   D(2,3,4,14)           179.3968         estimate D2E/DX2                !
 ! D19   D(7,3,4,5)           -179.7837         estimate D2E/DX2                !
 ! D20   D(7,3,4,14)            -0.0795         estimate D2E/DX2                !
 ! D21   D(2,3,7,8)              1.0523         estimate D2E/DX2                !
 ! D22   D(2,3,7,12)          -178.712          estimate D2E/DX2                !
 ! D23   D(4,3,7,8)           -179.4626         estimate D2E/DX2                !
 ! D24   D(4,3,7,12)             0.7731         estimate D2E/DX2                !
 ! D25   D(3,4,5,19)             0.3343         estimate D2E/DX2                !
 ! D26   D(3,4,5,21)          -179.7799         estimate D2E/DX2                !
 ! D27   D(14,4,5,19)         -179.3729         estimate D2E/DX2                !
 ! D28   D(14,4,5,21)            0.5129         estimate D2E/DX2                !
 ! D29   D(3,4,14,13)           -0.4559         estimate D2E/DX2                !
 ! D30   D(3,4,14,15)         -179.9937         estimate D2E/DX2                !
 ! D31   D(5,4,14,13)          179.252          estimate D2E/DX2                !
 ! D32   D(5,4,14,15)           -0.2858         estimate D2E/DX2                !
 ! D33   D(4,5,19,1)            -0.1141         estimate D2E/DX2                !
 ! D34   D(4,5,19,28)          179.9364         estimate D2E/DX2                !
 ! D35   D(21,5,19,1)          179.9992         estimate D2E/DX2                !
 ! D36   D(21,5,19,28)           0.0496         estimate D2E/DX2                !
 ! D37   D(2,6,9,8)              2.5984         estimate D2E/DX2                !
 ! D38   D(2,6,9,32)          -176.0103         estimate D2E/DX2                !
 ! D39   D(17,6,9,8)           179.77           estimate D2E/DX2                !
 ! D40   D(17,6,9,32)            1.1613         estimate D2E/DX2                !
 ! D41   D(3,7,8,9)              1.3551         estimate D2E/DX2                !
 ! D42   D(3,7,8,10)          -174.5099         estimate D2E/DX2                !
 ! D43   D(12,7,8,9)          -178.8921         estimate D2E/DX2                !
 ! D44   D(12,7,8,10)            5.2428         estimate D2E/DX2                !
 ! D45   D(3,7,12,11)          178.0768         estimate D2E/DX2                !
 ! D46   D(3,7,12,13)           -0.9621         estimate D2E/DX2                !
 ! D47   D(8,7,12,11)           -1.685          estimate D2E/DX2                !
 ! D48   D(8,7,12,13)          179.2761         estimate D2E/DX2                !
 ! D49   D(7,8,9,6)             -3.0809         estimate D2E/DX2                !
 ! D50   D(7,8,9,32)           175.3285         estimate D2E/DX2                !
 ! D51   D(10,8,9,6)           172.5381         estimate D2E/DX2                !
 ! D52   D(10,8,9,32)           -9.0525         estimate D2E/DX2                !
 ! D53   D(7,8,10,18)           -4.7549         estimate D2E/DX2                !
 ! D54   D(7,8,10,23)          174.4235         estimate D2E/DX2                !
 ! D55   D(9,8,10,18)          179.5335         estimate D2E/DX2                !
 ! D56   D(9,8,10,23)           -1.2882         estimate D2E/DX2                !
 ! D57   D(6,9,32,33)          163.4366         estimate D2E/DX2                !
 ! D58   D(6,9,32,34)          -10.1182         estimate D2E/DX2                !
 ! D59   D(8,9,32,33)          -15.005          Frozen                          !
 ! D60   D(8,9,32,34)          171.4403         estimate D2E/DX2                !
 ! D61   D(8,10,18,11)           0.7189         estimate D2E/DX2                !
 ! D62   D(8,10,18,24)        -179.4089         estimate D2E/DX2                !
 ! D63   D(23,10,18,11)       -178.5188         estimate D2E/DX2                !
 ! D64   D(23,10,18,24)          1.3535         estimate D2E/DX2                !
 ! D65   D(18,11,12,7)          -2.3856         estimate D2E/DX2                !
 ! D66   D(18,11,12,13)        176.6833         estimate D2E/DX2                !
 ! D67   D(22,11,12,7)         178.4862         estimate D2E/DX2                !
 ! D68   D(22,11,12,13)         -2.445          estimate D2E/DX2                !
 ! D69   D(12,11,18,10)          2.8444         estimate D2E/DX2                !
 ! D70   D(12,11,18,24)       -177.0251         estimate D2E/DX2                !
 ! D71   D(22,11,18,10)       -178.0181         estimate D2E/DX2                !
 ! D72   D(22,11,18,24)          2.1124         estimate D2E/DX2                !
 ! D73   D(7,12,13,14)           0.461          estimate D2E/DX2                !
 ! D74   D(7,12,13,16)        -179.8781         estimate D2E/DX2                !
 ! D75   D(11,12,13,14)       -178.6049         estimate D2E/DX2                !
 ! D76   D(11,12,13,16)          1.056          estimate D2E/DX2                !
 ! D77   D(12,13,14,4)           0.2708         estimate D2E/DX2                !
 ! D78   D(12,13,14,15)        179.7958         estimate D2E/DX2                !
 ! D79   D(16,13,14,4)        -179.3788         estimate D2E/DX2                !
 ! D80   D(16,13,14,15)          0.1463         estimate D2E/DX2                !
 ! D81   D(10,18,24,25)        -59.609          estimate D2E/DX2                !
 ! D82   D(10,18,24,26)         59.2209         estimate D2E/DX2                !
 ! D83   D(10,18,24,27)        179.6858         estimate D2E/DX2                !
 ! D84   D(11,18,24,25)        120.2739         estimate D2E/DX2                !
 ! D85   D(11,18,24,26)       -120.8962         estimate D2E/DX2                !
 ! D86   D(11,18,24,27)         -0.4313         estimate D2E/DX2                !
 ! D87   D(1,19,28,29)         -58.1407         estimate D2E/DX2                !
 ! D88   D(1,19,28,30)          60.7668         estimate D2E/DX2                !
 ! D89   D(1,19,28,31)        -178.7139         estimate D2E/DX2                !
 ! D90   D(5,19,28,29)         121.8132         estimate D2E/DX2                !
 ! D91   D(5,19,28,30)        -119.2792         estimate D2E/DX2                !
 ! D92   D(5,19,28,31)           1.2401         estimate D2E/DX2                !
 ! D93   D(9,32,33,35)        -174.2275         estimate D2E/DX2                !
 ! D94   D(9,32,33,36)           6.3557         estimate D2E/DX2                !
 ! D95   D(34,32,33,35)         -0.2397         estimate D2E/DX2                !
 ! D96   D(34,32,33,36)       -179.6565         estimate D2E/DX2                !
 ! D97   D(9,32,34,37)         175.3429         estimate D2E/DX2                !
 ! D98   D(33,32,34,37)          0.529          estimate D2E/DX2                !
 ! D99   D(32,33,35,37)         -0.2874         estimate D2E/DX2                !
 ! D100  D(32,33,35,38)        179.7745         estimate D2E/DX2                !
 ! D101  D(36,33,35,37)        179.1242         estimate D2E/DX2                !
 ! D102  D(36,33,35,38)         -0.8139         estimate D2E/DX2                !
 ! D103  D(32,34,37,35)         -0.6756         estimate D2E/DX2                !
 ! D104  D(32,34,37,39)        177.9468         estimate D2E/DX2                !
 ! D105  D(33,35,37,34)          0.6731         estimate D2E/DX2                !
 ! D106  D(33,35,37,39)       -177.8647         estimate D2E/DX2                !
 ! D107  D(38,35,37,34)       -179.3838         estimate D2E/DX2                !
 ! D108  D(38,35,37,39)          2.0783         estimate D2E/DX2                !
 ! D109  D(33,35,38,40)          6.4667         estimate D2E/DX2                !
 ! D110  D(37,35,38,40)       -173.4688         estimate D2E/DX2                !
 ! D111  D(34,37,39,41)          2.8423         estimate D2E/DX2                !
 ! D112  D(34,37,39,42)       -177.1418         estimate D2E/DX2                !
 ! D113  D(35,37,39,41)       -178.8009         estimate D2E/DX2                !
 ! D114  D(35,37,39,42)          1.2149         estimate D2E/DX2                !
 ! D115  D(35,38,40,43)        175.5161         estimate D2E/DX2                !
 ! D116  D(35,38,40,44)        -65.7304         estimate D2E/DX2                !
 ! D117  D(35,38,40,45)         56.3715         estimate D2E/DX2                !
 ! D118  D(37,39,41,46)       -179.9824         estimate D2E/DX2                !
 ! D119  D(37,39,41,47)         -0.1749         estimate D2E/DX2                !
 ! D120  D(42,39,41,46)          0.0035         estimate D2E/DX2                !
 ! D121  D(42,39,41,47)        179.811          estimate D2E/DX2                !
 ! D122  D(37,39,42,48)        179.985          estimate D2E/DX2                !
 ! D123  D(41,39,42,48)         -0.0017         estimate D2E/DX2                !
 ! D124  D(39,41,46,48)         -0.004          estimate D2E/DX2                !
 ! D125  D(39,41,46,49)       -179.9722         estimate D2E/DX2                !
 ! D126  D(47,41,46,48)       -179.7948         estimate D2E/DX2                !
 ! D127  D(47,41,46,49)          0.237          estimate D2E/DX2                !
 ! D128  D(39,41,47,50)        178.3517         estimate D2E/DX2                !
 ! D129  D(46,41,47,50)         -1.8668         estimate D2E/DX2                !
 ! D130  D(39,42,48,46)         -0.0005         estimate D2E/DX2                !
 ! D131  D(39,42,48,51)        179.8938         estimate D2E/DX2                !
 ! D132  D(41,46,48,42)          0.0026         estimate D2E/DX2                !
 ! D133  D(41,46,48,51)       -179.8819         estimate D2E/DX2                !
 ! D134  D(49,46,48,42)        179.9711         estimate D2E/DX2                !
 ! D135  D(49,46,48,51)          0.0867         estimate D2E/DX2                !
 ! D136  D(41,47,50,52)         62.0677         estimate D2E/DX2                !
 ! D137  D(41,47,50,53)       -179.1183         estimate D2E/DX2                !
 ! D138  D(41,47,50,54)        -60.2471         estimate D2E/DX2                !
 --------------------------------------------------------------------------------
 Trust Radius=3.00D-01 FncErr=1.00D-07 GrdErr=1.00D-06 EigMax=2.50D+02 EigMin=1.00D-04
 Number of steps in this run=    307 maximum allowed number of steps=    324.
 GradGradGradGradGradGradGradGradGradGradGradGradGradGradGradGradGradGrad

 Stoichiometry    C26H18N2O6S2(2-)
 Framework group  C1[X(C26H18N2O6S2)]
 Deg. of freedom   156
 Full point group                 C1      NOp   1
 Largest Abelian subgroup         C1      NOp   1
 Largest concise Abelian subgroup C1      NOp   1
                         Standard orientation:                         
 ---------------------------------------------------------------------
 Center     Atomic      Atomic             Coordinates (Angstroms)
 Number     Number       Type             X           Y           Z
 ---------------------------------------------------------------------
      1          6           0       -2.485903   -3.035795   -0.089348
      2          6           0       -2.215274   -1.575312   -0.027212
      3          6           0       -3.280932   -0.645257   -0.045213
      4          6           0       -4.618288   -1.092908   -0.121377
      5          6           0       -4.924702   -2.546605   -0.190538
      6          6           0       -0.917286   -1.133765    0.023815
      7          6           0       -2.976245    0.744303    0.026036
      8          6           0       -1.620325    1.198253    0.091726
      9          6           0       -0.560950    0.250829    0.056635
     10          6           0       -1.397332    2.656262    0.289931
     11          6           0       -3.852730    3.105042    0.148286
     12          6           0       -4.072005    1.647274    0.033867
     13          6           0       -5.380878    1.189709   -0.045513
     14          6           0       -5.662361   -0.179317   -0.126301
     15          1           0       -6.679844   -0.546872   -0.185307
     16          1           0       -6.176355    1.926636   -0.037170
     17          1           0       -0.138070   -1.886242   -0.007238
     18          7           0       -2.522899    3.503437    0.297204
     19          7           0       -3.828356   -3.425528   -0.168448
     20          8           0       -1.598450   -3.877423   -0.073457
     21          8           0       -6.070637   -2.964555   -0.261101
     22          8           0       -4.770512    3.915944    0.131383
     23          8           0       -0.301121    3.173865    0.462346
     24          6           0       -2.244338    4.931942    0.482777
     25          1           0       -1.735738    5.089700    1.435037
     26          1           0       -1.589365    5.290022   -0.315652
     27          1           0       -3.195619    5.456465    0.461287
     28          6           0       -4.083158   -4.868936   -0.233221
     29          1           0       -3.571068   -5.294501   -1.098803
     30          1           0       -3.697367   -5.353471    0.665650
     31          1           0       -5.157334   -5.012376   -0.313667
     32          6           0        0.875793    0.520921    0.017594
     33          6           0        1.569784    1.680807   -0.266140
     34         16           0        1.998799   -0.825376    0.208636
     35          6           0        2.966530    1.501175   -0.324536
     36          1           0        1.083383    2.631053   -0.417388
     37          6           0        3.391784    0.192316   -0.080040
     38          8           0        3.895168    2.458796   -0.587389
     39          6           0        4.740197   -0.297705   -0.026882
     40          6           0        3.440103    3.805180   -0.690480
     41          6           0        5.161923   -1.606902    0.194259
     42         16           0        6.148339    0.739215   -0.244949
     43          1           0        4.333886    4.415551   -0.820202
     44          1           0        2.781460    3.936776   -1.557812
     45          1           0        2.909782    4.115116    0.218363
     46          6           0        6.575074   -1.774018    0.189082
     47          8           0        4.232642   -2.578863    0.393018
     48          6           0        7.227790   -0.591951   -0.036073
     49          1           0        7.081190   -2.716666    0.342895
     50          6           0        4.692103   -3.912848    0.580774
     51          1           0        8.296209   -0.430893   -0.092629
     52          1           0        5.316691   -3.995782    1.478407
     53          1           0        3.798710   -4.523799    0.704537
     54          1           0        5.257071   -4.265775   -0.290419
 ---------------------------------------------------------------------
 Rotational constants (GHZ):           0.1526983           0.0604496           0.0436572
 Standard basis: 6-311+G(d,p) (5D, 7F)
 There are   952 symmetry adapted cartesian basis functions of A   symmetry.
 There are   916 symmetry adapted basis functions of A   symmetry.
   916 basis functions,  1468 primitive gaussians,   952 cartesian basis functions
   135 alpha electrons      135 beta electrons
       nuclear repulsion energy      4090.4014633515 Hartrees.
 NAtoms=   54 NActive=   54 NUniq=   54 SFac= 1.00D+00 NAtFMM=   60 NAOKFM=F Big=F
 Integral buffers will be    131072 words long.
 Raffenetti 2 integral format.
 Two-electron integral symmetry is turned on.
 ------------------------------------------------------------------------------
 Polarizable Continuum Model (PCM)
 =================================
 Model                : PCM.
 Atomic radii         : UFF (Universal Force Field).
 Polarization charges : Total charges.
 Charge compensation  : None.
 Solution method      : On-the-fly selection.
 Cavity type          : Scaled VdW (van der Waals Surface) (Alpha=1.100).
 Cavity algorithm     : GePol (No added spheres)
                        Default sphere list used, NSphG=   54.
                        Lebedev-Laikov grids with approx.  5.0 points / Ang**2.
                        Smoothing algorithm: York/Karplus (Gamma=1.0000).
                        Polarization charges: spherical gaussians, with
                                              point-specific exponents (IZeta= 3).
                        Self-potential: point-specific (ISelfS= 7).
                        Self-field    : sphere-specific E.n sum rule (ISelfD= 2).
 1st derivatives      : Analytical E(r).r(x)/FMM algorithm (CHGder, D1EAlg=3).
                        Cavity 1st derivative terms included.
 Solvent              : Water, Eps=  78.355300 Eps(inf)=   1.777849
 ------------------------------------------------------------------------------
 One-electron integrals computed using PRISM.
 NBasis=   916 RedAO= T EigKep=  1.44D-06  NBF=   916
 NBsUse=   901 1.00D-06 EigRej=  8.07D-07 NBFU=   901
 ExpMin= 4.05D-02 ExpMax= 9.34D+04 ExpMxC= 3.17D+03 IAcc=3 IRadAn=         5 AccDes= 0.00D+00
 Harris functional with IExCor=  402 and IRadAn=       5 diagonalized for initial guess.
 HarFok:  IExCor=  402 AccDes= 0.00D+00 IRadAn=         5 IDoV= 1 UseB2=F ITyADJ=14
 ICtDFT=  3500011 ScaDFX=  1.000000  1.000000  1.000000  1.000000
 FoFCou: FMM=F IPFlag=           0 FMFlag=      100000 FMFlg1=           0
         NFxFlg=           0 DoJE=T BraDBF=F KetDBF=T FulRan=T
         wScrn=  0.000000 ICntrl=       500 IOpCl=  0 I1Cent=   200000004 NGrid=           0
         NMat0=    1 NMatS0=      1 NMatT0=    0 NMatD0=    1 NMtDS0=    0 NMtDT0=    0
 Petite list used in FoFCou.
 Requested convergence on RMS density matrix=1.00D-08 within 128 cycles.
 Requested convergence on MAX density matrix=1.00D-06.
 Requested convergence on             energy=1.00D-06.
 No special actions if energy rises.
 Inv3:  Mode=1 IEnd=    52869612.
 Iteration    1 A*A^-1 deviation from unit magnitude is 6.66D-15 for   4173.
 Iteration    1 A*A^-1 deviation from orthogonality  is 5.18D-15 for   4190   3276.
 Iteration    1 A^-1*A deviation from unit magnitude is 6.88D-15 for   4173.
 Iteration    1 A^-1*A deviation from orthogonality  is 2.22D-15 for   2831   1339.
 Error on total polarization charges =  0.03103
 SCF Done:  E(RB3LYP) =  -2359.59472930     A.U. after   17 cycles
            NFock= 17  Conv=0.57D-08     -V/T= 2.0029

 **********************************************************************

            Population analysis using the SCF Density.

 **********************************************************************

 Orbital symmetries:
       Occupied  (A) (A) (A) (A) (A) (A) (A) (A) (A) (A) (A) (A)
                 (A) (A) (A) (A) (A) (A) (A) (A) (A) (A) (A) (A)
                 (A) (A) (A) (A) (A) (A) (A) (A) (A) (A) (A) (A)
                 (A) (A) (A) (A) (A) (A) (A) (A) (A) (A) (A) (A)
                 (A) (A) (A) (A) (A) (A) (A) (A) (A) (A) (A) (A)
                 (A) (A) (A) (A) (A) (A) (A) (A) (A) (A) (A) (A)
                 (A) (A) (A) (A) (A) (A) (A) (A) (A) (A) (A) (A)
                 (A) (A) (A) (A) (A) (A) (A) (A) (A) (A) (A) (A)
                 (A) (A) (A) (A) (A) (A) (A) (A) (A) (A) (A) (A)
                 (A) (A) (A) (A) (A) (A) (A) (A) (A) (A) (A) (A)
                 (A) (A) (A) (A) (A) (A) (A) (A) (A) (A) (A) (A)
                 (A) (A) (A)
       Virtual   (A) (A) (A) (A) (A) (A) (A) (A) (A) (A) (A) (A)
                 (A) (A) (A) (A) (A) (A) (A) (A) (A) (A) (A) (A)
                 (A) (A) (A) (A) (A) (A) (A) (A) (A) (A) (A) (A)
                 (A) (A) (A) (A) (A) (A) (A) (A) (A) (A) (A) (A)
                 (A) (A) (A) (A) (A) (A) (A) (A) (A) (A) (A) (A)
                 (A) (A) (A) (A) (A) (A) (A) (A) (A) (A) (A) (A)
                 (A) (A) (A) (A) (A) (A) (A) (A) (A) (A) (A) (A)
                 (A) (A) (A) (A) (A) (A) (A) (A) (A) (A) (A) (A)
                 (A) (A) (A) (A) (A) (A) (A) (A) (A) (A) (A) (A)
                 (A) (A) (A) (A) (A) (A) (A) (A) (A) (A) (A) (A)
                 (A) (A) (A) (A) (A) (A) (A) (A) (A) (A) (A) (A)
                 (A) (A) (A) (A) (A) (A) (A) (A) (A) (A) (A) (A)
                 (A) (A) (A) (A) (A) (A) (A) (A) (A) (A) (A) (A)
                 (A) (A) (A) (A) (A) (A) (A) (A) (A) (A) (A) (A)
                 (A) (A) (A) (A) (A) (A) (A) (A) (A) (A) (A) (A)
                 (A) (A) (A) (A) (A) (A) (A) (A) (A) (A) (A) (A)
                 (A) (A) (A) (A) (A) (A) (A) (A) (A) (A) (A) (A)
                 (A) (A) (A) (A) (A) (A) (A) (A) (A) (A) (A) (A)
                 (A) (A) (A) (A) (A) (A) (A) (A) (A) (A) (A) (A)
                 (A) (A) (A) (A) (A) (A) (A) (A) (A) (A) (A) (A)
                 (A) (A) (A) (A) (A) (A) (A) (A) (A) (A) (A) (A)
                 (A) (A) (A) (A) (A) (A) (A) (A) (A) (A) (A) (A)
                 (A) (A) (A) (A) (A) (A) (A) (A) (A) (A) (A) (A)
                 (A) (A) (A) (A) (A) (A) (A) (A) (A) (A) (A) (A)
                 (A) (A) (A) (A) (A) (A) (A) (A) (A) (A) (A) (A)
                 (A) (A) (A) (A) (A) (A) (A) (A) (A) (A) (A) (A)
                 (A) (A) (A) (A) (A) (A) (A) (A) (A) (A) (A) (A)
                 (A) (A) (A) (A) (A) (A) (A) (A) (A) (A) (A) (A)
                 (A) (A) (A) (A) (A) (A) (A) (A) (A) (A) (A) (A)
                 (A) (A) (A) (A) (A) (A) (A) (A) (A) (A) (A) (A)
                 (A) (A) (A) (A) (A) (A) (A) (A) (A) (A) (A) (A)
                 (A) (A) (A) (A) (A) (A) (A) (A) (A) (A) (A) (A)
                 (A) (A) (A) (A) (A) (A) (A) (A) (A) (A) (A) (A)
                 (A) (A) (A) (A) (A) (A) (A) (A) (A) (A) (A) (A)
                 (A) (A) (A) (A) (A) (A) (A) (A) (A) (A) (A) (A)
                 (A) (A) (A) (A) (A) (A) (A) (A) (A) (A) (A) (A)
                 (A) (A) (A) (A) (A) (A) (A) (A) (A) (A) (A) (A)
                 (A) (A) (A) (A) (A) (A) (A) (A) (A) (A) (A) (A)
                 (A) (A) (A) (A) (A) (A) (A) (A) (A) (A) (A) (A)
                 (A) (A) (A) (A) (A) (A) (A) (A) (A) (A) (A) (A)
                 (A) (A) (A) (A) (A) (A) (A) (A) (A) (A) (A) (A)
                 (A) (A) (A) (A) (A) (A) (A) (A) (A) (A) (A) (A)
                 (A) (A) (A) (A) (A) (A) (A) (A) (A) (A) (A) (A)
                 (A) (A) (A) (A) (A) (A) (A) (A) (A) (A) (A) (A)
                 (A) (A) (A) (A) (A) (A) (A) (A) (A) (A) (A) (A)
                 (A) (A) (A) (A) (A) (A) (A) (A) (A) (A) (A) (A)
                 (A) (A) (A) (A) (A) (A) (A) (A) (A) (A) (A) (A)
                 (A) (A) (A) (A) (A) (A) (A) (A) (A) (A) (A) (A)
                 (A) (A) (A) (A) (A) (A) (A) (A) (A) (A) (A) (A)
                 (A) (A) (A) (A) (A) (A) (A) (A) (A) (A) (A) (A)
                 (A) (A) (A) (A) (A) (A) (A) (A) (A) (A) (A) (A)
                 (A) (A) (A) (A) (A) (A) (A) (A) (A) (A) (A) (A)
                 (A) (A) (A) (A) (A) (A) (A) (A) (A) (A) (A) (A)
                 (A) (A) (A) (A) (A) (A) (A) (A) (A) (A) (A) (A)
                 (A) (A) (A) (A) (A) (A) (A) (A) (A) (A) (A) (A)
                 (A) (A) (A) (A) (A) (A) (A) (A) (A) (A) (A) (A)
                 (A) (A) (A) (A) (A) (A) (A) (A) (A) (A) (A) (A)
                 (A) (A) (A) (A) (A) (A) (A) (A) (A) (A) (A) (A)
                 (A) (A) (A) (A) (A) (A) (A) (A) (A) (A) (A) (A)
                 (A) (A) (A) (A) (A) (A) (A) (A) (A) (A) (A) (A)
                 (A) (A) (A) (A) (A) (A) (A) (A) (A) (A) (A) (A)
                 (A) (A) (A) (A) (A) (A) (A) (A) (A) (A) (A) (A)
                 (A) (A) (A) (A) (A) (A) (A) (A) (A) (A) (A) (A)
                 (A) (A) (A) (A) (A) (A) (A) (A) (A) (A)
 The electronic state is 1-A.
 Alpha  occ. eigenvalues --  -88.87336 -88.85770 -19.15697 -19.15512 -19.07442
 Alpha  occ. eigenvalues --  -19.07361 -19.06931 -19.06247 -14.34761 -14.34291
 Alpha  occ. eigenvalues --  -10.25527 -10.25340 -10.25032 -10.24935 -10.23020
 Alpha  occ. eigenvalues --  -10.22307 -10.22197 -10.21943 -10.20477 -10.19417
 Alpha  occ. eigenvalues --  -10.19350 -10.19285 -10.18909 -10.18594 -10.17746
 Alpha  occ. eigenvalues --  -10.17532 -10.17241 -10.17126 -10.15715 -10.15340
 Alpha  occ. eigenvalues --  -10.15182 -10.15041 -10.14949 -10.14893 -10.14823
 Alpha  occ. eigenvalues --  -10.14548  -7.95911  -7.94407  -5.92216  -5.91838
 Alpha  occ. eigenvalues --   -5.91479  -5.90730  -5.90347  -5.89928  -1.07318
 Alpha  occ. eigenvalues --   -1.07003  -1.04034  -1.03712  -1.02136  -1.01747
 Alpha  occ. eigenvalues --   -0.91975  -0.91478  -0.88507  -0.86995  -0.85990
 Alpha  occ. eigenvalues --   -0.81110  -0.78605  -0.76907  -0.75247  -0.73913
 Alpha  occ. eigenvalues --   -0.72869  -0.72572  -0.71410  -0.70923  -0.69134
 Alpha  occ. eigenvalues --   -0.68755  -0.67133  -0.65176  -0.62899  -0.61247
 Alpha  occ. eigenvalues --   -0.61035  -0.59926  -0.58447  -0.56949  -0.54817
 Alpha  occ. eigenvalues --   -0.54602  -0.53220  -0.52956  -0.52614  -0.50471
 Alpha  occ. eigenvalues --   -0.49237  -0.48102  -0.47267  -0.47134  -0.46841
 Alpha  occ. eigenvalues --   -0.46559  -0.46407  -0.45996  -0.45290  -0.45000
 Alpha  occ. eigenvalues --   -0.44742  -0.44105  -0.43895  -0.42919  -0.42146
 Alpha  occ. eigenvalues --   -0.41925  -0.41180  -0.40783  -0.40550  -0.40291
 Alpha  occ. eigenvalues --   -0.40095  -0.39503  -0.38874  -0.38655  -0.38386
 Alpha  occ. eigenvalues --   -0.38300  -0.37765  -0.37482  -0.37303  -0.37268
 Alpha  occ. eigenvalues --   -0.36259  -0.35745  -0.35316  -0.34939  -0.34149
 Alpha  occ. eigenvalues --   -0.33421  -0.32827  -0.32758  -0.32430  -0.30830
 Alpha  occ. eigenvalues --   -0.30384  -0.27832  -0.27054  -0.26706  -0.25998
 Alpha  occ. eigenvalues --   -0.25602  -0.25325  -0.24744  -0.24387  -0.23942
 Alpha  occ. eigenvalues --   -0.23103  -0.22562  -0.21239  -0.17451  -0.11409
 Alpha virt. eigenvalues --   -0.05040  -0.02465  -0.01001  -0.00552  -0.00039
 Alpha virt. eigenvalues --    0.00693   0.00907   0.01183   0.01787   0.02073
 Alpha virt. eigenvalues --    0.02515   0.02629   0.03056   0.03272   0.03287
 Alpha virt. eigenvalues --    0.03624   0.04075   0.04235   0.04407   0.04507
 Alpha virt. eigenvalues --    0.04798   0.04916   0.05254   0.05295   0.05563
 Alpha virt. eigenvalues --    0.05733   0.05867   0.06004   0.06645   0.06919
 Alpha virt. eigenvalues --    0.07039   0.07475   0.07650   0.07934   0.07990
 Alpha virt. eigenvalues --    0.08323   0.08450   0.08898   0.08987   0.09220
 Alpha virt. eigenvalues --    0.09690   0.09837   0.09968   0.10377   0.10577
 Alpha virt. eigenvalues --    0.10899   0.11240   0.11582   0.11836   0.11974
 Alpha virt. eigenvalues --    0.12437   0.12494   0.12800   0.12936   0.13207
 Alpha virt. eigenvalues --    0.13355   0.13943   0.14153   0.14441   0.14658
 Alpha virt. eigenvalues --    0.14962   0.15123   0.15419   0.15744   0.15898
 Alpha virt. eigenvalues --    0.16013   0.16196   0.16385   0.16466   0.16732
 Alpha virt. eigenvalues --    0.17033   0.17095   0.17509   0.17699   0.17911
 Alpha virt. eigenvalues --    0.18183   0.18460   0.18733   0.18928   0.19137
 Alpha virt. eigenvalues --    0.19218   0.19427   0.19749   0.19918   0.20081
 Alpha virt. eigenvalues --    0.20327   0.20610   0.20774   0.20952   0.21089
 Alpha virt. eigenvalues --    0.21232   0.21501   0.21666   0.21784   0.21829
 Alpha virt. eigenvalues --    0.22134   0.22660   0.22925   0.23283   0.23514
 Alpha virt. eigenvalues --    0.23565   0.23604   0.24164   0.24213   0.24480
 Alpha virt. eigenvalues --    0.24774   0.24863   0.24920   0.25085   0.25161
 Alpha virt. eigenvalues --    0.25426   0.25600   0.25880   0.26151   0.26272
 Alpha virt. eigenvalues --    0.26535   0.26789   0.26900   0.26963   0.27058
 Alpha virt. eigenvalues --    0.27130   0.27343   0.27624   0.27839   0.28092
 Alpha virt. eigenvalues --    0.28211   0.28472   0.28655   0.28800   0.29042
 Alpha virt. eigenvalues --    0.29285   0.29396   0.29673   0.29913   0.30018
 Alpha virt. eigenvalues --    0.30144   0.30429   0.30777   0.30880   0.31047
 Alpha virt. eigenvalues --    0.31212   0.31369   0.31638   0.31923   0.32228
 Alpha virt. eigenvalues --    0.32478   0.32581   0.33181   0.33450   0.33565
 Alpha virt. eigenvalues --    0.33933   0.34127   0.34569   0.35058   0.35120
 Alpha virt. eigenvalues --    0.35235   0.35382   0.35570   0.35988   0.36149
 Alpha virt. eigenvalues --    0.36425   0.36995   0.37409   0.37782   0.38142
 Alpha virt. eigenvalues --    0.38495   0.38947   0.39003   0.39436   0.40094
 Alpha virt. eigenvalues --    0.40376   0.40503   0.40934   0.41179   0.42212
 Alpha virt. eigenvalues --    0.42345   0.42925   0.43129   0.43611   0.43882
 Alpha virt. eigenvalues --    0.44128   0.44667   0.44863   0.44974   0.45748
 Alpha virt. eigenvalues --    0.45780   0.46034   0.46797   0.46971   0.47281
 Alpha virt. eigenvalues --    0.47841   0.48153   0.48316   0.48502   0.49157
 Alpha virt. eigenvalues --    0.49810   0.50721   0.51095   0.51397   0.52275
 Alpha virt. eigenvalues --    0.52349   0.52536   0.53233   0.53733   0.54194
 Alpha virt. eigenvalues --    0.54905   0.55867   0.56021   0.56179   0.56737
 Alpha virt. eigenvalues --    0.57186   0.57298   0.57538   0.57963   0.58314
 Alpha virt. eigenvalues --    0.58691   0.58993   0.59111   0.59512   0.59875
 Alpha virt. eigenvalues --    0.60200   0.61058   0.61419   0.61873   0.62076
 Alpha virt. eigenvalues --    0.62163   0.62735   0.63379   0.63508   0.63973
 Alpha virt. eigenvalues --    0.64275   0.64536   0.65006   0.65695   0.65890
 Alpha virt. eigenvalues --    0.66275   0.66686   0.66767   0.66867   0.67298
 Alpha virt. eigenvalues --    0.67703   0.68326   0.68465   0.68744   0.69220
 Alpha virt. eigenvalues --    0.69353   0.69707   0.69920   0.70713   0.70891
 Alpha virt. eigenvalues --    0.71920   0.72258   0.72480   0.72843   0.73141
 Alpha virt. eigenvalues --    0.73667   0.74073   0.74695   0.74977   0.75103
 Alpha virt. eigenvalues --    0.75925   0.76084   0.76550   0.76701   0.77122
 Alpha virt. eigenvalues --    0.77450   0.77544   0.78051   0.78186   0.78262
 Alpha virt. eigenvalues --    0.78766   0.79064   0.79642   0.80213   0.80413
 Alpha virt. eigenvalues --    0.80869   0.81272   0.81668   0.82636   0.82746
 Alpha virt. eigenvalues --    0.83466   0.83679   0.84388   0.84811   0.85861
 Alpha virt. eigenvalues --    0.86409   0.86752   0.87572   0.88495   0.89248
 Alpha virt. eigenvalues --    0.90537   0.90682   0.90963   0.91484   0.91802
 Alpha virt. eigenvalues --    0.92229   0.92676   0.93843   0.93890   0.95174
 Alpha virt. eigenvalues --    0.95486   0.95832   0.96191   0.96668   0.96781
 Alpha virt. eigenvalues --    0.97651   0.98091   0.98109   0.98843   0.99101
 Alpha virt. eigenvalues --    0.99493   0.99900   1.00088   1.00720   1.00832
 Alpha virt. eigenvalues --    1.01762   1.01959   1.02753   1.02886   1.03098
 Alpha virt. eigenvalues --    1.03979   1.04102   1.04614   1.05251   1.05684
 Alpha virt. eigenvalues --    1.05858   1.06185   1.06794   1.07380   1.07695
 Alpha virt. eigenvalues --    1.08133   1.08264   1.08827   1.09122   1.09721
 Alpha virt. eigenvalues --    1.10308   1.10569   1.10900   1.11496   1.11815
 Alpha virt. eigenvalues --    1.12606   1.12819   1.13354   1.13580   1.15397
 Alpha virt. eigenvalues --    1.15872   1.16649   1.17106   1.17848   1.18424
 Alpha virt. eigenvalues --    1.18656   1.18981   1.19426   1.20411   1.21324
 Alpha virt. eigenvalues --    1.21804   1.22022   1.23729   1.23992   1.24382
 Alpha virt. eigenvalues --    1.25198   1.25407   1.26531   1.26984   1.27581
 Alpha virt. eigenvalues --    1.28478   1.28991   1.30659   1.30924   1.31589
 Alpha virt. eigenvalues --    1.32020   1.33103   1.33256   1.33773   1.35063
 Alpha virt. eigenvalues --    1.35512   1.35917   1.36444   1.36564   1.38183
 Alpha virt. eigenvalues --    1.39256   1.39948   1.41554   1.41928   1.42457
 Alpha virt. eigenvalues --    1.43823   1.44248   1.44709   1.45360   1.45516
 Alpha virt. eigenvalues --    1.45803   1.46392   1.46781   1.47157   1.47302
 Alpha virt. eigenvalues --    1.48314   1.48905   1.49125   1.49902   1.50677
 Alpha virt. eigenvalues --    1.51004   1.51199   1.52172   1.52702   1.53043
 Alpha virt. eigenvalues --    1.54874   1.55149   1.55417   1.55799   1.56135
 Alpha virt. eigenvalues --    1.56348   1.57089   1.57331   1.57895   1.58111
 Alpha virt. eigenvalues --    1.58139   1.59042   1.59418   1.59680   1.61899
 Alpha virt. eigenvalues --    1.62008   1.63462   1.63801   1.64290   1.64688
 Alpha virt. eigenvalues --    1.64951   1.65487   1.65832   1.67321   1.67610
 Alpha virt. eigenvalues --    1.68423   1.69357   1.69485   1.70097   1.70337
 Alpha virt. eigenvalues --    1.70883   1.71581   1.72417   1.72799   1.73405
 Alpha virt. eigenvalues --    1.73999   1.74837   1.75651   1.75805   1.76062
 Alpha virt. eigenvalues --    1.76523   1.77174   1.77747   1.79259   1.79426
 Alpha virt. eigenvalues --    1.79666   1.80505   1.80941   1.81074   1.81968
 Alpha virt. eigenvalues --    1.82524   1.83855   1.85164   1.85646   1.86192
 Alpha virt. eigenvalues --    1.86773   1.88472   1.88647   1.89867   1.90064
 Alpha virt. eigenvalues --    1.90392   1.90843   1.92093   1.92999   1.93430
 Alpha virt. eigenvalues --    1.93746   1.94404   1.94904   1.95767   1.96195
 Alpha virt. eigenvalues --    1.96405   1.97614   1.97960   1.98905   1.99364
 Alpha virt. eigenvalues --    2.00696   2.01134   2.02088   2.02363   2.03181
 Alpha virt. eigenvalues --    2.03778   2.04071   2.04528   2.05444   2.05820
 Alpha virt. eigenvalues --    2.06249   2.06917   2.07261   2.07682   2.08216
 Alpha virt. eigenvalues --    2.08565   2.09674   2.10407   2.11826   2.11910
 Alpha virt. eigenvalues --    2.12995   2.13238   2.13579   2.14265   2.15742
 Alpha virt. eigenvalues --    2.16433   2.16657   2.17525   2.18378   2.20027
 Alpha virt. eigenvalues --    2.20927   2.21285   2.21939   2.22360   2.23491
 Alpha virt. eigenvalues --    2.24064   2.24939   2.25397   2.25799   2.27917
 Alpha virt. eigenvalues --    2.29231   2.30575   2.31163   2.33721   2.35777
 Alpha virt. eigenvalues --    2.36814   2.38056   2.39786   2.41655   2.42212
 Alpha virt. eigenvalues --    2.43537   2.43940   2.44502   2.44720   2.44860
 Alpha virt. eigenvalues --    2.46185   2.47314   2.47650   2.47778   2.49927
 Alpha virt. eigenvalues --    2.50149   2.50829   2.51355   2.52364   2.53249
 Alpha virt. eigenvalues --    2.53898   2.54390   2.54881   2.54956   2.55548
 Alpha virt. eigenvalues --    2.55622   2.56124   2.57323   2.59421   2.59527
 Alpha virt. eigenvalues --    2.60193   2.61797   2.61995   2.63478   2.65339
 Alpha virt. eigenvalues --    2.67323   2.67866   2.68274   2.68790   2.69419
 Alpha virt. eigenvalues --    2.70074   2.70524   2.71821   2.72255   2.72651
 Alpha virt. eigenvalues --    2.73029   2.74661   2.75527   2.75635   2.75811
 Alpha virt. eigenvalues --    2.76231   2.76422   2.77201   2.79109   2.79568
 Alpha virt. eigenvalues --    2.80272   2.81026   2.82389   2.84252   2.85025
 Alpha virt. eigenvalues --    2.85158   2.85736   2.86454   2.87154   2.88329
 Alpha virt. eigenvalues --    2.88642   2.89345   2.89693   2.90768   2.92222
 Alpha virt. eigenvalues --    2.92708   2.92871   2.93551   2.94702   2.94781
 Alpha virt. eigenvalues --    2.95096   2.96173   2.97049   2.97680   2.98782
 Alpha virt. eigenvalues --    2.99142   2.99880   3.01381   3.01827   3.04649
 Alpha virt. eigenvalues --    3.05725   3.06885   3.07440   3.09657   3.10169
 Alpha virt. eigenvalues --    3.10507   3.12043   3.12834   3.15092   3.15518
 Alpha virt. eigenvalues --    3.17746   3.18196   3.18709   3.19370   3.20151
 Alpha virt. eigenvalues --    3.21713   3.23256   3.24004   3.24520   3.24926
 Alpha virt. eigenvalues --    3.26252   3.28208   3.30154   3.31070   3.32226
 Alpha virt. eigenvalues --    3.33211   3.34335   3.34515   3.38062   3.38339
 Alpha virt. eigenvalues --    3.38624   3.38889   3.40760   3.41194   3.43103
 Alpha virt. eigenvalues --    3.43687   3.45267   3.47134   3.47252   3.49287
 Alpha virt. eigenvalues --    3.49393   3.50131   3.51813   3.53810   3.55230
 Alpha virt. eigenvalues --    3.57478   3.59012   3.62328   3.63700   3.65040
 Alpha virt. eigenvalues --    3.66606   3.69475   3.70091   3.71538   3.73641
 Alpha virt. eigenvalues --    3.74345   3.74718   3.75119   3.77548   3.77754
 Alpha virt. eigenvalues --    3.78052   3.83307   3.85711   3.86490   3.88229
 Alpha virt. eigenvalues --    3.89032   3.94466   3.95879   3.96620   3.97508
 Alpha virt. eigenvalues --    3.97996   4.01308   4.04972   4.06057   4.08362
 Alpha virt. eigenvalues --    4.10170   4.11850   4.15745   4.17613   4.22810
 Alpha virt. eigenvalues --    4.26507   4.30033   4.32125   4.40501   4.45560
 Alpha virt. eigenvalues --    4.45750   4.56864   4.75800   4.89994   4.91096
 Alpha virt. eigenvalues --    4.92979   4.94329   5.02415   5.03792   5.08010
 Alpha virt. eigenvalues --    5.09582   5.09953   5.13692   5.15725   5.17602
 Alpha virt. eigenvalues --    5.29039   5.31092   5.33600   5.38483   5.43627
 Alpha virt. eigenvalues --    5.44807   5.77870   5.80162   5.81655   5.84405
 Alpha virt. eigenvalues --    5.86367   5.89449   8.03606   8.07706  17.29986
 Alpha virt. eigenvalues --   17.33210  17.50890  17.53715  17.61004  17.66430
 Alpha virt. eigenvalues --   23.53482  23.60147  23.74261  23.83083  23.85436
 Alpha virt. eigenvalues --   23.87876  23.89277  23.91349  23.91670  23.92237
 Alpha virt. eigenvalues --   23.92358  23.93257  23.94115  23.96903  23.97499
 Alpha virt. eigenvalues --   24.00225  24.01531  24.03921  24.04220  24.04701
 Alpha virt. eigenvalues --   24.06277  24.11481  24.15455  24.16241  24.19801
 Alpha virt. eigenvalues --   24.20262  35.59989  35.62845  49.97542  49.99238
 Alpha virt. eigenvalues --   50.07009  50.08951  50.10807  50.12646 189.21025
 Alpha virt. eigenvalues --  189.25877
          Condensed to atoms (all electrons):
 Mulliken charges:
               1
     1  C    0.285885
     2  C   -0.074928
     3  C    0.149653
     4  C    0.077748
     5  C    0.288135
     6  C   -0.015007
     7  C    0.181142
     8  C    0.153698
     9  C    0.169233
    10  C   -0.283234
    11  C    0.262678
    12  C    0.001418
    13  C   -0.529012
    14  C   -0.673266
    15  H    0.119728
    16  H    0.121691
    17  H    0.119736
    18  N   -0.180987
    19  N   -0.154200
    20  O   -0.489969
    21  O   -0.465433
    22  O   -0.478876
    23  O   -0.405716
    24  C   -0.181702
    25  H    0.164814
    26  H    0.163379
    27  H    0.167552
    28  C   -0.202699
    29  H    0.161701
    30  H    0.162706
    31  H    0.168456
    32  C   -0.015110
    33  C   -0.228498
    34  S   -0.648859
    35  C   -0.402639
    36  H    0.166345
    37  C    0.393203
    38  O   -0.169853
    39  C    0.762367
    40  C   -0.245758
    41  C   -0.044136
    42  S   -0.232674
    43  H    0.168511
    44  H    0.154154
    45  H    0.159544
    46  C   -0.619548
    47  O   -0.156192
    48  C   -0.386905
    49  H    0.154212
    50  C   -0.251340
    51  H    0.180288
    52  H    0.154075
    53  H    0.170157
    54  H    0.154333
 Sum of Mulliken charges =  -2.00000
 Mulliken charges with hydrogens summed into heavy atoms:
               1
     1  C    0.285885
     2  C   -0.074928
     3  C    0.149653
     4  C    0.077748
     5  C    0.288135
     6  C    0.104728
     7  C    0.181142
     8  C    0.153698
     9  C    0.169233
    10  C   -0.283234
    11  C    0.262678
    12  C    0.001418
    13  C   -0.407321
    14  C   -0.553537
    18  N   -0.180987
    19  N   -0.154200
    20  O   -0.489969
    21  O   -0.465433
    22  O   -0.478876
    23  O   -0.405716
    24  C    0.314043
    28  C    0.290164
    32  C   -0.015110
    33  C   -0.062153
    34  S   -0.648859
    35  C   -0.402639
    37  C    0.393203
    38  O   -0.169853
    39  C    0.762367
    40  C    0.236451
    41  C   -0.044136
    42  S   -0.232674
    46  C   -0.465336
    47  O   -0.156192
    48  C   -0.206616
    50  C    0.227224
 Electronic spatial extent (au):  <R**2>=          22629.2460
 Charge=             -2.0000 electrons
 Dipole moment (field-independent basis, Debye):
    X=             24.4741    Y=             -0.8100    Z=             -0.2592  Tot=             24.4889
 Quadrupole moment (field-independent basis, Debye-Ang):
   XX=           -381.6745   YY=           -277.9956   ZZ=           -234.8060
   XY=             -7.6650   XZ=             -0.8196   YZ=             -7.9973
 Traceless Quadrupole moment (field-independent basis, Debye-Ang):
   XX=            -83.5158   YY=             20.1631   ZZ=             63.3527
   XY=             -7.6650   XZ=             -0.8196   YZ=             -7.9973
 Octapole moment (field-independent basis, Debye-Ang**2):
  XXX=            940.6328  YYY=            -27.3781  ZZZ=              1.5018  XYY=            349.0336
  XXY=            -84.4122  XXZ=             31.1875  XZZ=              5.5217  YZZ=             -1.9016
  YYZ=             -3.9364  XYZ=             -7.5135
 Hexadecapole moment (field-independent basis, Debye-Ang**3):
 XXXX=         -26276.1112 YYYY=          -9153.2241 ZZZZ=           -410.7074 XXXY=           -790.7653
 XXXZ=            -37.3638 YYYX=            223.8068 YYYZ=           -115.0081 ZZZX=             -2.0379
 ZZZY=             -4.3866 XXYY=          -6043.6823 XXZZ=          -3971.9230 YYZZ=          -1523.7077
 XXYZ=           -154.2735 YYXZ=              1.0452 ZZXY=             18.5765
 N-N= 4.090401463351D+03 E-N=-1.378377083083D+04  KE= 2.352685291830D+03
 D1PCM: PCM CHGder 1st derivatives, ID1Alg=3 FixD1E=F DoIter=F DoCFld=F I1PDM=0.
 Calling FoFJK, ICntrl=      2127 FMM=F ISym2X=0 I1Cent= 0 IOpClX= 0 NMat=1 NMatS=1 NMatT=0.
 ***** Axes restored to original set *****
 -------------------------------------------------------------------
 Center     Atomic                   Forces (Hartrees/Bohr)
 Number     Number              X              Y              Z
 -------------------------------------------------------------------
      1        6          -0.012399570    0.049180528    0.006802685
      2        6          -0.026615401   -0.033006359   -0.002679289
      3        6          -0.002449228   -0.008116002   -0.000983933
      4        6           0.013162877   -0.038780710   -0.005729857
      5        6           0.033659817    0.038415233    0.004713151
      6        6           0.030349695    0.034948507    0.001368382
      7        6           0.001654596    0.007841095    0.000380621
      8        6          -0.012649288    0.042927333    0.010350236
      9        6           0.014106006   -0.047872299   -0.004733476
     10        6          -0.033548817   -0.041262798   -0.009759529
     11        6           0.016104502   -0.047767396   -0.007836291
     12        6           0.026859375    0.031448198    0.005168560
     13        6          -0.032206154   -0.029700386   -0.004063135
     14        6          -0.015815186    0.040033731    0.006119280
     15        1          -0.000328283    0.001892267    0.000301007
     16        1          -0.000753940   -0.001913243   -0.000302168
     17        1          -0.001872213    0.000901834   -0.000259013
     18        7          -0.002211705    0.000550854   -0.001529756
     19        7          -0.000313235   -0.000226240   -0.000140407
     20        8           0.021350119   -0.027558332   -0.004029905
     21        8          -0.032315822   -0.016540238   -0.001737951
     22        8          -0.022673952    0.027377736    0.004597788
     23        8           0.012938530    0.026984500    0.018712684
     24        6           0.000230546   -0.001918264   -0.001619943
     25        1          -0.000484957    0.001014028    0.000147938
     26        1          -0.001083896    0.000593653    0.001124630
     27        1           0.001235371    0.000476608    0.000170617
     28        6           0.000784819    0.002272344   -0.000104856
     29        1          -0.001123743   -0.000619218    0.000491619
     30        1          -0.000873772   -0.000712884   -0.000255533
     31        1           0.001006647   -0.000899791   -0.000081782
     32        6          -0.007415119    0.003659895   -0.002286207
     33        6           0.013138539   -0.000416830   -0.010976509
     34       16           0.000053038   -0.000655347    0.003384436
     35        6           0.001433525   -0.017619463    0.001427695
     36        1           0.005668650   -0.007755594   -0.003184330
     37        6           0.007868784    0.011133246   -0.001792972
     38        8           0.001846844    0.002319186   -0.000102230
     39        6          -0.002053563   -0.002810301   -0.000112795
     40        6          -0.001552410    0.004349737   -0.000220625
     41        6           0.003177189    0.005568040   -0.000428135
     42       16          -0.001160741   -0.000283581   -0.000045292
     43        1          -0.000752080   -0.000278395    0.000173457
     44        1           0.001162037   -0.000561303    0.001380315
     45        1           0.001228619   -0.000499827   -0.001842614
     46        6          -0.000342325    0.002134855   -0.000086184
     47        8          -0.002631857   -0.002536163    0.000183313
     48        6           0.007391578   -0.003611675   -0.000316678
     49        1           0.000187387    0.000469784   -0.000061373
     50        6           0.001911451   -0.003591275    0.000086600
     51        1          -0.001761830    0.000038318    0.000170086
     52        1          -0.000946003    0.000357850   -0.000970139
     53        1           0.000599890    0.000136300   -0.000060972
     54        1          -0.000775342    0.000488255    0.001078778
 -------------------------------------------------------------------
 Cartesian Forces:  Max     0.049180528 RMS     0.014288480

 GradGradGradGradGradGradGradGradGradGradGradGradGradGradGradGradGradGrad
 Berny optimization.
 FormGI is forming the generalized inverse of G from B-inverse, IUseBI=4.
 Internal  Forces:  Max     0.064532265 RMS     0.010187893
 Search for a local minimum.
 Step number   1 out of a maximum of  307
 All quantities printed in internal units (Hartrees-Bohrs-Radians)
 Mixed Optimization -- RFO/linear search
 Second derivative matrix not updated -- first step.
 ITU=  0
     Eigenvalues ---    0.00803   0.00803   0.01176   0.01203   0.01245
     Eigenvalues ---    0.01292   0.01308   0.01311   0.01362   0.01383
     Eigenvalues ---    0.01419   0.01429   0.01458   0.01496   0.01516
     Eigenvalues ---    0.01568   0.01574   0.01577   0.01617   0.01652
     Eigenvalues ---    0.01695   0.01711   0.01713   0.01719   0.01754
     Eigenvalues ---    0.01783   0.01803   0.01847   0.01971   0.02040
     Eigenvalues ---    0.02046   0.02068   0.02080   0.02084   0.02135
     Eigenvalues ---    0.02149   0.02163   0.02178   0.02197   0.02226
     Eigenvalues ---    0.02230   0.02250   0.07556   0.07572   0.07690
     Eigenvalues ---    0.07700   0.10058   0.10068   0.10627   0.10635
     Eigenvalues ---    0.15983   0.15999   0.15999   0.16000   0.16000
     Eigenvalues ---    0.16000   0.16000   0.16000   0.16000   0.16000
     Eigenvalues ---    0.16000   0.16000   0.16000   0.16000   0.16000
     Eigenvalues ---    0.16000   0.16000   0.16000   0.22530   0.22583
     Eigenvalues ---    0.23518   0.23582   0.24516   0.24747   0.24865
     Eigenvalues ---    0.24931   0.24952   0.24985   0.24987   0.24988
     Eigenvalues ---    0.24991   0.24994   0.24997   0.24997   0.24998
     Eigenvalues ---    0.24998   0.25000   0.25000   0.25000   0.25000
     Eigenvalues ---    0.25000   0.25000   0.25000   0.25000   0.25000
     Eigenvalues ---    0.25000   0.28838   0.28851   0.30033   0.32124
     Eigenvalues ---    0.32582   0.32774   0.33111   0.33787   0.34017
     Eigenvalues ---    0.34022   0.34051   0.34051   0.34354   0.34466
     Eigenvalues ---    0.34577   0.34629   0.34693   0.34806   0.34885
     Eigenvalues ---    0.35198   0.35218   0.35468   0.35553   0.35582
     Eigenvalues ---    0.35757   0.35883   0.36078   0.36083   0.36218
     Eigenvalues ---    0.36396   0.36662   0.39352   0.40185   0.40194
     Eigenvalues ---    0.40651   0.40820   0.41524   0.41725   0.41962
     Eigenvalues ---    0.42300   0.42640   0.43455   0.43998   0.44092
     Eigenvalues ---    0.44594   0.44684   0.45014   0.45406   0.46251
     Eigenvalues ---    0.47305   0.47650   0.49310   0.49573   0.53030
     Eigenvalues ---    0.53083   0.93281   0.93432   0.93989   0.94585
     Eigenvalues --- 1000.000001000.000001000.000001000.000001000.00000
     Eigenvalues --- 1000.000001000.000001000.000001000.000001000.00000
     Eigenvalues --- 1000.000001000.000001000.000001000.000001000.00000
     Eigenvalues --- 1000.000001000.000001000.000001000.000001000.00000
     Eigenvalues --- 1000.000001000.000001000.000001000.000001000.00000
     Eigenvalues --- 1000.000001000.000001000.000001000.000001000.00000
     Eigenvalues --- 1000.000001000.000001000.000001000.000001000.00000
     Eigenvalues --- 1000.000001000.000001000.000001000.000001000.00000
     Eigenvalues --- 1000.000001000.000001000.000001000.000001000.00000
     Eigenvalues --- 1000.000001000.000001000.000001000.000001000.00000
     Eigenvalues --- 1000.000001000.000001000.000001000.000001000.00000
     Eigenvalues --- 1000.000001000.000001000.000001000.000001000.00000
     Eigenvalues --- 1000.000001000.000001000.000001000.000001000.00000
     Eigenvalues --- 1000.000001000.000001000.000001000.000001000.00000
     Eigenvalues --- 1000.000001000.000001000.000001000.000001000.00000
     Eigenvalues --- 1000.000001000.000001000.000001000.000001000.00000
     Eigenvalues --- 1000.000001000.000001000.000001000.000001000.00000
     Eigenvalues --- 1000.000001000.000001000.000001000.000001000.00000
     Eigenvalues --- 1000.000001000.000001000.000001000.000001000.00000
     Eigenvalues --- 1000.000001000.000001000.000001000.000001000.00000
     Eigenvalues --- 1000.000001000.000001000.000001000.000001000.00000
     Eigenvalues --- 1000.000001000.000001000.000001000.000001000.00000
     Eigenvalues --- 1000.000001000.000001000.000001000.000001000.00000
     Eigenvalues --- 1000.000001000.000001000.000001000.000001000.00000
     Eigenvalues --- 1000.000001000.000001000.000001000.000001000.00000
     Eigenvalues --- 1000.000001000.000001000.000001000.000001000.00000
     Eigenvalues --- 1000.000001000.000001000.000001000.000001000.00000
     Eigenvalues --- 1000.000001000.000001000.000001000.000001000.00000
     Eigenvalues --- 1000.000001000.00000
 RFO step:  Lambda=-7.88273124D-02 EMin= 8.02933640D-03
 Linear search not attempted -- first point.
 Maximum step size (   0.300) exceeded in Quadratic search.
    -- Step size scaled by   0.705
 Iteration  1 RMS(Cart)=  0.29178259 RMS(Int)=  0.00623069
 Iteration  2 RMS(Cart)=  0.03634289 RMS(Int)=  0.00047879
 Iteration  3 RMS(Cart)=  0.00039764 RMS(Int)=  0.00047192
 Iteration  4 RMS(Cart)=  0.00000028 RMS(Int)=  0.00047192
 Iteration  1 RMS(Cart)=  0.00008025 RMS(Int)=  0.00001409
 Iteration  2 RMS(Cart)=  0.00004547 RMS(Int)=  0.00001573
 Iteration  3 RMS(Cart)=  0.00002577 RMS(Int)=  0.00001784
 Iteration  4 RMS(Cart)=  0.00001460 RMS(Int)=  0.00001930
 Iteration  5 RMS(Cart)=  0.00000827 RMS(Int)=  0.00002019
 Iteration  6 RMS(Cart)=  0.00000469 RMS(Int)=  0.00002071
 Iteration  7 RMS(Cart)=  0.00000266 RMS(Int)=  0.00002101
 Iteration  8 RMS(Cart)=  0.00000151 RMS(Int)=  0.00002118
 Iteration  9 RMS(Cart)=  0.00000085 RMS(Int)=  0.00002128
 Variable       Old X    -DE/DX   Delta X   Delta X   Delta X     New X
                                 (Linear)    (Quad)   (Total)
    R1        2.80935  -0.02257   0.00000  -0.03856  -0.03855   2.77080
    R2        2.64584   0.00032   0.00000   0.00005   0.00007   2.64591
    R3        2.31147   0.03477   0.00000   0.02407   0.02407   2.33554
    R4        2.67311  -0.00199   0.00000  -0.00428  -0.00436   2.66876
    R5        2.59267   0.01958   0.00000   0.02145   0.02150   2.61417
    R6        2.66894   0.00714   0.00000   0.01035   0.01032   2.67926
    R7        2.69164   0.01192   0.00000   0.01910   0.01904   2.71068
    R8        2.81049  -0.02209   0.00000  -0.03701  -0.03702   2.77347
    R9        2.62173   0.02463   0.00000   0.03025   0.03023   2.65196
   R10        2.65570  -0.00051   0.00000  -0.00077  -0.00076   2.65494
   R11        2.30889   0.03595   0.00000   0.02474   0.02474   2.33363
   R12        2.70248  -0.02502   0.00000  -0.03716  -0.03705   2.66543
   R13        2.04786  -0.00191   0.00000  -0.00309  -0.00309   2.04476
   R14        2.70495   0.02304   0.00000   0.03809   0.03805   2.74300
   R15        2.68322   0.01146   0.00000   0.01822   0.01814   2.70136
   R16        2.68655   0.06453   0.00000   0.09248   0.09247   2.77902
   R17        2.81233  -0.00685   0.00000  -0.01058  -0.01046   2.80187
   R18        2.76359   0.02517   0.00000   0.03985   0.03985   2.80345
   R19        2.66221   0.00144   0.00000   0.00078   0.00087   2.66308
   R20        2.31391   0.02468   0.00000   0.01718   0.01718   2.33109
   R21        2.79415  -0.03007   0.00000  -0.05079  -0.05088   2.74327
   R22        2.63842  -0.00859   0.00000  -0.01307  -0.01308   2.62534
   R23        2.31456   0.03549   0.00000   0.02474   0.02474   2.33930
   R24        2.62448   0.02801   0.00000   0.03546   0.03547   2.65996
   R25        2.64561  -0.02889   0.00000  -0.03925  -0.03925   2.60637
   R26        2.04921  -0.00081   0.00000  -0.00132  -0.00132   2.04789
   R27        2.04741  -0.00030   0.00000  -0.00048  -0.00048   2.04693
   R28        2.77259   0.00010   0.00000   0.00016   0.00016   2.77275
   R29        2.77252  -0.00000   0.00000  -0.00001  -0.00001   2.77252
   R30        2.06176  -0.00008   0.00000  -0.00012  -0.00012   2.06164
   R31        2.06551  -0.00120   0.00000  -0.00200  -0.00200   2.06351
   R32        2.05322  -0.00082   0.00000  -0.00134  -0.00134   2.05189
   R33        2.06368  -0.00068   0.00000  -0.00113  -0.00113   2.06255
   R34        2.06281  -0.00016   0.00000  -0.00027  -0.00027   2.06254
   R35        2.05355  -0.00090   0.00000  -0.00147  -0.00147   2.05208
   R36        2.60992   0.00848   0.00000   0.01099   0.01106   2.62098
   R37        3.33265   0.00895   0.00000   0.01757   0.01762   3.35027
   R38        2.66349   0.00719   0.00000   0.00973   0.00973   2.67322
   R39        2.03743  -0.00938   0.00000  -0.01499  -0.01499   2.02244
   R40        3.30537   0.00348   0.00000   0.00589   0.00583   3.31120
   R41        2.64138  -0.01060   0.00000  -0.01435  -0.01443   2.62695
   R42        2.56926   0.00520   0.00000   0.00603   0.00603   2.57529
   R43        2.71303   0.00469   0.00000   0.00687   0.00687   2.71991
   R44        2.69275   0.00282   0.00000   0.00401   0.00401   2.69676
   R45        2.63259   0.00146   0.00000   0.00193   0.00193   2.63453
   R46        3.33022   0.00158   0.00000   0.00311   0.00311   3.33333
   R47        2.05991  -0.00079   0.00000  -0.00131  -0.00131   2.05860
   R48        2.07302  -0.00188   0.00000  -0.00317  -0.00317   2.06985
   R49        2.07293  -0.00225   0.00000  -0.00378  -0.00378   2.06915
   R50        2.68909   0.00222   0.00000   0.00311   0.00311   2.69220
   R51        2.56876   0.00499   0.00000   0.00577   0.00577   2.57453
   R52        3.26264   0.00211   0.00000   0.00361   0.00361   3.26625
   R53        2.58694  -0.00195   0.00000  -0.00240  -0.00240   2.58454
   R54        2.04265  -0.00033   0.00000  -0.00054  -0.00054   2.04211
   R55        2.68971   0.00273   0.00000   0.00386   0.00386   2.69357
   R56        2.04463  -0.00175   0.00000  -0.00282  -0.00282   2.04180
   R57        2.07245  -0.00139   0.00000  -0.00234  -0.00234   2.07011
   R58        2.05861  -0.00058   0.00000  -0.00095  -0.00095   2.05766
   R59        2.07244  -0.00140   0.00000  -0.00235  -0.00235   2.07009
    A1        2.03797  -0.00094   0.00000  -0.00323  -0.00324   2.03473
    A2        2.14521   0.00592   0.00000   0.01331   0.01331   2.15852
    A3        2.10001  -0.00499   0.00000  -0.01008  -0.01008   2.08993
    A4        2.10395   0.00162   0.00000   0.00545   0.00543   2.10937
    A5        2.08282  -0.00343   0.00000  -0.00464  -0.00465   2.07817
    A6        2.09624   0.00179   0.00000  -0.00101  -0.00102   2.09521
    A7        2.10093  -0.00161   0.00000  -0.00482  -0.00475   2.09618
    A8        2.07104  -0.00142   0.00000  -0.00491  -0.00500   2.06604
    A9        2.11118   0.00302   0.00000   0.00971   0.00974   2.12091
   A10        2.10296   0.00027   0.00000   0.00162   0.00162   2.10458
   A11        2.09911   0.00269   0.00000   0.00533   0.00526   2.10437
   A12        2.08110  -0.00296   0.00000  -0.00696  -0.00687   2.07423
   A13        2.03739  -0.00158   0.00000  -0.00304  -0.00307   2.03432
   A14        2.12972   0.00699   0.00000   0.01481   0.01482   2.14454
   A15        2.11607  -0.00541   0.00000  -0.01177  -0.01175   2.10432
   A16        2.15098   0.01613   0.00000   0.03368   0.03382   2.18480
   A17        2.04399  -0.00894   0.00000  -0.01975  -0.01979   2.02420
   A18        2.08722  -0.00730   0.00000  -0.01469  -0.01489   2.07234
   A19        2.11101   0.00434   0.00000   0.01019   0.01019   2.12120
   A20        2.04385  -0.01258   0.00000  -0.02854  -0.02842   2.01542
   A21        2.12832   0.00824   0.00000   0.01834   0.01822   2.14655
   A22        2.08678  -0.01095   0.00000  -0.01904  -0.01917   2.06762
   A23        2.04738  -0.02341   0.00000  -0.04817  -0.04800   1.99938
   A24        2.14662   0.03421   0.00000   0.06593   0.06578   2.21239
[...]
 Alpha  occ. eigenvalues --   -0.40228  -0.40059  -0.39090  -0.38458  -0.38311
 Alpha  occ. eigenvalues --   -0.38214  -0.37745  -0.37515  -0.37116  -0.36920
 Alpha  occ. eigenvalues --   -0.36279  -0.36048  -0.35200  -0.34847  -0.34471
 Alpha  occ. eigenvalues --   -0.33473  -0.32949  -0.32853  -0.32636  -0.31447
 Alpha  occ. eigenvalues --   -0.30344  -0.27997  -0.26742  -0.26544  -0.25885
 Alpha  occ. eigenvalues --   -0.25740  -0.25030  -0.24689  -0.24404  -0.23968
 Alpha  occ. eigenvalues --   -0.23595  -0.22899  -0.20957  -0.17950  -0.13262
 Alpha virt. eigenvalues --   -0.05288  -0.03401  -0.01425  -0.00494  -0.00057
 Alpha virt. eigenvalues --    0.00630   0.00808   0.01033   0.01673   0.01907
 Alpha virt. eigenvalues --    0.02138   0.02542   0.02931   0.03161   0.03229
 Alpha virt. eigenvalues --    0.03307   0.03777   0.04087   0.04210   0.04354
 Alpha virt. eigenvalues --    0.04533   0.04826   0.04999   0.05228   0.05286
 Alpha virt. eigenvalues --    0.05569   0.05835   0.06080   0.06539   0.06885
 Alpha virt. eigenvalues --    0.07034   0.07146   0.07531   0.07787   0.07902
 Alpha virt. eigenvalues --    0.08115   0.08353   0.08679   0.08967   0.09128
 Alpha virt. eigenvalues --    0.09507   0.09714   0.09849   0.10107   0.10410
 Alpha virt. eigenvalues --    0.10816   0.11013   0.11238   0.11443   0.11625
 Alpha virt. eigenvalues --    0.12217   0.12228   0.12390   0.12725   0.13121
 Alpha virt. eigenvalues --    0.13290   0.13614   0.14239   0.14356   0.14467
 Alpha virt. eigenvalues --    0.14583   0.14758   0.15024   0.15398   0.15523
 Alpha virt. eigenvalues --    0.15736   0.15744   0.16257   0.16371   0.16602
 Alpha virt. eigenvalues --    0.16951   0.17048   0.17225   0.17351   0.17838
 Alpha virt. eigenvalues --    0.17903   0.18330   0.18544   0.18836   0.19060
 Alpha virt. eigenvalues --    0.19122   0.19266   0.19500   0.19782   0.19873
 Alpha virt. eigenvalues --    0.20084   0.20215   0.20513   0.20751   0.20994
 Alpha virt. eigenvalues --    0.21090   0.21369   0.21493   0.21741   0.21909
 Alpha virt. eigenvalues --    0.22057   0.22190   0.22361   0.22821   0.22856
 Alpha virt. eigenvalues --    0.23230   0.23451   0.23696   0.23875   0.24103
 Alpha virt. eigenvalues --    0.24438   0.24559   0.24716   0.24840   0.25032
 Alpha virt. eigenvalues --    0.25241   0.25542   0.25793   0.25948   0.26026
 Alpha virt. eigenvalues --    0.26196   0.26245   0.26511   0.26777   0.26810
 Alpha virt. eigenvalues --    0.27086   0.27225   0.27606   0.27879   0.28080
 Alpha virt. eigenvalues --    0.28187   0.28459   0.28577   0.28693   0.28772
 Alpha virt. eigenvalues --    0.28967   0.29309   0.29443   0.29539   0.29794
 Alpha virt. eigenvalues --    0.29916   0.30218   0.30314   0.30376   0.30782
 Alpha virt. eigenvalues --    0.31186   0.31456   0.31670   0.31846   0.32115
 Alpha virt. eigenvalues --    0.32162   0.32232   0.32908   0.33050   0.33239
 Alpha virt. eigenvalues --    0.33404   0.34054   0.34510   0.34614   0.34655
 Alpha virt. eigenvalues --    0.34792   0.35025   0.35238   0.35428   0.35733
 Alpha virt. eigenvalues --    0.36080   0.36407   0.36718   0.37391   0.37978
 Alpha virt. eigenvalues --    0.38037   0.38341   0.38565   0.39198   0.39470
 Alpha virt. eigenvalues --    0.39764   0.40225   0.40420   0.40904   0.41146
 Alpha virt. eigenvalues --    0.41564   0.41628   0.42537   0.43078   0.43519
 Alpha virt. eigenvalues --    0.43646   0.43861   0.44138   0.44594   0.44943
 Alpha virt. eigenvalues --    0.45067   0.45512   0.45747   0.46267   0.46495
 Alpha virt. eigenvalues --    0.47238   0.47349   0.47875   0.48166   0.48739
 Alpha virt. eigenvalues --    0.49751   0.50050   0.50172   0.50781   0.51211
 Alpha virt. eigenvalues --    0.51611   0.51830   0.52162   0.52667   0.53129
 Alpha virt. eigenvalues --    0.53859   0.54373   0.54705   0.55329   0.55840
 Alpha virt. eigenvalues --    0.56439   0.56657   0.57389   0.57566   0.57911
 Alpha virt. eigenvalues --    0.58017   0.58196   0.58678   0.58856   0.59255
 Alpha virt. eigenvalues --    0.59684   0.59861   0.60587   0.61436   0.61775
 Alpha virt. eigenvalues --    0.62086   0.62336   0.62727   0.63228   0.63851
 Alpha virt. eigenvalues --    0.64029   0.64384   0.64628   0.65257   0.65708
 Alpha virt. eigenvalues --    0.65924   0.66321   0.66915   0.67302   0.67563
 Alpha virt. eigenvalues --    0.67793   0.67996   0.68212   0.68781   0.69131
 Alpha virt. eigenvalues --    0.69245   0.70001   0.70437   0.70716   0.71404
 Alpha virt. eigenvalues --    0.71562   0.71969   0.72283   0.72773   0.73055
 Alpha virt. eigenvalues --    0.73393   0.73721   0.74230   0.74833   0.75015
 Alpha virt. eigenvalues --    0.75343   0.75431   0.75588   0.76214   0.76353
 Alpha virt. eigenvalues --    0.76580   0.76954   0.77080   0.77673   0.77971
 Alpha virt. eigenvalues --    0.78190   0.78395   0.78863   0.79173   0.79340
 Alpha virt. eigenvalues --    0.80011   0.80272   0.80683   0.81207   0.82125
 Alpha virt. eigenvalues --    0.82681   0.83005   0.83322   0.84197   0.84810
 Alpha virt. eigenvalues --    0.85433   0.85994   0.86210   0.87081   0.88040
 Alpha virt. eigenvalues --    0.89114   0.89379   0.89967   0.90395   0.90716
 Alpha virt. eigenvalues --    0.91815   0.91946   0.92741   0.93173   0.93741
 Alpha virt. eigenvalues --    0.93857   0.94554   0.95413   0.95479   0.96093
 Alpha virt. eigenvalues --    0.96559   0.96752   0.96974   0.97386   0.97823
 Alpha virt. eigenvalues --    0.98659   0.98988   0.99328   0.99643   1.00138
 Alpha virt. eigenvalues --    1.01133   1.01274   1.02125   1.02450   1.02678
 Alpha virt. eigenvalues --    1.03193   1.03779   1.04466   1.04745   1.05177
 Alpha virt. eigenvalues --    1.05610   1.05705   1.06054   1.06590   1.06876
 Alpha virt. eigenvalues --    1.07333   1.07618   1.07762   1.08183   1.08642
 Alpha virt. eigenvalues --    1.09497   1.10154   1.10479   1.10590   1.11254
 Alpha virt. eigenvalues --    1.11543   1.11916   1.12558   1.14350   1.14964
 Alpha virt. eigenvalues --    1.15021   1.15522   1.16590   1.17284   1.17920
 Alpha virt. eigenvalues --    1.18038   1.18789   1.19505   1.21126   1.21532
 Alpha virt. eigenvalues --    1.21655   1.22381   1.23461   1.24256   1.24897
 Alpha virt. eigenvalues --    1.25135   1.25761   1.26306   1.27211   1.27401
 Alpha virt. eigenvalues --    1.28527   1.28794   1.29928   1.30312   1.31012
 Alpha virt. eigenvalues --    1.31521   1.32427   1.33066   1.33089   1.33345
 Alpha virt. eigenvalues --    1.34810   1.35346   1.35909   1.36163   1.37247
 Alpha virt. eigenvalues --    1.38500   1.39021   1.39929   1.40611   1.41099
 Alpha virt. eigenvalues --    1.43238   1.43664   1.43861   1.44259   1.44655
 Alpha virt. eigenvalues --    1.45488   1.45971   1.46115   1.46894   1.47153
 Alpha virt. eigenvalues --    1.48255   1.48720   1.49149   1.49567   1.50233
 Alpha virt. eigenvalues --    1.50340   1.51484   1.52147   1.52855   1.53612
 Alpha virt. eigenvalues --    1.54217   1.54660   1.54855   1.55469   1.55579
 Alpha virt. eigenvalues --    1.56077   1.56416   1.56954   1.57365   1.57630
 Alpha virt. eigenvalues --    1.58070   1.58814   1.59092   1.60223   1.61145
 Alpha virt. eigenvalues --    1.61593   1.62567   1.63105   1.63440   1.63863
 Alpha virt. eigenvalues --    1.64102   1.64890   1.65129   1.66601   1.67300
 Alpha virt. eigenvalues --    1.67637   1.68185   1.69096   1.70041   1.70473
 Alpha virt. eigenvalues --    1.70759   1.71158   1.71790   1.72571   1.73286
 Alpha virt. eigenvalues --    1.74228   1.74536   1.75421   1.75626   1.75828
 Alpha virt. eigenvalues --    1.76740   1.77190   1.77365   1.78111   1.78761
 Alpha virt. eigenvalues --    1.79731   1.80095   1.80256   1.80792   1.81281
 Alpha virt. eigenvalues --    1.82220   1.82674   1.83424   1.84517   1.85690
 Alpha virt. eigenvalues --    1.86334   1.86602   1.87596   1.88539   1.88978
 Alpha virt. eigenvalues --    1.89873   1.90812   1.91435   1.92013   1.92501
 Alpha virt. eigenvalues --    1.92881   1.93569   1.94128   1.94668   1.95210
 Alpha virt. eigenvalues --    1.95231   1.97328   1.97655   1.99112   1.99508
 Alpha virt. eigenvalues --    2.00174   2.00886   2.01592   2.02352   2.02591
 Alpha virt. eigenvalues --    2.03063   2.03228   2.04092   2.04598   2.05432
 Alpha virt. eigenvalues --    2.05972   2.06508   2.07089   2.07932   2.08287
 Alpha virt. eigenvalues --    2.08659   2.09243   2.09441   2.10450   2.11003
 Alpha virt. eigenvalues --    2.11725   2.12415   2.12726   2.13352   2.14459
 Alpha virt. eigenvalues --    2.15184   2.16593   2.16811   2.17566   2.19026
 Alpha virt. eigenvalues --    2.20167   2.20426   2.21653   2.22063   2.22263
 Alpha virt. eigenvalues --    2.22898   2.23585   2.24495   2.25064   2.26185
 Alpha virt. eigenvalues --    2.27183   2.30468   2.31511   2.32922   2.34961
 Alpha virt. eigenvalues --    2.36353   2.37436   2.39359   2.40608   2.41528
 Alpha virt. eigenvalues --    2.42806   2.43244   2.44086   2.44644   2.44893
 Alpha virt. eigenvalues --    2.45377   2.46706   2.47576   2.48039   2.49447
 Alpha virt. eigenvalues --    2.50096   2.50569   2.50987   2.51868   2.53010
 Alpha virt. eigenvalues --    2.53187   2.54068   2.54277   2.54782   2.55214
 Alpha virt. eigenvalues --    2.55882   2.57178   2.57795   2.58104   2.59622
 Alpha virt. eigenvalues --    2.61250   2.61610   2.62549   2.63491   2.64975
 Alpha virt. eigenvalues --    2.65621   2.67038   2.67854   2.68580   2.68879
 Alpha virt. eigenvalues --    2.69293   2.70116   2.70597   2.71856   2.72247
 Alpha virt. eigenvalues --    2.72653   2.73930   2.74872   2.75040   2.75423
 Alpha virt. eigenvalues --    2.75877   2.76592   2.77194   2.78605   2.79524
 Alpha virt. eigenvalues --    2.80265   2.81744   2.82397   2.83725   2.84107
 Alpha virt. eigenvalues --    2.84392   2.84692   2.86247   2.86406   2.87052
 Alpha virt. eigenvalues --    2.87731   2.88723   2.89259   2.90892   2.91163
 Alpha virt. eigenvalues --    2.91767   2.92676   2.93769   2.94023   2.94780
 Alpha virt. eigenvalues --    2.96162   2.96264   2.96664   2.97440   2.98604
 Alpha virt. eigenvalues --    2.98869   3.00058   3.00606   3.01643   3.03193
 Alpha virt. eigenvalues --    3.04203   3.05215   3.06559   3.08505   3.09511
 Alpha virt. eigenvalues --    3.10503   3.11096   3.12759   3.13675   3.15116
 Alpha virt. eigenvalues --    3.16230   3.17670   3.18602   3.19654   3.21073
 Alpha virt. eigenvalues --    3.22118   3.22414   3.23308   3.23583   3.23914
 Alpha virt. eigenvalues --    3.24273   3.25934   3.26996   3.30823   3.31445
 Alpha virt. eigenvalues --    3.32069   3.32973   3.33640   3.35399   3.35954
 Alpha virt. eigenvalues --    3.36126   3.37341   3.38229   3.39850   3.41250
 Alpha virt. eigenvalues --    3.41467   3.42332   3.42915   3.43630   3.45124
 Alpha virt. eigenvalues --    3.46052   3.48415   3.50202   3.52258   3.52779
 Alpha virt. eigenvalues --    3.54844   3.56324   3.60331   3.61809   3.63124
 Alpha virt. eigenvalues --    3.63876   3.67018   3.68389   3.69720   3.72584
 Alpha virt. eigenvalues --    3.73043   3.74948   3.76794   3.77402   3.78060
 Alpha virt. eigenvalues --    3.78468   3.82888   3.84825   3.85720   3.87814
 Alpha virt. eigenvalues --    3.88695   3.93207   3.95172   3.96329   3.97098
 Alpha virt. eigenvalues --    3.98701   4.00801   4.03949   4.06287   4.07916
 Alpha virt. eigenvalues --    4.08930   4.11089   4.15091   4.16311   4.21686
 Alpha virt. eigenvalues --    4.25959   4.29704   4.31672   4.40445   4.44640
 Alpha virt. eigenvalues --    4.45386   4.54075   4.70723   4.84624   4.87139
 Alpha virt. eigenvalues --    4.90988   4.93885   5.02365   5.03481   5.08309
 Alpha virt. eigenvalues --    5.10005   5.10629   5.15427   5.17114   5.17749
 Alpha virt. eigenvalues --    5.28141   5.29721   5.30636   5.33032   5.42472
 Alpha virt. eigenvalues --    5.43571   5.76408   5.78449   5.80531   5.82179
 Alpha virt. eigenvalues --    5.84936   5.85896   8.02671   8.05323  17.29769
 Alpha virt. eigenvalues --   17.33246  17.50354  17.52974  17.59170  17.64365
 Alpha virt. eigenvalues --   23.52536  23.59259  23.72558  23.81629  23.84018
 Alpha virt. eigenvalues --   23.85679  23.88645  23.90579  23.91940  23.92210
 Alpha virt. eigenvalues --   23.92889  23.93452  23.94948  23.95504  23.97346
 Alpha virt. eigenvalues --   23.97977  23.99780  24.03241  24.04214  24.04636
 Alpha virt. eigenvalues --   24.05671  24.06498  24.13942  24.16049  24.16391
 Alpha virt. eigenvalues --   24.22529  35.58890  35.61387  49.96998  49.98564
 Alpha virt. eigenvalues --   50.05557  50.07147  50.08888  50.09839 189.19978
 Alpha virt. eigenvalues --  189.23259
          Condensed to atoms (all electrons):
 Mulliken charges:
               1
     1  C    0.225646
     2  C   -0.107334
     3  C    0.176838
     4  C    0.201178
     5  C    0.185172
     6  C    0.016288
     7  C    0.263155
     8  C    0.421714
     9  C    0.030581
    10  C   -0.851997
    11  C    0.241605
    12  C    0.109174
    13  C   -0.523884
    14  C   -0.616168
    15  H    0.123765
    16  H    0.124609
    17  H    0.129974
    18  N   -0.028613
    19  N   -0.151007
    20  O   -0.523867
    21  O   -0.498922
    22  O   -0.518278
    23  O   -0.455842
    24  C   -0.175480
    25  H    0.162335
    26  H    0.162841
    27  H    0.166146
    28  C   -0.198399
    29  H    0.161403
    30  H    0.160331
    31  H    0.167652
    32  C   -0.362411
    33  C   -0.342699
    34  S   -0.623844
    35  C   -0.234889
    36  H    0.155752
    37  C    0.649821
    38  O   -0.168689
    39  C    0.855708
    40  C   -0.236204
    41  C    0.036488
    42  S   -0.223201
    43  H    0.172318
    44  H    0.158359
    45  H    0.158974
    46  C   -0.623792
    47  O   -0.167243
    48  C   -0.358343
    49  H    0.156749
    50  C   -0.249287
    51  H    0.183834
    52  H    0.155076
    53  H    0.171114
    54  H    0.155794
 Sum of Mulliken charges =  -2.00000
 Mulliken charges with hydrogens summed into heavy atoms:
               1
     1  C    0.225646
     2  C   -0.107334
     3  C    0.176838
     4  C    0.201178
     5  C    0.185172
     6  C    0.146262
     7  C    0.263155
     8  C    0.421714
     9  C    0.030581
    10  C   -0.851997
    11  C    0.241605
    12  C    0.109174
    13  C   -0.399275
    14  C   -0.492403
    18  N   -0.028613
    19  N   -0.151007
    20  O   -0.523867
    21  O   -0.498922
    22  O   -0.518278
    23  O   -0.455842
    24  C    0.315842
    28  C    0.290987
    32  C   -0.362411
    33  C   -0.186947
    34  S   -0.623844
    35  C   -0.234889
    37  C    0.649821
    38  O   -0.168689
    39  C    0.855708
    40  C    0.253447
    41  C    0.036488
    42  S   -0.223201
    46  C   -0.467044
    47  O   -0.167243
    48  C   -0.174509
    50  C    0.232697
 Electronic spatial extent (au):  <R**2>=          22801.4612
 Charge=             -2.0000 electrons
 Dipole moment (field-independent basis, Debye):
    X=             26.4098    Y=             -0.8076    Z=             -1.8819  Tot=             26.4891
 Quadrupole moment (field-independent basis, Debye-Ang):
   XX=           -374.0978   YY=           -287.7023   ZZ=           -237.3485
   XY=            -10.3152   XZ=             -7.0868   YZ=            -17.2084
 Traceless Quadrupole moment (field-independent basis, Debye-Ang):
   XX=            -74.3816   YY=             12.0139   ZZ=             62.3677
   XY=            -10.3152   XZ=             -7.0868   YZ=            -17.2084
 Octapole moment (field-independent basis, Debye-Ang**2):
  XXX=           1016.8871  YYY=            -24.7895  ZZZ=             -2.9166  XYY=            369.1043
  XXY=            -86.0426  XXZ=             77.8344  XZZ=             21.5908  YZZ=             -9.6636
  YYZ=            -14.5589  XYZ=            -20.4320
 Hexadecapole moment (field-independent basis, Debye-Ang**3):
 XXXX=         -26233.4172 YYYY=          -8957.8556 ZZZZ=           -792.6027 XXXY=          -1053.7308
 XXXZ=           -294.7532 YYYX=            289.9257 YYYZ=           -181.3350 ZZZX=             -5.5730
 ZZZY=            -48.2156 XXYY=          -6071.1508 XXZZ=          -4053.9737 YYZZ=          -1505.2712
 XXYZ=           -329.4511 YYXZ=            -29.1795 ZZXY=             -2.1347
 N-N= 4.075886193129D+03 E-N=-1.375348487219D+04  KE= 2.352167441421D+03
 Unable to Open any file for archive entry.
 1\1\GINC-CX3-6-27\FOpt\RB3LYP\6-311+G(d,p)\C26H18N2O6S2(2-)\NS5018\28-
 Oct-2021\0\\# opt=modredundant b3lyp/6-311+g(d,p) scrf=(pcm, solvent=w
 ater)\\NDI_-15.pdb\\-2,1\C,-2.7350881753,-2.9829744082,-0.4220826604\C
 ,-2.3623763312,-1.6189938187,-0.1790272444\C,-3.3539798519,-0.60568264
 75,-0.1315400123\C,-4.7197123146,-0.9135227808,-0.324082166\C,-5.12702
 00588,-2.271743119,-0.5741135789\C,-0.9913359851,-1.2646943489,-0.1009
 976717\C,-2.9436141269,0.7527493069,0.1437483161\C,-1.565629046,1.0587
 598243,0.3619875403\C,-0.5520951816,0.021930948,0.1310020799\C,-1.2584
 479273,2.3270128983,0.9626490006\C,-3.6151522079,3.0929910292,0.596200
 0344\C,-3.9557697723,1.7443178525,0.2428628622\C,-5.3298423581,1.40499
 88703,0.0243287515\C,-5.7041612091,0.1235200396,-0.2527466969\H,-6.743
 2559045,-0.1380540693,-0.4084069188\H,-6.0644664947,2.1972039276,0.100
 3039838\H,-0.2803668459,-2.0485131129,-0.3313008366\N,-2.2765093709,3.
 311108066,0.9383032589\N,-4.1048133846,-3.2392400943,-0.6061039408\O,-
 1.9309751329,-3.9426403127,-0.4843873953\O,-6.3167034013,-2.6198970743
 ,-0.7539339581\O,-4.4374961781,4.0406086061,0.6442912698\O,-0.18015535
 88,2.6347244837,1.5201101438\C,-1.90284919,4.6401026252,1.4267733642\H
 ,-1.8477878585,4.656301664,2.5190763991\H,-0.9240648756,4.908472889,1.
 0339227277\H,-2.659302511,5.3456367446,1.0973960608\C,-4.4728490378,-4
 .635317576,-0.8540933494\H,-3.9675173749,-5.0050863192,-1.7477094793\H
 ,-4.1727478995,-5.2603860747,-0.0112412629\H,-5.5487243753,-4.68002287
 94,-0.9872468885\C,0.8593794612,0.3100844383,-0.1386051205\C,1.4719076
 723,1.4891628999,-0.5017887927\S,2.0705281127,-0.9657902722,0.01298332
 08\C,2.8692095055,1.3675510569,-0.7119814167\H,0.9303520564,2.41194520
 14,-0.6202947242\C,3.3887838854,0.1021530629,-0.4827319561\O,3.7048038
 076,2.37253123,-1.1081006105\C,4.7517840573,-0.3464918826,-0.612880067
 5\C,3.1328130752,3.6552340125,-1.3776173697\C,5.2759828927,-1.61236710
 05,-0.3778351968\S,6.0560983646,0.7250415428,-1.1300955668\H,3.9607798
 092,4.2925089188,-1.6827338289\H,2.3995367225,3.5959032302,-2.18681376
 37\H,2.6618565922,4.0717851075,-0.4830574854\C,6.6786143915,-1.7209625
 897,-0.606552098\O,4.4526199781,-2.6194942596,0.0376071399\C,7.2322448
 991,-0.5409030185,-1.0151153597\H,7.2490314164,-2.628866904,-0.4734021
 97\C,5.034136255,-3.9054528687,0.2640227037\H,8.2644582567,-0.33665785
 24,-1.2546221294\H,5.7910599194,-3.8620152876,1.0526021103\H,4.2172153
 389,-4.5509600675,0.5808624335\H,5.4786132704,-4.3036097377,-0.6527917
 573\\Version=ES64L-G16RevC.01\State=1-A\HF=-2359.6229916\RMSD=2.731e-0
 9\RMSF=1.049e-03\Dipole=10.3219619,-0.3462345,-1.3953625\Quadrupole=-5
 5.8494776,12.4976281,43.3518495,-7.2477709,-0.3487753,-16.2561592\PG=C
 01 [X(C26H18N2O6S2)]\\@
 The archive entry for this job was punched.


 THERE IS AN OLD, OLD RECIPE IN MAINE FOR STEWING COOT. PLACE THE
 BIRD IN A KETTLE OF WATER WITH A RED BUILDING BRICK FREE OF MORTAR AND
 BLEMISHES. PARBOIL THE COOT AND BRICK TOGETHER FOR THREE HOURS.
 POUR OFF THE WATER, REFILL THE KETTLE, AND AGAIN PARBOIL FOR THREE HOURS.
 ONCE AGAIN POUR OFF THE WATER, FOR THE LAST TIME ADD FRESH WATER,
 AND LET THE COOT AND BRICK SIMMER TOGETHER OVERNIGHT. IN THE MORNING,
 THROW AWAY THE COOT AND EAT THE BRICK.
 Job cpu time:       3 days 11 hours 51 minutes 16.3 seconds.
 Elapsed time:       0 days  5 hours 18 minutes 29.5 seconds.
 File lengths (MBytes):  RWF=    793 Int=      0 D2E=      0 Chk=     65 Scr=      1
 Normal termination of Gaussian 16 at Thu Oct 28 13:17:11 2021.
