 Entering Gaussian System, Link 0=g16
 Input=NDI_35.gjf
 Output=NDI_35.log
 Initial command:
 /apps/gaussian/g16-c01-avx/g16/l1.exe "/tmp/pbs.4768676[210].pbs/Gau-18133.inp" -scrdir="/tmp/pbs.4768676[210].pbs/"
 Entering Link 1 = /apps/gaussian/g16-c01-avx/g16/l1.exe PID=     18173.
  
 Copyright (c) 1988-2019, Gaussian, Inc.  All Rights Reserved.
  
 This is part of the Gaussian(R) 16 program.  It is based on
 the Gaussian(R) 09 system (copyright 2009, Gaussian, Inc.),
 the Gaussian(R) 03 system (copyright 2003, Gaussian, Inc.),
 the Gaussian(R) 98 system (copyright 1998, Gaussian, Inc.),
 the Gaussian(R) 94 system (copyright 1995, Gaussian, Inc.),
 the Gaussian 92(TM) system (copyright 1992, Gaussian, Inc.),
 the Gaussian 90(TM) system (copyright 1990, Gaussian, Inc.),
 the Gaussian 88(TM) system (copyright 1988, Gaussian, Inc.),
 the Gaussian 86(TM) system (copyright 1986, Carnegie Mellon
 University), and the Gaussian 82(TM) system (copyright 1983,
 Carnegie Mellon University). Gaussian is a federally registered
 trademark of Gaussian, Inc.
  
 This software contains proprietary and confidential information,
 including trade secrets, belonging to Gaussian, Inc.
  
 This software is provided under written license and may be
 used, copied, transmitted, or stored only in accord with that
 written license.
  
 The following legend is applicable only to US Government
 contracts under FAR:
  
                    RESTRICTED RIGHTS LEGEND
  
 Use, reproduction and disclosure by the US Government is
 subject to restrictions as set forth in subparagraphs (a)
 and (c) of the Commercial Computer Software - Restricted
 Rights clause in FAR 52.227-19.
  
 Gaussian, Inc.
 340 Quinnipiac St., Bldg. 40, Wallingford CT 06492
  
  
 ---------------------------------------------------------------
 Warning -- This program may not be used in any manner that
 competes with the business of Gaussian, Inc. or will provide
 assistance to any competitor of Gaussian, Inc.  The licensee
 of this program is prohibited from giving any competitor of
 Gaussian, Inc. access to this program.  By using this program,
 the user acknowledges that Gaussian, Inc. is engaged in the
 business of creating and licensing software in the field of
 computational chemistry and represents and warrants to the
 licensee that it is not a competitor of Gaussian, Inc. and that
 it will not use this program in any manner prohibited above.
 ---------------------------------------------------------------
  

 Cite this work as:
 Gaussian 16, Revision C.01,
 M. J. Frisch, G. W. Trucks, H. B. Schlegel, G. E. Scuseria, 
 M. A. Robb, J. R. Cheeseman, G. Scalmani, V. Barone, 
 G. A. Petersson, H. Nakatsuji, X. Li, M. Caricato, A. V. Marenich, 
 J. Bloino, B. G. Janesko, R. Gomperts, B. Mennucci, H. P. Hratchian, 
 J. V. Ortiz, A. F. Izmaylov, J. L. Sonnenberg, D. Williams-Young, 
 F. Ding, F. Lipparini, F. Egidi, J. Goings, B. Peng, A. Petrone, 
 T. Henderson, D. Ranasinghe, V. G. Zakrzewski, J. Gao, N. Rega, 
 G. Zheng, W. Liang, M. Hada, M. Ehara, K. Toyota, R. Fukuda, 
 J. Hasegawa, M. Ishida, T. Nakajima, Y. Honda, O. Kitao, H. Nakai, 
 T. Vreven, K. Throssell, J. A. Montgomery, Jr., J. E. Peralta, 
 F. Ogliaro, M. J. Bearpark, J. J. Heyd, E. N. Brothers, K. N. Kudin, 
 V. N. Staroverov, T. A. Keith, R. Kobayashi, J. Normand, 
 K. Raghavachari, A. P. Rendell, J. C. Burant, S. S. Iyengar, 
 J. Tomasi, M. Cossi, J. M. Millam, M. Klene, C. Adamo, R. Cammi, 
 J. W. Ochterski, R. L. Martin, K. Morokuma, O. Farkas, 
 J. B. Foresman, and D. J. Fox, Gaussian, Inc., Wallingford CT, 2019.
 
 ******************************************
 Gaussian 16:  ES64L-G16RevC.01  3-Jul-2019
                28-Oct-2021 
 ******************************************
 %mem=100GB
 %nprocshared=16
 Will use up to   16 processors via shared memory.
 ---------------------------------------------------------------
 # opt=modredundant b3lyp/6-311+g(d,p) scrf=(pcm, solvent=water)
 ---------------------------------------------------------------
 1/18=120,19=15,26=3,38=1/1,3;
 2/9=110,12=2,17=6,18=5,40=1/2;
 3/5=4,6=6,7=111,11=2,25=1,30=1,70=2201,71=1,72=1,74=-5/1,2,3;
 4//1;
 5/5=2,38=5,53=1/2;
 6/7=2,8=2,9=2,10=2,28=1/1;
 7//1,2,3,16;
 1/18=20,19=15,26=3/3(2);
 2/9=110/2;
 99//99;
 2/9=110/2;
 3/5=4,6=6,7=111,11=2,25=1,30=1,70=2205,71=1,72=1,74=-5/1,2,3;
 4/5=5,16=3,69=1/1;
 5/5=2,38=5,53=1/2;
 7//1,2,3,16;
 1/18=20,19=15,26=3/3(-5);
 2/9=110/2;
 6/7=2,8=2,9=2,10=2,19=2,28=1/1;
 99/9=1/99;
 ----------
 NDI_35.pdb
 ----------
 Symbolic Z-matrix:
 Charge = -2 Multiplicity = 1
 C                    -2.563    -2.994    -0.409 
 C                    -2.257    -1.551    -0.224 
 C                    -3.301    -0.607    -0.083 
 C                    -4.65     -1.024    -0.115 
 C                    -4.992    -2.459    -0.304 
 C                    -0.949    -1.137    -0.215 
 C                    -2.962     0.764     0.102 
 C                    -1.595     1.188     0.123 
 C                    -0.561     0.232    -0.072 
 C                    -1.328     2.616     0.446 
 C                    -3.777     3.115     0.508 
 C                    -4.035     1.679     0.268 
 C                    -5.356     1.252     0.23 
 C                    -5.672    -0.098     0.036 
 H                    -6.699    -0.442     0.008 
 H                    -6.133     1.997     0.361 
 H                    -0.19     -1.895    -0.369 
 N                    -2.432     3.476     0.608 
 N                    -3.916    -3.353    -0.438 
 O                    -1.695    -3.847    -0.532 
 O                    -6.149    -2.85     -0.34 
 O                    -4.676     3.938     0.629 
 O                    -0.212     3.097     0.596 
 C                    -2.111     4.875     0.912 
 H                    -1.54      4.931     1.84 
 H                    -1.5       5.299     0.111 
 H                    -3.05      5.414     1.003 
 C                    -4.206    -4.779    -0.625 
 H                    -3.759    -5.126    -1.559 
 H                    -3.775    -5.355     0.196 
 H                    -5.286    -4.897    -0.649 
 C                     0.876     0.482    -0.178 
 C                     1.68      1.413     0.45 
 S                     1.805    -0.402    -1.389 
 C                     3.009     1.417    -0.019 
 H                     1.321     2.064     1.231 
 C                     3.27      0.48     -1.024 
 O                     4.015     2.225     0.409 
 C                     4.524     0.213    -1.67 
 C                     3.752     3.066     1.529 
 C                     4.777    -0.705    -2.688 
 S                     6.017     1.05     -1.254 
 H                     4.695     3.562     1.759 
 H                     2.994     3.821     1.288 
 H                     3.422     2.481     2.395 
 C                     6.133    -0.735    -3.121 
 O                     3.758    -1.467    -3.163 
 C                     6.909     0.159    -2.434 
 H                     6.513    -1.383    -3.899 
 C                     4.04     -2.371    -4.226 
 H                     7.967     0.345    -2.56 
 H                     4.779    -3.124    -3.923 
 H                     3.097    -2.863    -4.461 
 H                     4.405    -1.839    -5.113 
 
 The following ModRedundant input section has been read:
 D       8       9      32      33 F                                           
 

 GradGradGradGradGradGradGradGradGradGradGradGradGradGradGradGradGradGrad
 Berny optimization.
 Initialization pass.
                           ----------------------------
                           !    Initial Parameters    !
                           ! (Angstroms and Degrees)  !
 --------------------------                            --------------------------
 ! Name  Definition              Value          Derivative Info.                !
 --------------------------------------------------------------------------------
 ! R1    R(1,2)                  1.4866         estimate D2E/DX2                !
 ! R2    R(1,19)                 1.4001         estimate D2E/DX2                !
 ! R3    R(1,20)                 1.2232         estimate D2E/DX2                !
 ! R4    R(2,3)                  1.4146         estimate D2E/DX2                !
 ! R5    R(2,6)                  1.372          estimate D2E/DX2                !
 ! R6    R(3,4)                  1.4123         estimate D2E/DX2                !
 ! R7    R(3,7)                  1.4244         estimate D2E/DX2                !
 ! R8    R(4,5)                  1.4872         estimate D2E/DX2                !
 ! R9    R(4,14)                 1.3874         estimate D2E/DX2                !
 ! R10   R(5,19)                 1.4053         estimate D2E/DX2                !
 ! R11   R(5,21)                 1.2218         estimate D2E/DX2                !
 ! R12   R(6,9)                  1.4301         estimate D2E/DX2                !
 ! R13   R(6,17)                 1.0837         estimate D2E/DX2                !
 ! R14   R(7,8)                  1.4314         estimate D2E/DX2                !
 ! R15   R(7,12)                 1.4199         estimate D2E/DX2                !
 ! R16   R(8,9)                  1.4217         estimate D2E/DX2                !
 ! R17   R(8,10)                 1.4882         estimate D2E/DX2                !
 ! R18   R(9,32)                 1.4624         estimate D2E/DX2                !
 ! R19   R(10,18)                1.4088         estimate D2E/DX2                !
 ! R20   R(10,23)                1.2245         estimate D2E/DX2                !
 ! R21   R(11,12)                1.4786         estimate D2E/DX2                !
 ! R22   R(11,18)                1.3962         estimate D2E/DX2                !
 ! R23   R(11,22)                1.2248         estimate D2E/DX2                !
 ! R24   R(12,13)                1.3888         estimate D2E/DX2                !
 ! R25   R(13,14)                1.4            estimate D2E/DX2                !
 ! R26   R(13,16)                1.0844         estimate D2E/DX2                !
 ! R27   R(14,15)                1.0834         estimate D2E/DX2                !
 ! R28   R(18,24)                1.4672         estimate D2E/DX2                !
 ! R29   R(19,28)                1.4672         estimate D2E/DX2                !
 ! R30   R(24,25)                1.091          estimate D2E/DX2                !
 ! R31   R(24,26)                1.093          estimate D2E/DX2                !
 ! R32   R(24,27)                1.0865         estimate D2E/DX2                !
 ! R33   R(28,29)                1.0921         estimate D2E/DX2                !
 ! R34   R(28,30)                1.0916         estimate D2E/DX2                !
 ! R35   R(28,31)                1.0867         estimate D2E/DX2                !
 ! R36   R(32,33)                1.3811         estimate D2E/DX2                !
 ! R37   R(32,34)                1.7638         estimate D2E/DX2                !
 ! R38   R(33,35)                1.4093         estimate D2E/DX2                !
 ! R39   R(33,36)                1.0783         estimate D2E/DX2                !
 ! R40   R(34,37)                1.7485         estimate D2E/DX2                !
 ! R41   R(35,37)                1.3986         estimate D2E/DX2                !
 ! R42   R(35,38)                1.3594         estimate D2E/DX2                !
 ! R43   R(37,39)                1.4357         estimate D2E/DX2                !
 ! R44   R(38,40)                1.4251         estimate D2E/DX2                !
 ! R45   R(39,41)                1.3939         estimate D2E/DX2                !
 ! R46   R(39,42)                1.7614         estimate D2E/DX2                !
 ! R47   R(40,43)                1.09           estimate D2E/DX2                !
 ! R48   R(40,44)                1.0967         estimate D2E/DX2                !
 ! R49   R(40,45)                1.0959         estimate D2E/DX2                !
 ! R50   R(41,46)                1.4238         estimate D2E/DX2                !
 ! R51   R(41,47)                1.3582         estimate D2E/DX2                !
 ! R52   R(42,48)                1.7268         estimate D2E/DX2                !
 ! R53   R(46,48)                1.3687         estimate D2E/DX2                !
 ! R54   R(46,49)                1.0815         estimate D2E/DX2                !
 ! R55   R(47,50)                1.4236         estimate D2E/DX2                !
 ! R56   R(48,51)                1.0816         estimate D2E/DX2                !
 ! R57   R(50,52)                1.0977         estimate D2E/DX2                !
 ! R58   R(50,53)                1.0893         estimate D2E/DX2                !
 ! R59   R(50,54)                1.0968         estimate D2E/DX2                !
 ! A1    A(2,1,19)             116.767          estimate D2E/DX2                !
 ! A2    A(2,1,20)             122.9113         estimate D2E/DX2                !
 ! A3    A(19,1,20)            120.3217         estimate D2E/DX2                !
 ! A4    A(1,2,3)              120.5473         estimate D2E/DX2                !
 ! A5    A(1,2,6)              119.3369         estimate D2E/DX2                !
 ! A6    A(3,2,6)              120.1056         estimate D2E/DX2                !
 ! A7    A(2,3,4)              120.3743         estimate D2E/DX2                !
 ! A8    A(2,3,7)              118.662          estimate D2E/DX2                !
 ! A9    A(4,3,7)              120.9617         estimate D2E/DX2                !
 ! A10   A(3,4,5)              120.4909         estimate D2E/DX2                !
 ! A11   A(3,4,14)             120.2702         estimate D2E/DX2                !
 ! A12   A(5,4,14)             119.2382         estimate D2E/DX2                !
 ! A13   A(4,5,19)             116.7341         estimate D2E/DX2                !
 ! A14   A(4,5,21)             122.024          estimate D2E/DX2                !
 ! A15   A(19,5,21)            121.2418         estimate D2E/DX2                !
 ! A16   A(2,6,9)              123.2421         estimate D2E/DX2                !
 ! A17   A(2,6,17)             117.1119         estimate D2E/DX2                !
 ! A18   A(9,6,17)             119.589          estimate D2E/DX2                !
 ! A19   A(3,7,8)              120.9519         estimate D2E/DX2                !
 ! A20   A(3,7,12)             117.1037         estimate D2E/DX2                !
 ! A21   A(8,7,12)             121.944          estimate D2E/DX2                !
 ! A22   A(7,8,9)              119.5639         estimate D2E/DX2                !
 ! A23   A(7,8,10)             117.3064         estimate D2E/DX2                !
 ! A24   A(9,8,10)             122.9922         estimate D2E/DX2                !
 ! A25   A(6,9,8)              117.3944         estimate D2E/DX2                !
 ! A26   A(6,9,32)             115.0236         estimate D2E/DX2                !
 ! A27   A(8,9,32)             127.5648         estimate D2E/DX2                !
 ! A28   A(8,10,18)            118.042          estimate D2E/DX2                !
 ! A29   A(8,10,23)            124.5436         estimate D2E/DX2                !
 ! A30   A(18,10,23)           117.4097         estimate D2E/DX2                !
 ! A31   A(12,11,18)           115.5202         estimate D2E/DX2                !
 ! A32   A(12,11,22)           122.7205         estimate D2E/DX2                !
 ! A33   A(18,11,22)           121.7534         estimate D2E/DX2                !
 ! A34   A(7,12,11)            120.8614         estimate D2E/DX2                !
 ! A35   A(7,12,13)            121.162          estimate D2E/DX2                !
 ! A36   A(11,12,13)           117.9699         estimate D2E/DX2                !
 ! A37   A(12,13,14)           120.9948         estimate D2E/DX2                !
 ! A38   A(12,13,16)           117.8401         estimate D2E/DX2                !
 ! A39   A(14,13,16)           121.1642         estimate D2E/DX2                !
 ! A40   A(4,14,13)            119.5003         estimate D2E/DX2                !
 ! A41   A(4,14,15)            118.9169         estimate D2E/DX2                !
 ! A42   A(13,14,15)           121.5811         estimate D2E/DX2                !
 ! A43   A(10,18,11)           126.0753         estimate D2E/DX2                !
 ! A44   A(10,18,24)           115.7508         estimate D2E/DX2                !
 ! A45   A(11,18,24)           118.1737         estimate D2E/DX2                !
 ! A46   A(1,19,5)             125.0856         estimate D2E/DX2                !
 ! A47   A(1,19,28)            116.2868         estimate D2E/DX2                !
 ! A48   A(5,19,28)            118.6276         estimate D2E/DX2                !
 ! A49   A(18,24,25)           109.8574         estimate D2E/DX2                !
 ! A50   A(18,24,26)           109.8979         estimate D2E/DX2                !
 ! A51   A(18,24,27)           107.5355         estimate D2E/DX2                !
 ! A52   A(25,24,26)           108.1108         estimate D2E/DX2                !
 ! A53   A(25,24,27)           110.8301         estimate D2E/DX2                !
 ! A54   A(26,24,27)           110.6124         estimate D2E/DX2                !
 ! A55   A(19,28,29)           109.6906         estimate D2E/DX2                !
 ! A56   A(19,28,30)           109.8136         estimate D2E/DX2                !
 ! A57   A(19,28,31)           107.7461         estimate D2E/DX2                !
 ! A58   A(29,28,30)           108.2991         estimate D2E/DX2                !
 ! A59   A(29,28,31)           110.6959         estimate D2E/DX2                !
 ! A60   A(30,28,31)           110.5924         estimate D2E/DX2                !
 ! A61   A(9,32,33)            130.8649         estimate D2E/DX2                !
 ! A62   A(9,32,34)            118.7919         estimate D2E/DX2                !
 ! A63   A(33,32,34)           110.0854         estimate D2E/DX2                !
 ! A64   A(32,33,35)           113.5496         estimate D2E/DX2                !
 ! A65   A(32,33,36)           122.8542         estimate D2E/DX2                !
 ! A66   A(35,33,36)           123.5931         estimate D2E/DX2                !
 ! A67   A(32,34,37)            92.5885         estimate D2E/DX2                !
 ! A68   A(33,35,37)           114.4061         estimate D2E/DX2                !
 ! A69   A(33,35,38)           126.4944         estimate D2E/DX2                !
 ! A70   A(37,35,38)           119.0995         estimate D2E/DX2                !
 ! A71   A(34,37,35)           109.3649         estimate D2E/DX2                !
 ! A72   A(34,37,39)           122.9624         estimate D2E/DX2                !
 ! A73   A(35,37,39)           127.6567         estimate D2E/DX2                !
 ! A74   A(35,38,40)           117.4919         estimate D2E/DX2                !
 ! A75   A(37,39,41)           127.5625         estimate D2E/DX2                !
 ! A76   A(37,39,42)           123.0732         estimate D2E/DX2                !
 ! A77   A(41,39,42)           109.3643         estimate D2E/DX2                !
 ! A78   A(38,40,43)           105.9447         estimate D2E/DX2                !
 ! A79   A(38,40,44)           111.1698         estimate D2E/DX2                !
 ! A80   A(38,40,45)           111.1976         estimate D2E/DX2                !
 ! A81   A(43,40,44)           109.3329         estimate D2E/DX2                !
 ! A82   A(43,40,45)           109.6732         estimate D2E/DX2                !
 ! A83   A(44,40,45)           109.4518         estimate D2E/DX2                !
 ! A84   A(39,41,46)           114.132          estimate D2E/DX2                !
 ! A85   A(39,41,47)           119.2569         estimate D2E/DX2                !
 ! A86   A(46,41,47)           126.6108         estimate D2E/DX2                !
 ! A87   A(39,42,48)            91.7918         estimate D2E/DX2                !
 ! A88   A(41,46,48)           111.9352         estimate D2E/DX2                !
 ! A89   A(41,46,49)           124.4755         estimate D2E/DX2                !
 ! A90   A(48,46,49)           123.5893         estimate D2E/DX2                !
 ! A91   A(41,47,50)           117.9557         estimate D2E/DX2                !
 ! A92   A(42,48,46)           112.7767         estimate D2E/DX2                !
 ! A93   A(42,48,51)           119.7463         estimate D2E/DX2                !
 ! A94   A(46,48,51)           127.4769         estimate D2E/DX2                !
 ! A95   A(47,50,52)           111.275          estimate D2E/DX2                !
 ! A96   A(47,50,53)           106.0464         estimate D2E/DX2                !
 ! A97   A(47,50,54)           111.2086         estimate D2E/DX2                !
 ! A98   A(52,50,53)           109.4223         estimate D2E/DX2                !
 ! A99   A(52,50,54)           109.3852         estimate D2E/DX2                !
 ! A100  A(53,50,54)           109.4328         estimate D2E/DX2                !
 ! D1    D(19,1,2,3)             0.1578         estimate D2E/DX2                !
 ! D2    D(19,1,2,6)          -178.6792         estimate D2E/DX2                !
 ! D3    D(20,1,2,3)          -179.8231         estimate D2E/DX2                !
 ! D4    D(20,1,2,6)             1.3399         estimate D2E/DX2                !
 ! D5    D(2,1,19,5)            -0.124          estimate D2E/DX2                !
 ! D6    D(2,1,19,28)          179.8267         estimate D2E/DX2                !
 ! D7    D(20,1,19,5)          179.8575         estimate D2E/DX2                !
 ! D8    D(20,1,19,28)          -0.1919         estimate D2E/DX2                !
 ! D9    D(1,2,3,4)              0.0571         estimate D2E/DX2                !
 ! D10   D(1,2,3,7)            179.5453         estimate D2E/DX2                !
 ! D11   D(6,2,3,4)            178.8851         estimate D2E/DX2                !
 ! D12   D(6,2,3,7)             -1.6266         estimate D2E/DX2                !
 ! D13   D(1,2,6,9)            178.625          estimate D2E/DX2                !
 ! D14   D(1,2,6,17)             1.3881         estimate D2E/DX2                !
 ! D15   D(3,2,6,9)             -0.2173         estimate D2E/DX2                !
 ! D16   D(3,2,6,17)          -177.4541         estimate D2E/DX2                !
 ! D17   D(2,3,4,5)             -0.3074         estimate D2E/DX2                !
 ! D18   D(2,3,4,14)           179.3968         estimate D2E/DX2                !
 ! D19   D(7,3,4,5)           -179.7837         estimate D2E/DX2                !
 ! D20   D(7,3,4,14)            -0.0795         estimate D2E/DX2                !
 ! D21   D(2,3,7,8)              1.0523         estimate D2E/DX2                !
 ! D22   D(2,3,7,12)          -178.712          estimate D2E/DX2                !
 ! D23   D(4,3,7,8)           -179.4626         estimate D2E/DX2                !
 ! D24   D(4,3,7,12)             0.7731         estimate D2E/DX2                !
 ! D25   D(3,4,5,19)             0.3343         estimate D2E/DX2                !
 ! D26   D(3,4,5,21)          -179.7799         estimate D2E/DX2                !
 ! D27   D(14,4,5,19)         -179.3729         estimate D2E/DX2                !
 ! D28   D(14,4,5,21)            0.5129         estimate D2E/DX2                !
 ! D29   D(3,4,14,13)           -0.4559         estimate D2E/DX2                !
 ! D30   D(3,4,14,15)         -179.9937         estimate D2E/DX2                !
 ! D31   D(5,4,14,13)          179.252          estimate D2E/DX2                !
 ! D32   D(5,4,14,15)           -0.2858         estimate D2E/DX2                !
 ! D33   D(4,5,19,1)            -0.1141         estimate D2E/DX2                !
 ! D34   D(4,5,19,28)          179.9364         estimate D2E/DX2                !
 ! D35   D(21,5,19,1)          179.9992         estimate D2E/DX2                !
 ! D36   D(21,5,19,28)           0.0496         estimate D2E/DX2                !
 ! D37   D(2,6,9,8)              2.5984         estimate D2E/DX2                !
 ! D38   D(2,6,9,32)          -176.0103         estimate D2E/DX2                !
 ! D39   D(17,6,9,8)           179.77           estimate D2E/DX2                !
 ! D40   D(17,6,9,32)            1.1613         estimate D2E/DX2                !
 ! D41   D(3,7,8,9)              1.3551         estimate D2E/DX2                !
 ! D42   D(3,7,8,10)          -174.5099         estimate D2E/DX2                !
 ! D43   D(12,7,8,9)          -178.8921         estimate D2E/DX2                !
 ! D44   D(12,7,8,10)            5.2428         estimate D2E/DX2                !
 ! D45   D(3,7,12,11)          178.0768         estimate D2E/DX2                !
 ! D46   D(3,7,12,13)           -0.9621         estimate D2E/DX2                !
 ! D47   D(8,7,12,11)           -1.685          estimate D2E/DX2                !
 ! D48   D(8,7,12,13)          179.2761         estimate D2E/DX2                !
 ! D49   D(7,8,9,6)             -3.0809         estimate D2E/DX2                !
 ! D50   D(7,8,9,32)           175.3285         estimate D2E/DX2                !
 ! D51   D(10,8,9,6)           172.5381         estimate D2E/DX2                !
 ! D52   D(10,8,9,32)           -9.0525         estimate D2E/DX2                !
 ! D53   D(7,8,10,18)           -4.7549         estimate D2E/DX2                !
 ! D54   D(7,8,10,23)          174.4235         estimate D2E/DX2                !
 ! D55   D(9,8,10,18)          179.5335         estimate D2E/DX2                !
 ! D56   D(9,8,10,23)           -1.2882         estimate D2E/DX2                !
 ! D57   D(6,9,32,33)         -146.5757         estimate D2E/DX2                !
 ! D58   D(6,9,32,34)           39.8952         estimate D2E/DX2                !
 ! D59   D(8,9,32,33)           34.9827         Frozen                          !
 ! D60   D(8,9,32,34)         -138.5464         estimate D2E/DX2                !
 ! D61   D(8,10,18,11)           0.7189         estimate D2E/DX2                !
 ! D62   D(8,10,18,24)        -179.4089         estimate D2E/DX2                !
 ! D63   D(23,10,18,11)       -178.5188         estimate D2E/DX2                !
 ! D64   D(23,10,18,24)          1.3535         estimate D2E/DX2                !
 ! D65   D(18,11,12,7)          -2.3856         estimate D2E/DX2                !
 ! D66   D(18,11,12,13)        176.6833         estimate D2E/DX2                !
 ! D67   D(22,11,12,7)         178.4862         estimate D2E/DX2                !
 ! D68   D(22,11,12,13)         -2.445          estimate D2E/DX2                !
 ! D69   D(12,11,18,10)          2.8444         estimate D2E/DX2                !
 ! D70   D(12,11,18,24)       -177.0251         estimate D2E/DX2                !
 ! D71   D(22,11,18,10)       -178.0181         estimate D2E/DX2                !
 ! D72   D(22,11,18,24)          2.1124         estimate D2E/DX2                !
 ! D73   D(7,12,13,14)           0.461          estimate D2E/DX2                !
 ! D74   D(7,12,13,16)        -179.8781         estimate D2E/DX2                !
 ! D75   D(11,12,13,14)       -178.6049         estimate D2E/DX2                !
 ! D76   D(11,12,13,16)          1.056          estimate D2E/DX2                !
 ! D77   D(12,13,14,4)           0.2708         estimate D2E/DX2                !
 ! D78   D(12,13,14,15)        179.7958         estimate D2E/DX2                !
 ! D79   D(16,13,14,4)        -179.3788         estimate D2E/DX2                !
 ! D80   D(16,13,14,15)          0.1463         estimate D2E/DX2                !
 ! D81   D(10,18,24,25)        -59.609          estimate D2E/DX2                !
 ! D82   D(10,18,24,26)         59.2209         estimate D2E/DX2                !
 ! D83   D(10,18,24,27)        179.6858         estimate D2E/DX2                !
 ! D84   D(11,18,24,25)        120.2739         estimate D2E/DX2                !
 ! D85   D(11,18,24,26)       -120.8962         estimate D2E/DX2                !
 ! D86   D(11,18,24,27)         -0.4313         estimate D2E/DX2                !
 ! D87   D(1,19,28,29)         -58.1407         estimate D2E/DX2                !
 ! D88   D(1,19,28,30)          60.7668         estimate D2E/DX2                !
 ! D89   D(1,19,28,31)        -178.7139         estimate D2E/DX2                !
 ! D90   D(5,19,28,29)         121.8132         estimate D2E/DX2                !
 ! D91   D(5,19,28,30)        -119.2792         estimate D2E/DX2                !
 ! D92   D(5,19,28,31)           1.2401         estimate D2E/DX2                !
 ! D93   D(9,32,33,35)        -174.2615         estimate D2E/DX2                !
 ! D94   D(9,32,33,36)           6.3538         estimate D2E/DX2                !
 ! D95   D(34,32,33,35)         -0.2979         estimate D2E/DX2                !
 ! D96   D(34,32,33,36)       -179.6827         estimate D2E/DX2                !
 ! D97   D(9,32,34,37)         175.3695         estimate D2E/DX2                !
 ! D98   D(33,32,34,37)          0.5762         estimate D2E/DX2                !
 ! D99   D(32,33,35,37)         -0.245          estimate D2E/DX2                !
 ! D100  D(32,33,35,38)        179.7335         estimate D2E/DX2                !
 ! D101  D(36,33,35,37)        179.1346         estimate D2E/DX2                !
 ! D102  D(36,33,35,38)         -0.8869         estimate D2E/DX2                !
 ! D103  D(32,34,37,35)         -0.6993         estimate D2E/DX2                !
 ! D104  D(32,34,37,39)        177.9449         estimate D2E/DX2                !
 ! D105  D(33,35,37,34)          0.668          estimate D2E/DX2                !
 ! D106  D(33,35,37,39)       -177.8952         estimate D2E/DX2                !
 ! D107  D(38,35,37,34)       -179.3122         estimate D2E/DX2                !
 ! D108  D(38,35,37,39)          2.1246         estimate D2E/DX2                !
 ! D109  D(33,35,38,40)          6.5737         estimate D2E/DX2                !
 ! D110  D(37,35,38,40)       -173.4487         estimate D2E/DX2                !
 ! D111  D(34,37,39,41)          2.8489         estimate D2E/DX2                !
 ! D112  D(34,37,39,42)       -177.1834         estimate D2E/DX2                !
 ! D113  D(35,37,39,41)       -178.7667         estimate D2E/DX2                !
 ! D114  D(35,37,39,42)          1.201          estimate D2E/DX2                !
 ! D115  D(35,38,40,43)        175.4551         estimate D2E/DX2                !
 ! D116  D(35,38,40,44)        -65.8685         estimate D2E/DX2                !
 ! D117  D(35,38,40,45)         56.355          estimate D2E/DX2                !
 ! D118  D(37,39,41,46)        179.9934         estimate D2E/DX2                !
 ! D119  D(37,39,41,47)         -0.1879         estimate D2E/DX2                !
 ! D120  D(42,39,41,46)          0.0222         estimate D2E/DX2                !
 ! D121  D(42,39,41,47)        179.8409         estimate D2E/DX2                !
 ! D122  D(37,39,42,48)       -179.9761         estimate D2E/DX2                !
 ! D123  D(41,39,42,48)         -0.0033         estimate D2E/DX2                !
 ! D124  D(39,41,46,48)         -0.0355         estimate D2E/DX2                !
 ! D125  D(39,41,46,49)        179.9857         estimate D2E/DX2                !
 ! D126  D(47,41,46,48)       -179.8384         estimate D2E/DX2                !
 ! D127  D(47,41,46,49)          0.1827         estimate D2E/DX2                !
 ! D128  D(39,41,47,50)        178.424          estimate D2E/DX2                !
 ! D129  D(46,41,47,50)         -1.7821         estimate D2E/DX2                !
 ! D130  D(39,42,48,46)         -0.0169         estimate D2E/DX2                !
 ! D131  D(39,42,48,51)        179.8877         estimate D2E/DX2                !
 ! D132  D(41,46,48,42)          0.0322         estimate D2E/DX2                !
 ! D133  D(41,46,48,51)       -179.8634         estimate D2E/DX2                !
 ! D134  D(49,46,48,42)       -179.9887         estimate D2E/DX2                !
 ! D135  D(49,46,48,51)          0.1157         estimate D2E/DX2                !
 ! D136  D(41,47,50,52)         61.965          estimate D2E/DX2                !
 ! D137  D(41,47,50,53)       -179.1331         estimate D2E/DX2                !
 ! D138  D(41,47,50,54)        -60.2548         estimate D2E/DX2                !
 --------------------------------------------------------------------------------
 Trust Radius=3.00D-01 FncErr=1.00D-07 GrdErr=1.00D-06 EigMax=2.50D+02 EigMin=1.00D-04
 Number of steps in this run=    307 maximum allowed number of steps=    324.
 GradGradGradGradGradGradGradGradGradGradGradGradGradGradGradGradGradGrad

 Stoichiometry    C26H18N2O6S2(2-)
 Framework group  C1[X(C26H18N2O6S2)]
 Deg. of freedom   156
 Full point group                 C1      NOp   1
 Largest Abelian subgroup         C1      NOp   1
 Largest concise Abelian subgroup C1      NOp   1
                         Standard orientation:                         
 ---------------------------------------------------------------------
 Center     Atomic      Atomic             Coordinates (Angstroms)
 Number     Number       Type             X           Y           Z
 ---------------------------------------------------------------------
      1          6           0       -2.709913   -2.917218    0.692177
      2          6           0       -2.333785   -1.500053    0.446649
      3          6           0       -3.310506   -0.554290    0.056136
      4          6           0       -4.658313   -0.944497   -0.104700
      5          6           0       -5.068364   -2.355149    0.127308
      6          6           0       -1.022136   -1.120081    0.579080
      7          6           0       -2.907555    0.794835   -0.158993
      8          6           0       -1.539545    1.187722   -0.007026
      9          6           0       -0.563574    0.212442    0.335651
     10          6           0       -1.228249    2.637977   -0.128088
     11          6           0       -3.601116    3.151783   -0.724705
     12          6           0       -3.919525    1.722081   -0.522643
     13          6           0       -5.239554    1.320164   -0.680118
     14          6           0       -5.616701   -0.012481   -0.475645
     15          1           0       -6.644152   -0.335742   -0.592670
     16          1           0       -5.968044    2.072801   -0.960752
     17          1           0       -0.308033   -1.892578    0.839206
     18          7           0       -2.274065    3.512428   -0.483425
     19          7           0       -4.057754   -3.251813    0.514128
     20          8           0       -1.902000   -3.769596    1.034071
     21          8           0       -6.225315   -2.724092   -0.007497
     22          8           0       -4.441331    3.975560   -1.064709
     23          8           0       -0.125624    3.130651    0.073920
     24          6           0       -1.908572    4.928443   -0.601644
     25          1           0       -1.516079    5.290564    0.349765
     26          1           0       -1.129601    5.049620   -1.358756
     27          1           0       -2.804179    5.475287   -0.883375
     28          6           0       -4.416534   -4.653818    0.755382
     29          1           0       -3.832719   -5.301421    0.097853
     30          1           0       -4.189841   -4.921138    1.789175
     31          1           0       -5.479357   -4.762636    0.556724
     32          6           0        0.883147    0.397897    0.441994
     33          6           0        1.626282    1.479032    0.873804
     34         16           0        1.949268   -0.853418   -0.197237
     35          6           0        3.015351    1.310949    0.705126
     36          1           0        1.180199    2.359823    1.307230
     37          6           0        3.384864    0.086066    0.140115
     38          8           0        3.983912    2.206591    1.033455
     39          6           0        4.712373   -0.396270   -0.117165
     40          6           0        3.583866    3.380217    1.735890
     41          6           0        5.077901   -1.607616   -0.702047
     42         16           0        6.162548    0.517925    0.287699
     43          1           0        4.503362    3.915800    1.972201
     44          1           0        2.943418    4.015846    1.112615
     45          1           0        3.055910    3.126972    2.662286
     46          6           0        6.484179   -1.795722   -0.820886
     47          8           0        4.108798   -2.475814   -1.091536
     48          6           0        7.186157   -0.729102   -0.328007
     49          1           0        6.950515   -2.672875   -1.248346
     50          6           0        4.512118   -3.689539   -1.716768
     51          1           0        8.260314   -0.607012   -0.294586
     52          1           0        5.122659   -4.302066   -1.040758
     53          1           0        3.593851   -4.223056   -1.959013
     54          1           0        5.074188   -3.493607   -2.638020
 ---------------------------------------------------------------------
 Rotational constants (GHZ):           0.1526804           0.0592490           0.0446945
 Standard basis: 6-311+G(d,p) (5D, 7F)
 There are   952 symmetry adapted cartesian basis functions of A   symmetry.
 There are   916 symmetry adapted basis functions of A   symmetry.
   916 basis functions,  1468 primitive gaussians,   952 cartesian basis functions
   135 alpha electrons      135 beta electrons
       nuclear repulsion energy      4087.9842804510 Hartrees.
 NAtoms=   54 NActive=   54 NUniq=   54 SFac= 1.00D+00 NAtFMM=   60 NAOKFM=F Big=F
 Integral buffers will be    131072 words long.
 Raffenetti 2 integral format.
 Two-electron integral symmetry is turned on.
 ------------------------------------------------------------------------------
 Polarizable Continuum Model (PCM)
 =================================
 Model                : PCM.
 Atomic radii         : UFF (Universal Force Field).
 Polarization charges : Total charges.
 Charge compensation  : None.
 Solution method      : On-the-fly selection.
 Cavity type          : Scaled VdW (van der Waals Surface) (Alpha=1.100).
 Cavity algorithm     : GePol (No added spheres)
                        Default sphere list used, NSphG=   54.
                        Lebedev-Laikov grids with approx.  5.0 points / Ang**2.
                        Smoothing algorithm: York/Karplus (Gamma=1.0000).
                        Polarization charges: spherical gaussians, with
                                              point-specific exponents (IZeta= 3).
                        Self-potential: point-specific (ISelfS= 7).
                        Self-field    : sphere-specific E.n sum rule (ISelfD= 2).
 1st derivatives      : Analytical E(r).r(x)/FMM algorithm (CHGder, D1EAlg=3).
                        Cavity 1st derivative terms included.
 Solvent              : Water, Eps=  78.355300 Eps(inf)=   1.777849
 ------------------------------------------------------------------------------
 One-electron integrals computed using PRISM.
 NBasis=   916 RedAO= T EigKep=  1.45D-06  NBF=   916
 NBsUse=   901 1.00D-06 EigRej=  9.60D-07 NBFU=   901
 ExpMin= 4.05D-02 ExpMax= 9.34D+04 ExpMxC= 3.17D+03 IAcc=3 IRadAn=         5 AccDes= 0.00D+00
 Harris functional with IExCor=  402 and IRadAn=       5 diagonalized for initial guess.
 HarFok:  IExCor=  402 AccDes= 0.00D+00 IRadAn=         5 IDoV= 1 UseB2=F ITyADJ=14
 ICtDFT=  3500011 ScaDFX=  1.000000  1.000000  1.000000  1.000000
 FoFCou: FMM=F IPFlag=           0 FMFlag=      100000 FMFlg1=           0
         NFxFlg=           0 DoJE=T BraDBF=F KetDBF=T FulRan=T
         wScrn=  0.000000 ICntrl=       500 IOpCl=  0 I1Cent=   200000004 NGrid=           0
         NMat0=    1 NMatS0=      1 NMatT0=    0 NMatD0=    1 NMtDS0=    0 NMtDT0=    0
 Petite list used in FoFCou.
 Requested convergence on RMS density matrix=1.00D-08 within 128 cycles.
 Requested convergence on MAX density matrix=1.00D-06.
 Requested convergence on             energy=1.00D-06.
 No special actions if energy rises.
 Inv3:  Mode=1 IEnd=    52542675.
 Iteration    1 A*A^-1 deviation from unit magnitude is 9.66D-15 for   4183.
 Iteration    1 A*A^-1 deviation from orthogonality  is 4.90D-15 for   4175   3278.
 Iteration    1 A^-1*A deviation from unit magnitude is 9.55D-15 for   4183.
 Iteration    1 A^-1*A deviation from orthogonality  is 6.88D-15 for   4177   4175.
 Error on total polarization charges =  0.03092
 SCF Done:  E(RB3LYP) =  -2359.59802304     A.U. after   16 cycles
            NFock= 16  Conv=0.87D-08     -V/T= 2.0030

 **********************************************************************

            Population analysis using the SCF Density.

 **********************************************************************

 Orbital symmetries:
       Occupied  (A) (A) (A) (A) (A) (A) (A) (A) (A) (A) (A) (A)
                 (A) (A) (A) (A) (A) (A) (A) (A) (A) (A) (A) (A)
                 (A) (A) (A) (A) (A) (A) (A) (A) (A) (A) (A) (A)
                 (A) (A) (A) (A) (A) (A) (A) (A) (A) (A) (A) (A)
                 (A) (A) (A) (A) (A) (A) (A) (A) (A) (A) (A) (A)
                 (A) (A) (A) (A) (A) (A) (A) (A) (A) (A) (A) (A)
                 (A) (A) (A) (A) (A) (A) (A) (A) (A) (A) (A) (A)
                 (A) (A) (A) (A) (A) (A) (A) (A) (A) (A) (A) (A)
                 (A) (A) (A) (A) (A) (A) (A) (A) (A) (A) (A) (A)
                 (A) (A) (A) (A) (A) (A) (A) (A) (A) (A) (A) (A)
                 (A) (A) (A) (A) (A) (A) (A) (A) (A) (A) (A) (A)
                 (A) (A) (A)
       Virtual   (A) (A) (A) (A) (A) (A) (A) (A) (A) (A) (A) (A)
                 (A) (A) (A) (A) (A) (A) (A) (A) (A) (A) (A) (A)
                 (A) (A) (A) (A) (A) (A) (A) (A) (A) (A) (A) (A)
                 (A) (A) (A) (A) (A) (A) (A) (A) (A) (A) (A) (A)
                 (A) (A) (A) (A) (A) (A) (A) (A) (A) (A) (A) (A)
                 (A) (A) (A) (A) (A) (A) (A) (A) (A) (A) (A) (A)
                 (A) (A) (A) (A) (A) (A) (A) (A) (A) (A) (A) (A)
                 (A) (A) (A) (A) (A) (A) (A) (A) (A) (A) (A) (A)
                 (A) (A) (A) (A) (A) (A) (A) (A) (A) (A) (A) (A)
                 (A) (A) (A) (A) (A) (A) (A) (A) (A) (A) (A) (A)
                 (A) (A) (A) (A) (A) (A) (A) (A) (A) (A) (A) (A)
                 (A) (A) (A) (A) (A) (A) (A) (A) (A) (A) (A) (A)
                 (A) (A) (A) (A) (A) (A) (A) (A) (A) (A) (A) (A)
                 (A) (A) (A) (A) (A) (A) (A) (A) (A) (A) (A) (A)
                 (A) (A) (A) (A) (A) (A) (A) (A) (A) (A) (A) (A)
                 (A) (A) (A) (A) (A) (A) (A) (A) (A) (A) (A) (A)
                 (A) (A) (A) (A) (A) (A) (A) (A) (A) (A) (A) (A)
                 (A) (A) (A) (A) (A) (A) (A) (A) (A) (A) (A) (A)
                 (A) (A) (A) (A) (A) (A) (A) (A) (A) (A) (A) (A)
                 (A) (A) (A) (A) (A) (A) (A) (A) (A) (A) (A) (A)
                 (A) (A) (A) (A) (A) (A) (A) (A) (A) (A) (A) (A)
                 (A) (A) (A) (A) (A) (A) (A) (A) (A) (A) (A) (A)
                 (A) (A) (A) (A) (A) (A) (A) (A) (A) (A) (A) (A)
                 (A) (A) (A) (A) (A) (A) (A) (A) (A) (A) (A) (A)
                 (A) (A) (A) (A) (A) (A) (A) (A) (A) (A) (A) (A)
                 (A) (A) (A) (A) (A) (A) (A) (A) (A) (A) (A) (A)
                 (A) (A) (A) (A) (A) (A) (A) (A) (A) (A) (A) (A)
                 (A) (A) (A) (A) (A) (A) (A) (A) (A) (A) (A) (A)
                 (A) (A) (A) (A) (A) (A) (A) (A) (A) (A) (A) (A)
                 (A) (A) (A) (A) (A) (A) (A) (A) (A) (A) (A) (A)
                 (A) (A) (A) (A) (A) (A) (A) (A) (A) (A) (A) (A)
                 (A) (A) (A) (A) (A) (A) (A) (A) (A) (A) (A) (A)
                 (A) (A) (A) (A) (A) (A) (A) (A) (A) (A) (A) (A)
                 (A) (A) (A) (A) (A) (A) (A) (A) (A) (A) (A) (A)
                 (A) (A) (A) (A) (A) (A) (A) (A) (A) (A) (A) (A)
                 (A) (A) (A) (A) (A) (A) (A) (A) (A) (A) (A) (A)
                 (A) (A) (A) (A) (A) (A) (A) (A) (A) (A) (A) (A)
                 (A) (A) (A) (A) (A) (A) (A) (A) (A) (A) (A) (A)
                 (A) (A) (A) (A) (A) (A) (A) (A) (A) (A) (A) (A)
                 (A) (A) (A) (A) (A) (A) (A) (A) (A) (A) (A) (A)
                 (A) (A) (A) (A) (A) (A) (A) (A) (A) (A) (A) (A)
                 (A) (A) (A) (A) (A) (A) (A) (A) (A) (A) (A) (A)
                 (A) (A) (A) (A) (A) (A) (A) (A) (A) (A) (A) (A)
                 (A) (A) (A) (A) (A) (A) (A) (A) (A) (A) (A) (A)
                 (A) (A) (A) (A) (A) (A) (A) (A) (A) (A) (A) (A)
                 (A) (A) (A) (A) (A) (A) (A) (A) (A) (A) (A) (A)
                 (A) (A) (A) (A) (A) (A) (A) (A) (A) (A) (A) (A)
                 (A) (A) (A) (A) (A) (A) (A) (A) (A) (A) (A) (A)
                 (A) (A) (A) (A) (A) (A) (A) (A) (A) (A) (A) (A)
                 (A) (A) (A) (A) (A) (A) (A) (A) (A) (A) (A) (A)
                 (A) (A) (A) (A) (A) (A) (A) (A) (A) (A) (A) (A)
                 (A) (A) (A) (A) (A) (A) (A) (A) (A) (A) (A) (A)
                 (A) (A) (A) (A) (A) (A) (A) (A) (A) (A) (A) (A)
                 (A) (A) (A) (A) (A) (A) (A) (A) (A) (A) (A) (A)
                 (A) (A) (A) (A) (A) (A) (A) (A) (A) (A) (A) (A)
                 (A) (A) (A) (A) (A) (A) (A) (A) (A) (A) (A) (A)
                 (A) (A) (A) (A) (A) (A) (A) (A) (A) (A) (A) (A)
                 (A) (A) (A) (A) (A) (A) (A) (A) (A) (A) (A) (A)
                 (A) (A) (A) (A) (A) (A) (A) (A) (A) (A) (A) (A)
                 (A) (A) (A) (A) (A) (A) (A) (A) (A) (A) (A) (A)
                 (A) (A) (A) (A) (A) (A) (A) (A) (A) (A) (A) (A)
                 (A) (A) (A) (A) (A) (A) (A) (A) (A) (A) (A) (A)
                 (A) (A) (A) (A) (A) (A) (A) (A) (A) (A) (A) (A)
                 (A) (A) (A) (A) (A) (A) (A) (A) (A) (A)
 The electronic state is 1-A.
 Alpha  occ. eigenvalues --  -88.87417 -88.86142 -19.15815 -19.15583 -19.07287
 Alpha  occ. eigenvalues --  -19.07209 -19.06882 -19.06078 -14.34648 -14.34185
 Alpha  occ. eigenvalues --  -10.25365 -10.25158 -10.24904 -10.24860 -10.23153
 Alpha  occ. eigenvalues --  -10.22503 -10.22261 -10.21996 -10.20559 -10.19486
 Alpha  occ. eigenvalues --  -10.19453 -10.19386 -10.18857 -10.18547 -10.17821
 Alpha  occ. eigenvalues --  -10.17453 -10.17154 -10.17056 -10.15699 -10.15342
 Alpha  occ. eigenvalues --  -10.15161 -10.15013 -10.14837 -10.14801 -10.14779
 Alpha  occ. eigenvalues --  -10.14724  -7.95990  -7.94733  -5.92295  -5.91917
 Alpha  occ. eigenvalues --   -5.91561  -5.91050  -5.90671  -5.90274  -1.07447
 Alpha  occ. eigenvalues --   -1.07097  -1.03898  -1.03524  -1.01996  -1.01540
 Alpha  occ. eigenvalues --   -0.91853  -0.91336  -0.88595  -0.86981  -0.85994
 Alpha  occ. eigenvalues --   -0.81012  -0.78505  -0.76957  -0.75303  -0.73946
 Alpha  occ. eigenvalues --   -0.72931  -0.72434  -0.71365  -0.70978  -0.69075
 Alpha  occ. eigenvalues --   -0.68826  -0.67106  -0.65153  -0.62765  -0.61177
 Alpha  occ. eigenvalues --   -0.60908  -0.59753  -0.58563  -0.57002  -0.54896
 Alpha  occ. eigenvalues --   -0.54581  -0.53126  -0.52971  -0.52549  -0.50314
 Alpha  occ. eigenvalues --   -0.49145  -0.47983  -0.47338  -0.47000  -0.46894
 Alpha  occ. eigenvalues --   -0.46556  -0.46317  -0.45945  -0.45244  -0.44926
 Alpha  occ. eigenvalues --   -0.44630  -0.44169  -0.43889  -0.42801  -0.42110
 Alpha  occ. eigenvalues --   -0.41898  -0.41020  -0.40774  -0.40634  -0.40348
 Alpha  occ. eigenvalues --   -0.40067  -0.39706  -0.38817  -0.38551  -0.38331
 Alpha  occ. eigenvalues --   -0.38166  -0.37739  -0.37289  -0.37099  -0.37009
 Alpha  occ. eigenvalues --   -0.36733  -0.35936  -0.35228  -0.35017  -0.34259
 Alpha  occ. eigenvalues --   -0.33269  -0.32855  -0.32458  -0.32404  -0.31483
 Alpha  occ. eigenvalues --   -0.30258  -0.27746  -0.26956  -0.26624  -0.25934
 Alpha  occ. eigenvalues --   -0.25529  -0.25235  -0.24680  -0.24317  -0.24048
 Alpha  occ. eigenvalues --   -0.23240  -0.22180  -0.21164  -0.17544  -0.11399
 Alpha virt. eigenvalues --   -0.04668  -0.02402  -0.01118  -0.00463  -0.00022
 Alpha virt. eigenvalues --    0.00665   0.00940   0.01133   0.01683   0.01781
 Alpha virt. eigenvalues --    0.02222   0.02562   0.02915   0.03192   0.03295
 Alpha virt. eigenvalues --    0.03565   0.03921   0.04201   0.04316   0.04463
 Alpha virt. eigenvalues --    0.04734   0.04899   0.05169   0.05455   0.05620
 Alpha virt. eigenvalues --    0.05677   0.05793   0.06317   0.06515   0.06794
 Alpha virt. eigenvalues --    0.07049   0.07141   0.07448   0.07732   0.07794
 Alpha virt. eigenvalues --    0.08232   0.08509   0.08750   0.09082   0.09283
 Alpha virt. eigenvalues --    0.09559   0.09869   0.10001   0.10218   0.10613
 Alpha virt. eigenvalues --    0.10884   0.10987   0.11136   0.11427   0.11976
 Alpha virt. eigenvalues --    0.12324   0.12569   0.12721   0.12910   0.13102
 Alpha virt. eigenvalues --    0.13578   0.13796   0.14120   0.14521   0.14549
 Alpha virt. eigenvalues --    0.14774   0.15139   0.15359   0.15632   0.15728
 Alpha virt. eigenvalues --    0.15877   0.15931   0.16240   0.16533   0.16613
 Alpha virt. eigenvalues --    0.16853   0.17372   0.17577   0.17630   0.17937
 Alpha virt. eigenvalues --    0.18041   0.18362   0.18658   0.18807   0.19011
 Alpha virt. eigenvalues --    0.19178   0.19411   0.19866   0.19945   0.20161
 Alpha virt. eigenvalues --    0.20329   0.20538   0.20577   0.20802   0.20947
 Alpha virt. eigenvalues --    0.21117   0.21259   0.21669   0.21770   0.21907
 Alpha virt. eigenvalues --    0.22105   0.22243   0.22655   0.22930   0.22933
 Alpha virt. eigenvalues --    0.23582   0.23711   0.24010   0.24089   0.24177
 Alpha virt. eigenvalues --    0.24276   0.24658   0.24825   0.24923   0.25111
 Alpha virt. eigenvalues --    0.25268   0.25484   0.26016   0.26054   0.26325
 Alpha virt. eigenvalues --    0.26493   0.26589   0.26752   0.26969   0.27088
 Alpha virt. eigenvalues --    0.27330   0.27557   0.27701   0.27760   0.27889
 Alpha virt. eigenvalues --    0.28284   0.28364   0.28500   0.28668   0.28919
 Alpha virt. eigenvalues --    0.29471   0.29539   0.29601   0.29745   0.29983
 Alpha virt. eigenvalues --    0.30193   0.30249   0.30488   0.30645   0.30830
 Alpha virt. eigenvalues --    0.31119   0.31228   0.31512   0.31771   0.31851
 Alpha virt. eigenvalues --    0.32206   0.32666   0.32873   0.33090   0.33474
 Alpha virt. eigenvalues --    0.33672   0.33832   0.34254   0.34352   0.34462
 Alpha virt. eigenvalues --    0.34905   0.35180   0.35604   0.35922   0.36104
 Alpha virt. eigenvalues --    0.36150   0.36539   0.37046   0.37162   0.37726
 Alpha virt. eigenvalues --    0.38200   0.38689   0.38830   0.39118   0.39566
 Alpha virt. eigenvalues --    0.40001   0.40378   0.40769   0.40960   0.41343
 Alpha virt. eigenvalues --    0.41627   0.41999   0.42460   0.42829   0.43418
 Alpha virt. eigenvalues --    0.43927   0.44203   0.44428   0.44884   0.45525
 Alpha virt. eigenvalues --    0.45738   0.46060   0.46282   0.46776   0.46911
 Alpha virt. eigenvalues --    0.47205   0.47336   0.47725   0.47936   0.48202
 Alpha virt. eigenvalues --    0.48779   0.50075   0.50968   0.51177   0.51500
 Alpha virt. eigenvalues --    0.52381   0.52680   0.53138   0.53425   0.54268
 Alpha virt. eigenvalues --    0.54935   0.55897   0.55967   0.56145   0.56721
 Alpha virt. eigenvalues --    0.56983   0.57447   0.57542   0.58048   0.58144
 Alpha virt. eigenvalues --    0.58696   0.58827   0.59041   0.59547   0.59948
 Alpha virt. eigenvalues --    0.60125   0.60916   0.61415   0.61487   0.62169
 Alpha virt. eigenvalues --    0.62425   0.62429   0.62943   0.63276   0.63837
 Alpha virt. eigenvalues --    0.64114   0.64959   0.65449   0.65799   0.66148
 Alpha virt. eigenvalues --    0.66563   0.66709   0.66970   0.67154   0.67348
 Alpha virt. eigenvalues --    0.67704   0.68268   0.68374   0.68885   0.69467
 Alpha virt. eigenvalues --    0.69488   0.69973   0.70688   0.70878   0.71399
 Alpha virt. eigenvalues --    0.72226   0.72368   0.72610   0.73019   0.73555
 Alpha virt. eigenvalues --    0.73737   0.74290   0.74851   0.75184   0.75446
 Alpha virt. eigenvalues --    0.76001   0.76107   0.76394   0.76640   0.76876
 Alpha virt. eigenvalues --    0.77139   0.77376   0.77868   0.78063   0.78691
 Alpha virt. eigenvalues --    0.78997   0.79295   0.79379   0.79828   0.80390
 Alpha virt. eigenvalues --    0.81030   0.81596   0.81697   0.82196   0.82570
 Alpha virt. eigenvalues --    0.82981   0.83357   0.83882   0.84804   0.85042
 Alpha virt. eigenvalues --    0.85401   0.86291   0.86546   0.88746   0.89014
 Alpha virt. eigenvalues --    0.89279   0.90154   0.90970   0.91098   0.91525
 Alpha virt. eigenvalues --    0.92055   0.92529   0.92681   0.93528   0.94213
 Alpha virt. eigenvalues --    0.94678   0.95323   0.95556   0.96162   0.96605
 Alpha virt. eigenvalues --    0.96786   0.97562   0.97966   0.98701   0.98907
 Alpha virt. eigenvalues --    0.99090   0.99402   1.00249   1.00320   1.00735
 Alpha virt. eigenvalues --    1.01145   1.01556   1.02247   1.02753   1.03141
 Alpha virt. eigenvalues --    1.03410   1.04168   1.04691   1.05019   1.05402
 Alpha virt. eigenvalues --    1.05724   1.06421   1.06529   1.06773   1.07376
 Alpha virt. eigenvalues --    1.07669   1.07944   1.08498   1.08874   1.08944
 Alpha virt. eigenvalues --    1.09504   1.10098   1.10274   1.11288   1.11654
 Alpha virt. eigenvalues --    1.12166   1.12370   1.13076   1.13770   1.14494
 Alpha virt. eigenvalues --    1.15114   1.16007   1.16688   1.17136   1.17912
 Alpha virt. eigenvalues --    1.18654   1.19006   1.19108   1.20493   1.21242
 Alpha virt. eigenvalues --    1.21483   1.22253   1.22400   1.23251   1.24165
 Alpha virt. eigenvalues --    1.24605   1.25558   1.26465   1.26958   1.27377
 Alpha virt. eigenvalues --    1.28615   1.29260   1.30201   1.31381   1.31400
 Alpha virt. eigenvalues --    1.32047   1.32360   1.32712   1.33469   1.34347
 Alpha virt. eigenvalues --    1.34943   1.36225   1.36595   1.36621   1.38040
 Alpha virt. eigenvalues --    1.39220   1.40105   1.41226   1.41775   1.43572
 Alpha virt. eigenvalues --    1.43831   1.44347   1.44561   1.45227   1.45569
 Alpha virt. eigenvalues --    1.46179   1.46554   1.46698   1.47001   1.47265
 Alpha virt. eigenvalues --    1.48072   1.48548   1.49265   1.49615   1.50046
 Alpha virt. eigenvalues --    1.50886   1.51384   1.52020   1.52897   1.53103
 Alpha virt. eigenvalues --    1.54767   1.55322   1.55399   1.56280   1.56477
 Alpha virt. eigenvalues --    1.56914   1.57204   1.57449   1.57594   1.57977
 Alpha virt. eigenvalues --    1.58516   1.59094   1.59521   1.59609   1.61653
 Alpha virt. eigenvalues --    1.62277   1.63608   1.63988   1.64424   1.64593
 Alpha virt. eigenvalues --    1.65192   1.65430   1.66132   1.67020   1.67802
 Alpha virt. eigenvalues --    1.68111   1.68765   1.69361   1.70076   1.70460
 Alpha virt. eigenvalues --    1.71073   1.71909   1.72594   1.72926   1.72968
 Alpha virt. eigenvalues --    1.74159   1.74365   1.75250   1.75687   1.76162
 Alpha virt. eigenvalues --    1.76878   1.77388   1.78162   1.78878   1.79448
 Alpha virt. eigenvalues --    1.79869   1.80668   1.80918   1.81011   1.81383
 Alpha virt. eigenvalues --    1.82415   1.83463   1.84069   1.85441   1.85802
 Alpha virt. eigenvalues --    1.86990   1.88027   1.89076   1.89328   1.89877
 Alpha virt. eigenvalues --    1.90192   1.91007   1.91711   1.92098   1.93520
 Alpha virt. eigenvalues --    1.93691   1.94158   1.94954   1.95408   1.95977
 Alpha virt. eigenvalues --    1.96231   1.97418   1.97662   1.98365   1.99591
 Alpha virt. eigenvalues --    2.00527   2.01387   2.02030   2.02204   2.02781
 Alpha virt. eigenvalues --    2.03751   2.04443   2.04630   2.05383   2.05807
 Alpha virt. eigenvalues --    2.06252   2.06424   2.06961   2.07520   2.08612
 Alpha virt. eigenvalues --    2.09342   2.09562   2.10091   2.10344   2.10550
 Alpha virt. eigenvalues --    2.12332   2.12616   2.13531   2.14346   2.14857
 Alpha virt. eigenvalues --    2.15340   2.16631   2.17342   2.18444   2.19397
 Alpha virt. eigenvalues --    2.20230   2.20639   2.21429   2.22132   2.22831
 Alpha virt. eigenvalues --    2.23668   2.23999   2.24889   2.25389   2.27173
 Alpha virt. eigenvalues --    2.29083   2.30893   2.31374   2.33306   2.35766
 Alpha virt. eigenvalues --    2.36782   2.36988   2.39588   2.41310   2.42352
 Alpha virt. eigenvalues --    2.42546   2.43815   2.44299   2.44596   2.44865
 Alpha virt. eigenvalues --    2.46207   2.47222   2.47635   2.47987   2.49909
 Alpha virt. eigenvalues --    2.50307   2.50926   2.51599   2.52759   2.53315
 Alpha virt. eigenvalues --    2.53880   2.54308   2.54598   2.54859   2.55301
 Alpha virt. eigenvalues --    2.55510   2.55947   2.56998   2.58280   2.59219
 Alpha virt. eigenvalues --    2.60068   2.61838   2.61924   2.62815   2.64659
 Alpha virt. eigenvalues --    2.67100   2.67998   2.68482   2.68802   2.69141
 Alpha virt. eigenvalues --    2.70085   2.70674   2.71550   2.72293   2.72766
 Alpha virt. eigenvalues --    2.73759   2.74460   2.75140   2.75528   2.75862
 Alpha virt. eigenvalues --    2.76115   2.76365   2.76935   2.78150   2.79287
 Alpha virt. eigenvalues --    2.80322   2.81162   2.82177   2.84273   2.84969
 Alpha virt. eigenvalues --    2.85360   2.85899   2.87146   2.87566   2.88229
 Alpha virt. eigenvalues --    2.88457   2.90282   2.90600   2.91027   2.92563
 Alpha virt. eigenvalues --    2.92776   2.93720   2.94002   2.94742   2.95033
 Alpha virt. eigenvalues --    2.96500   2.96959   2.97573   2.97819   2.98648
 Alpha virt. eigenvalues --    2.99354   3.00496   3.01251   3.03337   3.03971
 Alpha virt. eigenvalues --    3.04555   3.05947   3.07936   3.09663   3.09921
 Alpha virt. eigenvalues --    3.10798   3.12084   3.12792   3.13794   3.15099
 Alpha virt. eigenvalues --    3.15957   3.18190   3.18571   3.18992   3.19657
 Alpha virt. eigenvalues --    3.21835   3.22652   3.23641   3.24523   3.24959
 Alpha virt. eigenvalues --    3.25876   3.26846   3.30066   3.30849   3.32240
 Alpha virt. eigenvalues --    3.33047   3.34202   3.34557   3.38202   3.38475
 Alpha virt. eigenvalues --    3.38738   3.38963   3.39869   3.40895   3.42294
 Alpha virt. eigenvalues --    3.43184   3.45271   3.47016   3.47297   3.48551
 Alpha virt. eigenvalues --    3.49348   3.50038   3.51542   3.53902   3.55075
 Alpha virt. eigenvalues --    3.56720   3.59072   3.62404   3.63713   3.64653
 Alpha virt. eigenvalues --    3.65871   3.69327   3.70058   3.71653   3.73980
 Alpha virt. eigenvalues --    3.74454   3.74670   3.75087   3.77304   3.77481
 Alpha virt. eigenvalues --    3.78227   3.83182   3.85652   3.86508   3.88286
 Alpha virt. eigenvalues --    3.89150   3.94718   3.95823   3.96733   3.97445
 Alpha virt. eigenvalues --    3.97907   4.01238   4.04384   4.05963   4.08336
 Alpha virt. eigenvalues --    4.10061   4.11620   4.15228   4.17586   4.22220
 Alpha virt. eigenvalues --    4.26133   4.29961   4.31613   4.40539   4.44833
 Alpha virt. eigenvalues --    4.45588   4.55802   4.72746   4.89967   4.91147
 Alpha virt. eigenvalues --    4.91628   4.94299   5.02425   5.04072   5.08158
 Alpha virt. eigenvalues --    5.09575   5.09839   5.13372   5.15893   5.17859
 Alpha virt. eigenvalues --    5.29112   5.31145   5.33427   5.39358   5.43331
 Alpha virt. eigenvalues --    5.44401   5.77725   5.80136   5.81588   5.84604
 Alpha virt. eigenvalues --    5.86166   5.89978   8.03080   8.06001  17.29929
 Alpha virt. eigenvalues --   17.34268  17.50364  17.53271  17.59149  17.64404
 Alpha virt. eigenvalues --   23.53249  23.60284  23.74191  23.83060  23.85613
 Alpha virt. eigenvalues --   23.87942  23.89486  23.91003  23.91622  23.92463
 Alpha virt. eigenvalues --   23.92601  23.92753  23.94154  23.96892  23.97577
 Alpha virt. eigenvalues --   24.00404  24.01682  24.03464  24.03990  24.04422
 Alpha virt. eigenvalues --   24.06190  24.11475  24.15189  24.15908  24.19671
 Alpha virt. eigenvalues --   24.20355  35.60098  35.63079  49.97300  49.98906
 Alpha virt. eigenvalues --   50.07016  50.08940  50.10818  50.12570 189.20342
 Alpha virt. eigenvalues --  189.23952
          Condensed to atoms (all electrons):
 Mulliken charges:
               1
     1  C    0.321117
     2  C   -0.185847
     3  C    0.131345
     4  C    0.111866
     5  C    0.253190
     6  C   -0.788160
     7  C    0.191104
     8  C    0.033792
     9  C    0.691332
    10  C   -0.302899
    11  C    0.217567
    12  C    0.088467
    13  C   -0.528136
    14  C   -0.618767
    15  H    0.118541
    16  H    0.120298
    17  H    0.122478
    18  N   -0.176706
    19  N   -0.154005
    20  O   -0.489024
    21  O   -0.475143
    22  O   -0.481115
    23  O   -0.400525
    24  C   -0.210178
    25  H    0.161479
    26  H    0.160336
    27  H    0.167025
    28  C   -0.201582
    29  H    0.161789
    30  H    0.161881
    31  H    0.167754
    32  C   -0.186608
    33  C   -0.424625
    34  S   -0.557237
    35  C   -0.149637
    36  H    0.153803
    37  C    0.700351
    38  O   -0.164144
    39  C    0.743639
    40  C   -0.240777
    41  C    0.055411
    42  S   -0.235046
    43  H    0.168974
    44  H    0.160145
    45  H    0.156125
    46  C   -0.612343
    47  O   -0.157265
    48  C   -0.343067
    49  H    0.154826
    50  C   -0.252726
    51  H    0.180564
    52  H    0.155169
    53  H    0.170452
    54  H    0.154743
 Sum of Mulliken charges =  -2.00000
 Mulliken charges with hydrogens summed into heavy atoms:
               1
     1  C    0.321117
     2  C   -0.185847
     3  C    0.131345
     4  C    0.111866
     5  C    0.253190
     6  C   -0.665682
     7  C    0.191104
     8  C    0.033792
     9  C    0.691332
    10  C   -0.302899
    11  C    0.217567
    12  C    0.088467
    13  C   -0.407839
    14  C   -0.500225
    18  N   -0.176706
    19  N   -0.154005
    20  O   -0.489024
    21  O   -0.475143
    22  O   -0.481115
    23  O   -0.400525
    24  C    0.278661
    28  C    0.289841
    32  C   -0.186608
    33  C   -0.270822
    34  S   -0.557237
    35  C   -0.149637
    37  C    0.700351
    38  O   -0.164144
    39  C    0.743639
    40  C    0.244466
    41  C    0.055411
    42  S   -0.235046
    46  C   -0.457517
    47  O   -0.157265
    48  C   -0.162503
    50  C    0.227638
 Electronic spatial extent (au):  <R**2>=          22537.8815
 Charge=             -2.0000 electrons
 Dipole moment (field-independent basis, Debye):
    X=             25.4455    Y=             -1.2927    Z=              0.3788  Tot=             25.4811
 Quadrupole moment (field-independent basis, Debye-Ang):
   XX=           -379.7538   YY=           -281.2556   ZZ=           -233.5443
   XY=             -7.9105   XZ=            -15.3690   YZ=             26.2480
 Traceless Quadrupole moment (field-independent basis, Debye-Ang):
   XX=            -81.5692   YY=             16.9290   ZZ=             64.6402
   XY=             -7.9105   XZ=            -15.3690   YZ=             26.2480
 Octapole moment (field-independent basis, Debye-Ang**2):
  XXX=            940.4355  YYY=            -49.2365  ZZZ=              4.3711  XYY=            324.0921
  XXY=            -61.4278  XXZ=             33.1890  XZZ=             45.5010  YZZ=             -2.9266
  YYZ=              1.2263  XYZ=              6.8997
 Hexadecapole moment (field-independent basis, Debye-Ang**3):
 XXXX=         -26144.9375 YYYY=          -8723.2600 ZZZZ=           -994.3374 XXXY=           -830.6229
 XXXZ=           -556.0973 YYYX=            265.4886 YYYZ=            421.8138 ZZZX=            -47.9640
 ZZZY=             83.4019 XXYY=          -5884.4346 XXZZ=          -3975.2942 YYZZ=          -1526.1026
 XXYZ=            424.9343 YYXZ=           -227.0347 ZZXY=             48.2529
 N-N= 4.087984280451D+03 E-N=-1.377886119259D+04  KE= 2.352618939359D+03
 D1PCM: PCM CHGder 1st derivatives, ID1Alg=3 FixD1E=F DoIter=F DoCFld=F I1PDM=0.
 Calling FoFJK, ICntrl=      2127 FMM=F ISym2X=0 I1Cent= 0 IOpClX= 0 NMat=1 NMatS=1 NMatT=0.
 ***** Axes restored to original set *****
 -------------------------------------------------------------------
 Center     Atomic                   Forces (Hartrees/Bohr)
 Number     Number              X              Y              Z
 -------------------------------------------------------------------
      1        6          -0.012663526    0.050852524    0.008126474
      2        6          -0.030047387   -0.033823274   -0.004059870
      3        6          -0.001309185   -0.008920449   -0.001672180
      4        6           0.012768679   -0.039978228   -0.005766195
      5        6           0.034641404    0.039408730    0.004798443
      6        6           0.035841547    0.035344363   -0.002223081
      7        6           0.001666310    0.007787761    0.001099675
      8        6          -0.011834546    0.040358647    0.014382971
      9        6           0.008520623   -0.051569320   -0.003930445
     10        6          -0.029262663   -0.038553460   -0.010223459
     11        6           0.016139031   -0.048419628   -0.007673666
     12        6           0.027336748    0.032016491    0.005064569
     13        6          -0.032841461   -0.030077500   -0.004232364
     14        6          -0.016029731    0.040673963    0.006270447
     15        1          -0.000308263    0.001830118    0.000316377
     16        1          -0.000644765   -0.001806395   -0.000360503
     17        1           0.001294434    0.001702344    0.001966965
     18        7          -0.002653709    0.000682584   -0.000831110
     19        7          -0.000510258   -0.000199910   -0.000309338
     20        8           0.022166366   -0.028487370   -0.004243750
     21        8          -0.033514250   -0.016863655   -0.001751534
     22        8          -0.023056968    0.027612682    0.004407370
     23        8           0.017779432    0.024592499    0.001512470
     24        6           0.000236516   -0.002051650   -0.001698066
     25        1          -0.000446082    0.001061351    0.000193636
     26        1          -0.001038000    0.000617686    0.001121694
     27        1           0.001213957    0.000470949    0.000211040
     28        6           0.000795412    0.002374914   -0.000156238
     29        1          -0.001108463   -0.000694649    0.000457293
     30        1          -0.000900156   -0.000793533   -0.000265512
     31        1           0.001048912   -0.000936627   -0.000074812
     32        6          -0.000893310    0.009974975   -0.000111168
     33        6           0.007513599   -0.006975281    0.006160586
     34       16          -0.006307526    0.000492388    0.000837732
     35        6          -0.000529713   -0.011822646   -0.009045786
     36        1           0.002831059   -0.004166829   -0.004077145
     37        6           0.006590754    0.007042241    0.005550394
     38        8           0.002717212    0.001061577    0.001678026
     39        6          -0.001036740   -0.002761456   -0.002935173
     40        6          -0.000501522    0.003301855    0.002655957
     41        6           0.004208762    0.005296508    0.004459404
     42       16          -0.000774591   -0.000542586   -0.000266150
     43        1          -0.000814560   -0.000313861    0.000162970
     44        1           0.001093219   -0.001486914    0.000383148
     45        1           0.000825583    0.000730762   -0.001038578
     46        6          -0.000105071    0.000823556    0.001317369
     47        8          -0.003130482   -0.001822559   -0.001262131
     48        6           0.005950462   -0.001915090   -0.003634744
     49        1           0.000113203    0.000597403    0.000543014
     50        6           0.002101468   -0.002709572   -0.003009430
     51        1          -0.001517915    0.000065084    0.000219888
     52        1          -0.001517681    0.001405753   -0.000324145
     53        1           0.000600537    0.000129836    0.000026842
     54        1          -0.000696705   -0.000617102    0.001251821
 -------------------------------------------------------------------
 Cartesian Forces:  Max     0.051569320 RMS     0.014407547

 GradGradGradGradGradGradGradGradGradGradGradGradGradGradGradGradGradGrad
 Berny optimization.
 FormGI is forming the generalized inverse of G from B-inverse, IUseBI=4.
 Internal  Forces:  Max     0.049758802 RMS     0.008460041
 Search for a local minimum.
 Step number   1 out of a maximum of  307
 All quantities printed in internal units (Hartrees-Bohrs-Radians)
 Mixed Optimization -- RFO/linear search
 Second derivative matrix not updated -- first step.
 ITU=  0
     Eigenvalues ---    0.00803   0.00803   0.01176   0.01203   0.01245
     Eigenvalues ---    0.01292   0.01308   0.01311   0.01360   0.01379
     Eigenvalues ---    0.01419   0.01429   0.01457   0.01496   0.01515
     Eigenvalues ---    0.01568   0.01574   0.01577   0.01617   0.01652
     Eigenvalues ---    0.01692   0.01709   0.01711   0.01719   0.01754
     Eigenvalues ---    0.01783   0.01803   0.01847   0.01964   0.02040
     Eigenvalues ---    0.02043   0.02066   0.02076   0.02082   0.02135
     Eigenvalues ---    0.02149   0.02163   0.02177   0.02197   0.02228
     Eigenvalues ---    0.02245   0.02250   0.07556   0.07572   0.07690
     Eigenvalues ---    0.07700   0.10065   0.10069   0.10631   0.10638
     Eigenvalues ---    0.15983   0.15999   0.15999   0.16000   0.16000
     Eigenvalues ---    0.16000   0.16000   0.16000   0.16000   0.16000
     Eigenvalues ---    0.16000   0.16000   0.16000   0.16000   0.16000
     Eigenvalues ---    0.16000   0.16000   0.16000   0.22530   0.22583
     Eigenvalues ---    0.23518   0.23582   0.24516   0.24747   0.24864
     Eigenvalues ---    0.24931   0.24952   0.24986   0.24987   0.24988
     Eigenvalues ---    0.24991   0.24994   0.24997   0.24997   0.24998
     Eigenvalues ---    0.24998   0.25000   0.25000   0.25000   0.25000
     Eigenvalues ---    0.25000   0.25000   0.25000   0.25000   0.25000
     Eigenvalues ---    0.25000   0.28830   0.28908   0.30085   0.32093
     Eigenvalues ---    0.32582   0.32774   0.33111   0.33787   0.33938
     Eigenvalues ---    0.34036   0.34054   0.34135   0.34354   0.34466
     Eigenvalues ---    0.34577   0.34629   0.34693   0.34809   0.34896
     Eigenvalues ---    0.35198   0.35218   0.35468   0.35553   0.35582
     Eigenvalues ---    0.35803   0.35817   0.36078   0.36083   0.36205
     Eigenvalues ---    0.36396   0.36662   0.39352   0.40187   0.40194
     Eigenvalues ---    0.40651   0.40716   0.41524   0.41705   0.41919
     Eigenvalues ---    0.42300   0.42649   0.43455   0.43896   0.44092
     Eigenvalues ---    0.44570   0.44594   0.45014   0.45406   0.46251
     Eigenvalues ---    0.47305   0.47626   0.49310   0.49597   0.53060
     Eigenvalues ---    0.53319   0.93281   0.93432   0.93989   0.94585
     Eigenvalues --- 1000.000001000.000001000.000001000.000001000.00000
     Eigenvalues --- 1000.000001000.000001000.000001000.000001000.00000
     Eigenvalues --- 1000.000001000.000001000.000001000.000001000.00000
     Eigenvalues --- 1000.000001000.000001000.000001000.000001000.00000
     Eigenvalues --- 1000.000001000.000001000.000001000.000001000.00000
     Eigenvalues --- 1000.000001000.000001000.000001000.000001000.00000
     Eigenvalues --- 1000.000001000.000001000.000001000.000001000.00000
     Eigenvalues --- 1000.000001000.000001000.000001000.000001000.00000
     Eigenvalues --- 1000.000001000.000001000.000001000.000001000.00000
     Eigenvalues --- 1000.000001000.000001000.000001000.000001000.00000
     Eigenvalues --- 1000.000001000.000001000.000001000.000001000.00000
     Eigenvalues --- 1000.000001000.000001000.000001000.000001000.00000
     Eigenvalues --- 1000.000001000.000001000.000001000.000001000.00000
     Eigenvalues --- 1000.000001000.000001000.000001000.000001000.00000
     Eigenvalues --- 1000.000001000.000001000.000001000.000001000.00000
     Eigenvalues --- 1000.000001000.000001000.000001000.000001000.00000
     Eigenvalues --- 1000.000001000.000001000.000001000.000001000.00000
     Eigenvalues --- 1000.000001000.000001000.000001000.000001000.00000
     Eigenvalues --- 1000.000001000.000001000.000001000.000001000.00000
     Eigenvalues --- 1000.000001000.000001000.000001000.000001000.00000
     Eigenvalues --- 1000.000001000.000001000.000001000.000001000.00000
     Eigenvalues --- 1000.000001000.000001000.000001000.000001000.00000
     Eigenvalues --- 1000.000001000.000001000.000001000.000001000.00000
     Eigenvalues --- 1000.000001000.000001000.000001000.000001000.00000
     Eigenvalues --- 1000.000001000.000001000.000001000.000001000.00000
     Eigenvalues --- 1000.000001000.000001000.000001000.000001000.00000
     Eigenvalues --- 1000.000001000.000001000.000001000.000001000.00000
     Eigenvalues --- 1000.000001000.000001000.000001000.000001000.00000
     Eigenvalues --- 1000.000001000.00000
 RFO step:  Lambda=-5.04573730D-02 EMin= 8.02933640D-03
 Linear search not attempted -- first point.
 Maximum step size (   0.300) exceeded in Quadratic search.
    -- Step size scaled by   0.848
 Iteration  1 RMS(Cart)=  0.25913872 RMS(Int)=  0.00521407
 Iteration  2 RMS(Cart)=  0.03259253 RMS(Int)=  0.00039240
 Iteration  3 RMS(Cart)=  0.00030430 RMS(Int)=  0.00038582
 Iteration  4 RMS(Cart)=  0.00000031 RMS(Int)=  0.00038582
 Iteration  1 RMS(Cart)=  0.00003970 RMS(Int)=  0.00000689
 Iteration  2 RMS(Cart)=  0.00002257 RMS(Int)=  0.00000768
 Iteration  3 RMS(Cart)=  0.00001283 RMS(Int)=  0.00000872
 Iteration  4 RMS(Cart)=  0.00000730 RMS(Int)=  0.00000944
 Iteration  5 RMS(Cart)=  0.00000415 RMS(Int)=  0.00000988
 Iteration  6 RMS(Cart)=  0.00000236 RMS(Int)=  0.00001013
 Iteration  7 RMS(Cart)=  0.00000134 RMS(Int)=  0.00001028
 Iteration  8 RMS(Cart)=  0.00000076 RMS(Int)=  0.00001037
 Variable       Old X    -DE/DX   Delta X   Delta X   Delta X     New X
                                 (Linear)    (Quad)   (Total)
    R1        2.80935  -0.02355   0.00000  -0.05173  -0.05172   2.75763
    R2        2.64584   0.00155   0.00000   0.00205   0.00204   2.64788
    R3        2.31147   0.03602   0.00000   0.03085   0.03085   2.34232
    R4        2.67311   0.00062   0.00000   0.00064   0.00064   2.67375
    R5        2.59267   0.02518   0.00000   0.03655   0.03648   2.62916
    R6        2.66894   0.00671   0.00000   0.01264   0.01266   2.68160
    R7        2.69164   0.01202   0.00000   0.02466   0.02472   2.71636
    R8        2.81049  -0.02259   0.00000  -0.04902  -0.04903   2.76147
    R9        2.62173   0.02681   0.00000   0.04209   0.04204   2.66377
   R10        2.65570   0.00065   0.00000   0.00082   0.00080   2.65650
   R11        2.30889   0.03718   0.00000   0.03165   0.03165   2.34054
   R12        2.70248  -0.02823   0.00000  -0.05358  -0.05362   2.64886
   R13        2.04786  -0.00056   0.00000  -0.00118  -0.00118   2.04668
   R14        2.70495   0.01651   0.00000   0.03475   0.03486   2.73982
   R15        2.68322   0.00927   0.00000   0.01864   0.01861   2.70183
   R16        2.68655   0.04976   0.00000   0.09006   0.09013   2.77668
   R17        2.81233  -0.01210   0.00000  -0.02566  -0.02554   2.78679
   R18        2.76359   0.01574   0.00000   0.03200   0.03200   2.79560
   R19        2.66221   0.00282   0.00000   0.00374   0.00381   2.66602
   R20        2.31391   0.02605   0.00000   0.02243   0.02243   2.33634
   R21        2.79415  -0.02706   0.00000  -0.05862  -0.05877   2.73538
   R22        2.63842  -0.00438   0.00000  -0.00895  -0.00900   2.62942
   R23        2.31456   0.03591   0.00000   0.03097   0.03097   2.34554
   R24        2.62448   0.02877   0.00000   0.04604   0.04603   2.67052
   R25        2.64561  -0.02710   0.00000  -0.04673  -0.04678   2.59883
   R26        2.04921  -0.00082   0.00000  -0.00172  -0.00172   2.04749
   R27        2.04741  -0.00030   0.00000  -0.00062  -0.00062   2.04679
   R28        2.77259   0.00005   0.00000   0.00010   0.00010   2.77270
   R29        2.77252   0.00009   0.00000   0.00018   0.00018   2.77270
   R30        2.06176  -0.00001   0.00000  -0.00002  -0.00002   2.06174
   R31        2.06551  -0.00117   0.00000  -0.00250  -0.00250   2.06301
   R32        2.05322  -0.00080   0.00000  -0.00168  -0.00168   2.05154
   R33        2.06368  -0.00062   0.00000  -0.00133  -0.00133   2.06234
   R34        2.06281  -0.00014   0.00000  -0.00029  -0.00029   2.06252
   R35        2.05355  -0.00094   0.00000  -0.00198  -0.00198   2.05157
   R36        2.60999   0.00178   0.00000   0.00319   0.00322   2.61321
   R37        3.33311   0.00213   0.00000   0.00576   0.00578   3.33889
   R38        2.66325   0.00651   0.00000   0.01122   0.01123   2.67448
   R39        2.03761  -0.00641   0.00000  -0.01318  -0.01318   2.02443
   R40        3.30425   0.00439   0.00000   0.00999   0.00996   3.31421
   R41        2.64299  -0.00700   0.00000  -0.01209  -0.01212   2.63088
   R42        2.56897   0.00562   0.00000   0.00821   0.00821   2.57718
   R43        2.71301   0.00567   0.00000   0.01064   0.01064   2.72364
   R44        2.69301   0.00290   0.00000   0.00527   0.00527   2.69827
   R45        2.63416  -0.00006   0.00000  -0.00011  -0.00011   2.63405
   R46        3.32864   0.00155   0.00000   0.00392   0.00392   3.33256
   R47        2.05986  -0.00081   0.00000  -0.00173  -0.00173   2.05813
   R48        2.07239  -0.00186   0.00000  -0.00404  -0.00404   2.06835
   R49        2.07102  -0.00146   0.00000  -0.00316  -0.00316   2.06786
   R50        2.69054   0.00180   0.00000   0.00317   0.00317   2.69371
   R51        2.56657   0.00518   0.00000   0.00752   0.00752   2.57409
   R52        3.26324   0.00164   0.00000   0.00372   0.00372   3.26696
   R53        2.58650  -0.00206   0.00000  -0.00315  -0.00315   2.58334
   R54        2.04369  -0.00071   0.00000  -0.00147  -0.00147   2.04222
   R55        2.69026   0.00277   0.00000   0.00500   0.00500   2.69527
   R56        2.04391  -0.00150   0.00000  -0.00311  -0.00311   2.04080
   R57        2.07435  -0.00208   0.00000  -0.00452  -0.00452   2.06982
   R58        2.05845  -0.00058   0.00000  -0.00124  -0.00124   2.05721
   R59        2.07269  -0.00154   0.00000  -0.00334  -0.00334   2.06935
    A1        2.03797  -0.00130   0.00000  -0.00472  -0.00471   2.03326
    A2        2.14521   0.00622   0.00000   0.01807   0.01806   2.16327
    A3        2.10001  -0.00492   0.00000  -0.01336  -0.01336   2.08665
    A4        2.10395   0.00054   0.00000   0.00357   0.00358   2.10753
    A5        2.08282  -0.00088   0.00000  -0.00115  -0.00120   2.08163
    A6        2.09624   0.00034   0.00000  -0.00234  -0.00232   2.09392
    A7        2.10093   0.00005   0.00000  -0.00176  -0.00181   2.09912
    A8        2.07104  -0.00086   0.00000  -0.00332  -0.00327   2.06777
    A9        2.11118   0.00082   0.00000   0.00510   0.00510   2.11628
   A10        2.10296  -0.00067   0.00000  -0.00044  -0.00041   2.10256
   A11        2.09911   0.00207   0.00000   0.00577   0.00573   2.10484
   A12        2.08110  -0.00140   0.00000  -0.00532  -0.00532   2.07578
   A13        2.03739  -0.00162   0.00000  -0.00418  -0.00419   2.03320
   A14        2.12972   0.00692   0.00000   0.01932   0.01932   2.14904
   A15        2.11607  -0.00529   0.00000  -0.01514  -0.01513   2.10094
   A16        2.15098   0.00954   0.00000   0.02541   0.02536   2.17634
   A17        2.04399  -0.00242   0.00000  -0.00290  -0.00303   2.04096
   A18        2.08722  -0.00700   0.00000  -0.02149  -0.02159   2.06563
   A19        2.11101   0.00242   0.00000   0.00741   0.00748   2.11849
   A20        2.04385  -0.00800   0.00000  -0.02366  -0.02369   2.02016
   A21        2.12832   0.00558   0.00000   0.01628   0.01621   2.14453
   A22        2.08678  -0.00872   0.00000  -0.02114  -0.02135   2.06544
   A23        2.04738  -0.01393   0.00000  -0.03531  -0.03555   2.01183
   A24        2.14662   0.02288   0.00000   0.05958   0.05900   2.20562
   A25        2.04892  -0.00265   0.00000  -0.00611  -0.00605   2.04287
[...]
 Alpha  occ. eigenvalues --   -0.49546  -0.48119  -0.47356  -0.47030  -0.46922
 Alpha  occ. eigenvalues --   -0.46681  -0.46143  -0.45786  -0.45478  -0.44910
 Alpha  occ. eigenvalues --   -0.44456  -0.44292  -0.44175  -0.42621  -0.41949
 Alpha  occ. eigenvalues --   -0.41751  -0.41102  -0.40831  -0.40508  -0.40439
 Alpha  occ. eigenvalues --   -0.40238  -0.40010  -0.39081  -0.38394  -0.38262
 Alpha  occ. eigenvalues --   -0.38194  -0.37693  -0.37416  -0.37014  -0.36903
 Alpha  occ. eigenvalues --   -0.36393  -0.36113  -0.35072  -0.34969  -0.34474
 Alpha  occ. eigenvalues --   -0.33368  -0.32941  -0.32747  -0.32606  -0.31653
 Alpha  occ. eigenvalues --   -0.30331  -0.27905  -0.26717  -0.26453  -0.25830
 Alpha  occ. eigenvalues --   -0.25702  -0.24991  -0.24695  -0.24287  -0.23873
 Alpha  occ. eigenvalues --   -0.23713  -0.22863  -0.20924  -0.18019  -0.13235
 Alpha virt. eigenvalues --   -0.04936  -0.03354  -0.01402  -0.00471  -0.00041
 Alpha virt. eigenvalues --    0.00615   0.00868   0.00989   0.01545   0.01645
 Alpha virt. eigenvalues --    0.02026   0.02571   0.02760   0.03122   0.03204
 Alpha virt. eigenvalues --    0.03398   0.03633   0.04063   0.04230   0.04426
 Alpha virt. eigenvalues --    0.04502   0.04777   0.05075   0.05190   0.05314
 Alpha virt. eigenvalues --    0.05638   0.05686   0.06208   0.06447   0.06648
 Alpha virt. eigenvalues --    0.06961   0.07087   0.07635   0.07672   0.07823
 Alpha virt. eigenvalues --    0.08085   0.08188   0.08637   0.08991   0.09176
 Alpha virt. eigenvalues --    0.09443   0.09736   0.09881   0.10059   0.10496
 Alpha virt. eigenvalues --    0.10671   0.10993   0.11065   0.11532   0.11627
 Alpha virt. eigenvalues --    0.12072   0.12268   0.12369   0.12590   0.13125
 Alpha virt. eigenvalues --    0.13406   0.13521   0.14017   0.14459   0.14527
 Alpha virt. eigenvalues --    0.14671   0.14693   0.15066   0.15259   0.15440
 Alpha virt. eigenvalues --    0.15617   0.15841   0.16143   0.16564   0.16618
 Alpha virt. eigenvalues --    0.16958   0.16983   0.17203   0.17366   0.17704
 Alpha virt. eigenvalues --    0.17800   0.18288   0.18525   0.18809   0.19048
 Alpha virt. eigenvalues --    0.19120   0.19458   0.19595   0.19646   0.19845
 Alpha virt. eigenvalues --    0.20214   0.20304   0.20453   0.20557   0.20931
 Alpha virt. eigenvalues --    0.21072   0.21348   0.21520   0.21677   0.21865
 Alpha virt. eigenvalues --    0.22031   0.22318   0.22457   0.22554   0.22733
 Alpha virt. eigenvalues --    0.23265   0.23545   0.23626   0.23827   0.23953
 Alpha virt. eigenvalues --    0.24130   0.24481   0.24690   0.24889   0.25037
 Alpha virt. eigenvalues --    0.25077   0.25274   0.25725   0.25841   0.25936
 Alpha virt. eigenvalues --    0.26254   0.26363   0.26576   0.26733   0.26823
 Alpha virt. eigenvalues --    0.27153   0.27224   0.27575   0.27804   0.27904
 Alpha virt. eigenvalues --    0.28257   0.28310   0.28573   0.28697   0.28804
 Alpha virt. eigenvalues --    0.29010   0.29293   0.29471   0.29554   0.29694
 Alpha virt. eigenvalues --    0.30011   0.30245   0.30417   0.30520   0.30824
 Alpha virt. eigenvalues --    0.31208   0.31372   0.31527   0.31734   0.31826
 Alpha virt. eigenvalues --    0.32169   0.32384   0.32635   0.32956   0.33129
 Alpha virt. eigenvalues --    0.33415   0.33725   0.33812   0.34079   0.34538
 Alpha virt. eigenvalues --    0.34631   0.34649   0.34907   0.35255   0.35968
 Alpha virt. eigenvalues --    0.36098   0.36378   0.36487   0.36888   0.37452
 Alpha virt. eigenvalues --    0.37887   0.38410   0.38601   0.39135   0.39510
 Alpha virt. eigenvalues --    0.39775   0.40265   0.40560   0.40736   0.40946
 Alpha virt. eigenvalues --    0.41483   0.41716   0.42235   0.42497   0.43092
 Alpha virt. eigenvalues --    0.43408   0.43909   0.44106   0.44606   0.44826
 Alpha virt. eigenvalues --    0.45328   0.45642   0.45955   0.46247   0.46920
 Alpha virt. eigenvalues --    0.47281   0.47657   0.48018   0.48340   0.48753
 Alpha virt. eigenvalues --    0.49565   0.50169   0.50562   0.50871   0.51053
 Alpha virt. eigenvalues --    0.51655   0.51858   0.52044   0.52791   0.53275
 Alpha virt. eigenvalues --    0.53664   0.54344   0.54883   0.55611   0.56047
 Alpha virt. eigenvalues --    0.56344   0.56720   0.57275   0.57393   0.57837
 Alpha virt. eigenvalues --    0.58145   0.58507   0.58846   0.58985   0.59836
 Alpha virt. eigenvalues --    0.59900   0.60512   0.60854   0.61337   0.61928
 Alpha virt. eigenvalues --    0.62132   0.62292   0.62711   0.63047   0.63512
 Alpha virt. eigenvalues --    0.64265   0.64695   0.64977   0.65181   0.65659
 Alpha virt. eigenvalues --    0.65869   0.66565   0.66922   0.67045   0.67488
 Alpha virt. eigenvalues --    0.67958   0.68081   0.68280   0.68739   0.68950
 Alpha virt. eigenvalues --    0.69184   0.69780   0.70166   0.70517   0.71218
 Alpha virt. eigenvalues --    0.71770   0.72009   0.72351   0.72785   0.73241
 Alpha virt. eigenvalues --    0.73611   0.73888   0.74166   0.74757   0.75071
 Alpha virt. eigenvalues --    0.75197   0.75431   0.75800   0.75896   0.76156
 Alpha virt. eigenvalues --    0.76719   0.76939   0.77076   0.77656   0.77989
 Alpha virt. eigenvalues --    0.78185   0.78395   0.78568   0.79282   0.79315
 Alpha virt. eigenvalues --    0.79896   0.80362   0.80724   0.81296   0.82111
 Alpha virt. eigenvalues --    0.82484   0.82983   0.83391   0.83933   0.85072
 Alpha virt. eigenvalues --    0.85356   0.85560   0.86426   0.87644   0.88062
 Alpha virt. eigenvalues --    0.88809   0.88963   0.89669   0.90586   0.90753
 Alpha virt. eigenvalues --    0.91928   0.92280   0.92662   0.93096   0.93468
 Alpha virt. eigenvalues --    0.93933   0.94392   0.95314   0.95415   0.95752
 Alpha virt. eigenvalues --    0.96550   0.96869   0.97202   0.97644   0.98325
 Alpha virt. eigenvalues --    0.98531   0.98799   0.99410   0.99695   1.00778
 Alpha virt. eigenvalues --    1.00925   1.01620   1.02029   1.02286   1.02597
 Alpha virt. eigenvalues --    1.03057   1.03663   1.04381   1.04729   1.05003
 Alpha virt. eigenvalues --    1.05427   1.05718   1.06150   1.06714   1.06991
 Alpha virt. eigenvalues --    1.07404   1.07752   1.07924   1.08427   1.08772
 Alpha virt. eigenvalues --    1.09137   1.09956   1.10247   1.10672   1.11141
 Alpha virt. eigenvalues --    1.11604   1.11972   1.12852   1.13688   1.13831
 Alpha virt. eigenvalues --    1.14818   1.15596   1.16628   1.16978   1.17679
 Alpha virt. eigenvalues --    1.18279   1.18374   1.18966   1.21122   1.21454
 Alpha virt. eigenvalues --    1.21971   1.22439   1.23591   1.24099   1.24334
 Alpha virt. eigenvalues --    1.25016   1.25735   1.25862   1.26865   1.27471
 Alpha virt. eigenvalues --    1.28563   1.28679   1.29569   1.30973   1.31306
 Alpha virt. eigenvalues --    1.31718   1.32401   1.32867   1.33437   1.33689
 Alpha virt. eigenvalues --    1.35212   1.35751   1.36203   1.36851   1.37694
 Alpha virt. eigenvalues --    1.38917   1.39165   1.40390   1.40893   1.41374
 Alpha virt. eigenvalues --    1.43284   1.43901   1.44064   1.44479   1.44614
 Alpha virt. eigenvalues --    1.45224   1.46003   1.46385   1.47098   1.47500
 Alpha virt. eigenvalues --    1.47994   1.48991   1.49372   1.49650   1.50402
 Alpha virt. eigenvalues --    1.50691   1.51583   1.51736   1.53376   1.53723
 Alpha virt. eigenvalues --    1.54186   1.54680   1.55012   1.55290   1.55677
 Alpha virt. eigenvalues --    1.56117   1.56353   1.56828   1.57069   1.57424
 Alpha virt. eigenvalues --    1.57956   1.58833   1.59669   1.60074   1.61008
 Alpha virt. eigenvalues --    1.61438   1.62824   1.63241   1.63604   1.63636
 Alpha virt. eigenvalues --    1.64091   1.64849   1.65142   1.66521   1.67328
 Alpha virt. eigenvalues --    1.67630   1.67985   1.69248   1.70150   1.70696
 Alpha virt. eigenvalues --    1.70979   1.71718   1.71909   1.72851   1.73669
 Alpha virt. eigenvalues --    1.74334   1.74435   1.75164   1.75657   1.76246
 Alpha virt. eigenvalues --    1.76902   1.77169   1.77567   1.78227   1.78984
 Alpha virt. eigenvalues --    1.79374   1.79998   1.80297   1.81207   1.81407
 Alpha virt. eigenvalues --    1.82396   1.82689   1.83551   1.84459   1.85417
 Alpha virt. eigenvalues --    1.85847   1.86926   1.87793   1.88771   1.88971
 Alpha virt. eigenvalues --    1.89980   1.91038   1.91515   1.91750   1.92796
 Alpha virt. eigenvalues --    1.92798   1.93469   1.94068   1.94823   1.95420
 Alpha virt. eigenvalues --    1.95723   1.97150   1.97671   1.97979   1.99550
 Alpha virt. eigenvalues --    1.99901   2.00882   2.01503   2.02051   2.02595
 Alpha virt. eigenvalues --    2.02814   2.03453   2.04562   2.04669   2.04868
 Alpha virt. eigenvalues --    2.05833   2.06478   2.06983   2.07897   2.08359
 Alpha virt. eigenvalues --    2.08979   2.09375   2.09744   2.10357   2.11132
 Alpha virt. eigenvalues --    2.11653   2.12333   2.12725   2.13482   2.14380
 Alpha virt. eigenvalues --    2.14933   2.16623   2.16918   2.17562   2.18431
 Alpha virt. eigenvalues --    2.19613   2.20100   2.20657   2.21531   2.22021
 Alpha virt. eigenvalues --    2.22735   2.23531   2.24189   2.24828   2.26198
 Alpha virt. eigenvalues --    2.27639   2.30277   2.31864   2.32621   2.35481
 Alpha virt. eigenvalues --    2.36255   2.37801   2.39075   2.40581   2.41963
 Alpha virt. eigenvalues --    2.42452   2.43314   2.44023   2.44619   2.44826
 Alpha virt. eigenvalues --    2.45590   2.46967   2.47636   2.48117   2.48921
 Alpha virt. eigenvalues --    2.50028   2.50437   2.50758   2.52141   2.52897
 Alpha virt. eigenvalues --    2.53259   2.54176   2.54312   2.54875   2.55433
 Alpha virt. eigenvalues --    2.55734   2.56690   2.57566   2.57896   2.59447
 Alpha virt. eigenvalues --    2.61148   2.61277   2.62510   2.63588   2.64892
 Alpha virt. eigenvalues --    2.65755   2.67226   2.67944   2.68625   2.68964
 Alpha virt. eigenvalues --    2.69222   2.70219   2.70999   2.71752   2.72172
 Alpha virt. eigenvalues --    2.72986   2.73937   2.74635   2.75249   2.75421
 Alpha virt. eigenvalues --    2.75868   2.76714   2.77579   2.77641   2.79479
 Alpha virt. eigenvalues --    2.80266   2.81691   2.82775   2.83619   2.84262
 Alpha virt. eigenvalues --    2.84641   2.85207   2.86143   2.86951   2.87242
 Alpha virt. eigenvalues --    2.87474   2.88561   2.89665   2.90865   2.91389
 Alpha virt. eigenvalues --    2.92652   2.92964   2.93750   2.94387   2.95174
 Alpha virt. eigenvalues --    2.95824   2.96536   2.96629   2.97531   2.98884
 Alpha virt. eigenvalues --    2.99168   3.00207   3.00710   3.01296   3.03374
 Alpha virt. eigenvalues --    3.04237   3.05624   3.06654   3.08065   3.09443
 Alpha virt. eigenvalues --    3.10155   3.10726   3.12555   3.13276   3.14531
 Alpha virt. eigenvalues --    3.15615   3.17417   3.18433   3.19784   3.21292
 Alpha virt. eigenvalues --    3.22174   3.22487   3.22930   3.23641   3.24066
 Alpha virt. eigenvalues --    3.24750   3.25891   3.27247   3.30780   3.31884
 Alpha virt. eigenvalues --    3.32163   3.33115   3.33751   3.35402   3.35933
 Alpha virt. eigenvalues --    3.36165   3.37478   3.37648   3.40360   3.41070
 Alpha virt. eigenvalues --    3.41561   3.42381   3.43162   3.43758   3.45348
 Alpha virt. eigenvalues --    3.46007   3.48313   3.49853   3.52439   3.52879
 Alpha virt. eigenvalues --    3.55116   3.56258   3.60405   3.61718   3.63138
 Alpha virt. eigenvalues --    3.64024   3.67448   3.69038   3.69840   3.72979
 Alpha virt. eigenvalues --    3.73187   3.75028   3.76628   3.77365   3.78103
 Alpha virt. eigenvalues --    3.78452   3.82933   3.85161   3.85581   3.87821
 Alpha virt. eigenvalues --    3.88726   3.93312   3.95166   3.96400   3.97047
 Alpha virt. eigenvalues --    3.98454   4.00595   4.03887   4.06285   4.07997
 Alpha virt. eigenvalues --    4.08847   4.10997   4.14917   4.16567   4.21145
 Alpha virt. eigenvalues --    4.25796   4.29870   4.31862   4.40674   4.43913
 Alpha virt. eigenvalues --    4.45692   4.53737   4.69282   4.85708   4.87787
 Alpha virt. eigenvalues --    4.91053   4.94059   5.02458   5.03473   5.08419
 Alpha virt. eigenvalues --    5.10104   5.10272   5.15527   5.16982   5.17797
 Alpha virt. eigenvalues --    5.28262   5.29793   5.31704   5.33280   5.42455
 Alpha virt. eigenvalues --    5.43637   5.76400   5.78596   5.80427   5.82614
 Alpha virt. eigenvalues --    5.84999   5.86534   8.02520   8.05301  17.29765
 Alpha virt. eigenvalues --   17.34360  17.50091  17.52828  17.59129  17.63723
 Alpha virt. eigenvalues --   23.52568  23.59501  23.72829  23.81982  23.83960
 Alpha virt. eigenvalues --   23.85706  23.88597  23.90582  23.91947  23.92261
 Alpha virt. eigenvalues --   23.92841  23.93583  23.94872  23.95559  23.97391
 Alpha virt. eigenvalues --   23.98022  23.99751  24.03125  24.04281  24.04876
 Alpha virt. eigenvalues --   24.05260  24.06506  24.13841  24.16175  24.17522
 Alpha virt. eigenvalues --   24.22718  35.58979  35.61534  49.96904  49.98392
 Alpha virt. eigenvalues --   50.05553  50.07078  50.08896  50.10021 189.19764
 Alpha virt. eigenvalues --  189.23211
          Condensed to atoms (all electrons):
 Mulliken charges:
               1
     1  C    0.308868
     2  C   -0.205538
     3  C    0.086733
     4  C    0.181442
     5  C    0.210251
     6  C   -0.335102
     7  C    0.218170
     8  C    0.305853
     9  C    0.345425
    10  C   -0.573088
    11  C    0.238000
    12  C    0.065859
    13  C   -0.505377
    14  C   -0.593616
    15  H    0.123347
    16  H    0.123802
    17  H    0.134925
    18  N   -0.074403
    19  N   -0.154705
    20  O   -0.526522
    21  O   -0.504535
    22  O   -0.516996
    23  O   -0.425630
    24  C   -0.188075
    25  H    0.162611
    26  H    0.162439
    27  H    0.166269
    28  C   -0.201343
    29  H    0.159139
    30  H    0.162065
    31  H    0.167839
    32  C    0.034664
    33  C   -0.495503
    34  S   -0.597691
    35  C   -0.368706
    36  H    0.147624
    37  C    0.637080
    38  O   -0.168970
    39  C    0.786198
    40  C   -0.235412
    41  C    0.022704
    42  S   -0.233642
    43  H    0.172188
    44  H    0.159109
    45  H    0.159224
    46  C   -0.599550
    47  O   -0.168361
    48  C   -0.341429
    49  H    0.156746
    50  C   -0.250395
    51  H    0.183421
    52  H    0.156515
    53  H    0.170906
    54  H    0.155174
 Sum of Mulliken charges =  -2.00000
 Mulliken charges with hydrogens summed into heavy atoms:
               1
     1  C    0.308868
     2  C   -0.205538
     3  C    0.086733
     4  C    0.181442
     5  C    0.210251
     6  C   -0.200177
     7  C    0.218170
     8  C    0.305853
     9  C    0.345425
    10  C   -0.573088
    11  C    0.238000
    12  C    0.065859
    13  C   -0.381575
    14  C   -0.470268
    18  N   -0.074403
    19  N   -0.154705
    20  O   -0.526522
    21  O   -0.504535
    22  O   -0.516996
    23  O   -0.425630
    24  C    0.303244
    28  C    0.287700
    32  C    0.034664
    33  C   -0.347879
    34  S   -0.597691
    35  C   -0.368706
    37  C    0.637080
    38  O   -0.168970
    39  C    0.786198
    40  C    0.255110
    41  C    0.022704
    42  S   -0.233642
    46  C   -0.442805
    47  O   -0.168361
    48  C   -0.158009
    50  C    0.232200
 Electronic spatial extent (au):  <R**2>=          22799.3309
 Charge=             -2.0000 electrons
 Dipole moment (field-independent basis, Debye):
    X=             26.8274    Y=             -0.7808    Z=              1.8145  Tot=             26.9000
 Quadrupole moment (field-independent basis, Debye-Ang):
   XX=           -377.7722   YY=           -291.7638   ZZ=           -231.7463
   XY=            -10.2769   XZ=             -0.2792   YZ=             26.6534
 Traceless Quadrupole moment (field-independent basis, Debye-Ang):
   XX=            -77.3448   YY=              8.6637   ZZ=             68.6811
   XY=            -10.2769   XZ=             -0.2792   YZ=             26.6534
 Octapole moment (field-independent basis, Debye-Ang**2):
  XXX=           1051.2209  YYY=            -28.2823  ZZZ=              3.6330  XYY=            347.6062
  XXY=            -77.3483  XXZ=            -71.0948  XZZ=             41.2263  YZZ=             -7.4588
  YYZ=             13.7987  XYZ=             18.8307
 Hexadecapole moment (field-independent basis, Debye-Ang**3):
 XXXX=         -26583.6747 YYYY=          -8606.1059 ZZZZ=          -1152.9614 XXXY=          -1053.0108
 XXXZ=              8.3607 YYYX=            350.0161 YYYZ=            323.8512 ZZZX=            -19.9045
 ZZZY=             93.3278 XXYY=          -6060.1232 XXZZ=          -4056.9198 YYZZ=          -1431.1928
 XXYZ=            491.1417 YYXZ=            -79.6084 ZZXY=             -3.2482
 N-N= 4.074987714542D+03 E-N=-1.375172578133D+04  KE= 2.352164005878D+03
 Unable to Open any file for archive entry.
 1\1\GINC-CX3-1-4\FOpt\RB3LYP\6-311+G(d,p)\C26H18N2O6S2(2-)\NS5018\28-O
 ct-2021\0\\# opt=modredundant b3lyp/6-311+g(d,p) scrf=(pcm, solvent=wa
 ter)\\NDI_35.pdb\\-2,1\C,-2.7224705936,-2.9097285622,-0.690659279\C,-2
 .3816255033,-1.5302401942,-0.4980601321\C,-3.3465475645,-0.6202336714,
 0.0041176307\C,-4.6561148355,-1.049676562,0.3241663162\C,-5.0288575274
 ,-2.4274375038,0.1471864895\C,-1.0475986436,-1.0923574145,-0.719684463
 \C,-2.9760864431,0.7678758482,0.1700152449\C,-1.6591417975,1.205133986
 8,-0.1671021803\C,-0.6526221393,0.2148007,-0.5447448022\C,-1.418773093
 5,2.6203921289,-0.2504468714\C,-3.6740442565,3.0718212891,0.7463683982
 \C,-3.9690535234,1.6729941615,0.6286693881\C,-5.2835994699,1.20535078,
 0.9549337031\C,-5.6183733523,-0.1083213463,0.8135748207\H,-6.612672590
 9,-0.4635880412,1.05363161\H,-6.0053282529,1.9310689555,1.3089418581\H
 ,-0.3118029519,-1.8526890704,-0.9494630616\N,-2.4051470015,3.468675386
 2,0.3076559682\N,-4.0372401853,-3.2859357273,-0.3653394423\O,-1.935155
 2081,-3.7868817416,-1.1201137744\O,-6.1649881845,-2.8837593432,0.41702
 08217\O,-4.4809957929,3.9293626769,1.1825984164\O,-0.4269831537,3.1660
 247881,-0.7845207168\C,-2.0954724346,4.8999399222,0.3259152979\H,-1.05
 86478912,5.0416384222,0.6237415588\H,-2.2299023818,5.3446880523,-0.664
 531557\H,-2.7698706475,5.3827260581,1.0264919141\C,-4.3762720116,-4.69
 58260027,-0.5724515225\H,-4.1652815915,-4.9832220323,-1.6030279882\H,-
 3.7810663078,-5.3319901405,0.0861271437\H,-5.4312731961,-4.8232323534,
 -0.3535551597\C,0.7884668716,0.4923891421,-0.5513175353\C,1.5319743579
 ,1.2872210309,0.2881586857\S,1.8302791107,-0.2851878006,-1.7314396788\
 C,2.9244638827,1.2463962953,0.0197802718\H,1.0865379578,1.8741861198,1
 .0758224317\C,3.2905570518,0.438040119,-1.0480995067\O,3.8911355315,1.
 9144316217,0.7154461513\C,4.6105279445,0.1790666481,-1.5668916236\C,3.
 4830198602,2.7243599418,1.8210823873\C,4.9759157023,-0.6072941131,-2.6
 52734057\S,6.0654970942,0.8716259479,-0.8469105103\H,4.395471415,3.158
 2622148,2.2258597802\H,2.8113874583,3.5237438248,1.4960816825\H,2.9930
 405076,2.1206696614,2.5902473291\C,6.3790069268,-0.6555224171,-2.89967
 34288\O,4.0124564802,-1.2476112894,-3.3784946217\C,7.0902932026,0.0936
 553017,-2.006054599\H,6.8379119204,-1.216110256,-3.7012456169\C,4.4345
 065414,-2.0619516411,-4.474874282\H,8.1585092822,0.2397714129,-1.96023
 70789\H,5.0832549002,-2.8744362236,-4.1348486791\H,3.5256113505,-2.479
 0543005,-4.9042898556\H,4.9541831768,-1.4660246898,-5.2308232756\\Vers
 ion=ES64L-G16RevC.01\State=1-A\HF=-2359.625117\RMSD=1.464e-09\RMSF=4.0
 32e-04\Dipole=10.4607076,0.1775022,-1.5962755\Quadrupole=-52.624255,-2
 .2002424,54.8244974,-10.1925085,20.4403238,4.1549414\PG=C01 [X(C26H18N
 2O6S2)]\\@
 The archive entry for this job was punched.


 IF OTHER PEOPLE ARE GOING TO TALK, CONVERSATION IS SIMPLY IMPOSSIBLE.

                                               -- WHISTLER'S PRINCIPLE
 Job cpu time:       3 days  5 hours 34 minutes 22.0 seconds.
 Elapsed time:       0 days  4 hours 54 minutes 14.7 seconds.
 File lengths (MBytes):  RWF=   1024 Int=      0 D2E=      0 Chk=     65 Scr=      1
 Normal termination of Gaussian 16 at Thu Oct 28 13:31:32 2021.
