 Entering Gaussian System, Link 0=g16
 Input=NDI_-55.gjf
 Output=NDI_-55.log
 Initial command:
 /apps/gaussian/g16-c01-avx/g16/l1.exe "/tmp/pbs.4768676[120].pbs/Gau-2209556.inp" -scrdir="/tmp/pbs.4768676[120].pbs/"
 Entering Link 1 = /apps/gaussian/g16-c01-avx/g16/l1.exe PID=   2209557.
  
 Copyright (c) 1988-2019, Gaussian, Inc.  All Rights Reserved.
  
 This is part of the Gaussian(R) 16 program.  It is based on
 the Gaussian(R) 09 system (copyright 2009, Gaussian, Inc.),
 the Gaussian(R) 03 system (copyright 2003, Gaussian, Inc.),
 the Gaussian(R) 98 system (copyright 1998, Gaussian, Inc.),
 the Gaussian(R) 94 system (copyright 1995, Gaussian, Inc.),
 the Gaussian 92(TM) system (copyright 1992, Gaussian, Inc.),
 the Gaussian 90(TM) system (copyright 1990, Gaussian, Inc.),
 the Gaussian 88(TM) system (copyright 1988, Gaussian, Inc.),
 the Gaussian 86(TM) system (copyright 1986, Carnegie Mellon
 University), and the Gaussian 82(TM) system (copyright 1983,
 Carnegie Mellon University). Gaussian is a federally registered
 trademark of Gaussian, Inc.
  
 This software contains proprietary and confidential information,
 including trade secrets, belonging to Gaussian, Inc.
  
 This software is provided under written license and may be
 used, copied, transmitted, or stored only in accord with that
 written license.
  
 The following legend is applicable only to US Government
 contracts under FAR:
  
                    RESTRICTED RIGHTS LEGEND
  
 Use, reproduction and disclosure by the US Government is
 subject to restrictions as set forth in subparagraphs (a)
 and (c) of the Commercial Computer Software - Restricted
 Rights clause in FAR 52.227-19.
  
 Gaussian, Inc.
 340 Quinnipiac St., Bldg. 40, Wallingford CT 06492
  
  
 ---------------------------------------------------------------
 Warning -- This program may not be used in any manner that
 competes with the business of Gaussian, Inc. or will provide
 assistance to any competitor of Gaussian, Inc.  The licensee
 of this program is prohibited from giving any competitor of
 Gaussian, Inc. access to this program.  By using this program,
 the user acknowledges that Gaussian, Inc. is engaged in the
 business of creating and licensing software in the field of
 computational chemistry and represents and warrants to the
 licensee that it is not a competitor of Gaussian, Inc. and that
 it will not use this program in any manner prohibited above.
 ---------------------------------------------------------------
  

 Cite this work as:
 Gaussian 16, Revision C.01,
 M. J. Frisch, G. W. Trucks, H. B. Schlegel, G. E. Scuseria, 
 M. A. Robb, J. R. Cheeseman, G. Scalmani, V. Barone, 
 G. A. Petersson, H. Nakatsuji, X. Li, M. Caricato, A. V. Marenich, 
 J. Bloino, B. G. Janesko, R. Gomperts, B. Mennucci, H. P. Hratchian, 
 J. V. Ortiz, A. F. Izmaylov, J. L. Sonnenberg, D. Williams-Young, 
 F. Ding, F. Lipparini, F. Egidi, J. Goings, B. Peng, A. Petrone, 
 T. Henderson, D. Ranasinghe, V. G. Zakrzewski, J. Gao, N. Rega, 
 G. Zheng, W. Liang, M. Hada, M. Ehara, K. Toyota, R. Fukuda, 
 J. Hasegawa, M. Ishida, T. Nakajima, Y. Honda, O. Kitao, H. Nakai, 
 T. Vreven, K. Throssell, J. A. Montgomery, Jr., J. E. Peralta, 
 F. Ogliaro, M. J. Bearpark, J. J. Heyd, E. N. Brothers, K. N. Kudin, 
 V. N. Staroverov, T. A. Keith, R. Kobayashi, J. Normand, 
 K. Raghavachari, A. P. Rendell, J. C. Burant, S. S. Iyengar, 
 J. Tomasi, M. Cossi, J. M. Millam, M. Klene, C. Adamo, R. Cammi, 
 J. W. Ochterski, R. L. Martin, K. Morokuma, O. Farkas, 
 J. B. Foresman, and D. J. Fox, Gaussian, Inc., Wallingford CT, 2019.
 
 ******************************************
 Gaussian 16:  ES64L-G16RevC.01  3-Jul-2019
                28-Oct-2021 
 ******************************************
 %mem=100GB
 %nprocshared=16
 Will use up to   16 processors via shared memory.
 ---------------------------------------------------------------
 # opt=modredundant b3lyp/6-311+g(d,p) scrf=(pcm, solvent=water)
 ---------------------------------------------------------------
 1/18=120,19=15,26=3,38=1/1,3;
 2/9=110,12=2,17=6,18=5,40=1/2;
 3/5=4,6=6,7=111,11=2,25=1,30=1,70=2201,71=1,72=1,74=-5/1,2,3;
 4//1;
 5/5=2,38=5,53=1/2;
 6/7=2,8=2,9=2,10=2,28=1/1;
 7//1,2,3,16;
 1/18=20,19=15,26=3/3(2);
 2/9=110/2;
 99//99;
 2/9=110/2;
 3/5=4,6=6,7=111,11=2,25=1,30=1,70=2205,71=1,72=1,74=-5/1,2,3;
 4/5=5,16=3,69=1/1;
 5/5=2,38=5,53=1/2;
 7//1,2,3,16;
 1/18=20,19=15,26=3/3(-5);
 2/9=110/2;
 6/7=2,8=2,9=2,10=2,19=2,28=1/1;
 99/9=1/99;
 -----------
 NDI_-55.pdb
 -----------
 Symbolic Z-matrix:
 Charge = -2 Multiplicity = 1
 C                    -2.563    -2.994    -0.409 
 C                    -2.257    -1.551    -0.224 
 C                    -3.301    -0.607    -0.083 
 C                    -4.65     -1.024    -0.115 
 C                    -4.992    -2.459    -0.304 
 C                    -0.949    -1.137    -0.215 
 C                    -2.962     0.764     0.102 
 C                    -1.595     1.188     0.123 
 C                    -0.561     0.232    -0.072 
 C                    -1.328     2.616     0.446 
 C                    -3.777     3.115     0.508 
 C                    -4.035     1.679     0.268 
 C                    -5.356     1.252     0.23 
 C                    -5.672    -0.098     0.036 
 H                    -6.699    -0.442     0.008 
 H                    -6.133     1.997     0.361 
 H                    -0.19     -1.895    -0.369 
 N                    -2.432     3.476     0.608 
 N                    -3.916    -3.353    -0.438 
 O                    -1.695    -3.847    -0.532 
 O                    -6.149    -2.85     -0.34 
 O                    -4.676     3.938     0.629 
 O                    -0.212     3.097     0.596 
 C                    -2.111     4.875     0.912 
 H                    -1.54      4.931     1.84 
 H                    -1.5       5.299     0.111 
 H                    -3.05      5.414     1.003 
 C                    -4.206    -4.779    -0.625 
 H                    -3.759    -5.126    -1.559 
 H                    -3.775    -5.355     0.196 
 H                    -5.286    -4.897    -0.649 
 C                     0.876     0.482    -0.178 
 C                     1.59      1.312    -1.021 
 S                     1.982    -0.495     0.788 
 C                     2.986     1.176    -0.895 
 H                     1.115     2.002    -1.7 
 C                     3.392     0.237     0.058 
 O                     3.931     1.857    -1.596 
 C                     4.734    -0.096     0.445 
 C                     3.487     2.905    -2.453 
 C                     5.137    -1.05      1.379 
 S                     6.155     0.691    -0.236 
 H                     4.389     3.369    -2.852 
 H                     2.885     2.512    -3.281 
 H                     2.902     3.649    -1.899 
 C                     6.549    -1.144     1.542 
 O                     4.196    -1.778     2.033 
 C                     7.217    -0.265     0.733 
 H                     7.042    -1.827     2.22 
 C                     4.639    -2.768     2.955 
 H                     8.286    -0.128     0.653 
 H                     5.207    -2.319     3.779 
 H                     3.739    -3.237     3.349 
 H                     5.257    -3.526     2.458 
 
 The following ModRedundant input section has been read:
 D       8       9      32      33 F                                           
 

 GradGradGradGradGradGradGradGradGradGradGradGradGradGradGradGradGradGrad
 Berny optimization.
 Initialization pass.
                           ----------------------------
                           !    Initial Parameters    !
                           ! (Angstroms and Degrees)  !
 --------------------------                            --------------------------
 ! Name  Definition              Value          Derivative Info.                !
 --------------------------------------------------------------------------------
 ! R1    R(1,2)                  1.4866         estimate D2E/DX2                !
 ! R2    R(1,19)                 1.4001         estimate D2E/DX2                !
 ! R3    R(1,20)                 1.2232         estimate D2E/DX2                !
 ! R4    R(2,3)                  1.4146         estimate D2E/DX2                !
 ! R5    R(2,6)                  1.372          estimate D2E/DX2                !
 ! R6    R(3,4)                  1.4123         estimate D2E/DX2                !
 ! R7    R(3,7)                  1.4244         estimate D2E/DX2                !
 ! R8    R(4,5)                  1.4872         estimate D2E/DX2                !
 ! R9    R(4,14)                 1.3874         estimate D2E/DX2                !
 ! R10   R(5,19)                 1.4053         estimate D2E/DX2                !
 ! R11   R(5,21)                 1.2218         estimate D2E/DX2                !
 ! R12   R(6,9)                  1.4301         estimate D2E/DX2                !
 ! R13   R(6,17)                 1.0837         estimate D2E/DX2                !
 ! R14   R(7,8)                  1.4314         estimate D2E/DX2                !
 ! R15   R(7,12)                 1.4199         estimate D2E/DX2                !
 ! R16   R(8,9)                  1.4217         estimate D2E/DX2                !
 ! R17   R(8,10)                 1.4882         estimate D2E/DX2                !
 ! R18   R(9,32)                 1.4624         estimate D2E/DX2                !
 ! R19   R(10,18)                1.4088         estimate D2E/DX2                !
 ! R20   R(10,23)                1.2245         estimate D2E/DX2                !
 ! R21   R(11,12)                1.4786         estimate D2E/DX2                !
 ! R22   R(11,18)                1.3962         estimate D2E/DX2                !
 ! R23   R(11,22)                1.2248         estimate D2E/DX2                !
 ! R24   R(12,13)                1.3888         estimate D2E/DX2                !
 ! R25   R(13,14)                1.4            estimate D2E/DX2                !
 ! R26   R(13,16)                1.0844         estimate D2E/DX2                !
 ! R27   R(14,15)                1.0834         estimate D2E/DX2                !
 ! R28   R(18,24)                1.4672         estimate D2E/DX2                !
 ! R29   R(19,28)                1.4672         estimate D2E/DX2                !
 ! R30   R(24,25)                1.091          estimate D2E/DX2                !
 ! R31   R(24,26)                1.093          estimate D2E/DX2                !
 ! R32   R(24,27)                1.0865         estimate D2E/DX2                !
 ! R33   R(28,29)                1.0921         estimate D2E/DX2                !
 ! R34   R(28,30)                1.0916         estimate D2E/DX2                !
 ! R35   R(28,31)                1.0867         estimate D2E/DX2                !
 ! R36   R(32,33)                1.3818         estimate D2E/DX2                !
 ! R37   R(32,34)                1.7638         estimate D2E/DX2                !
 ! R38   R(33,35)                1.4083         estimate D2E/DX2                !
 ! R39   R(33,36)                1.0783         estimate D2E/DX2                !
 ! R40   R(34,37)                1.7484         estimate D2E/DX2                !
 ! R41   R(35,37)                1.3981         estimate D2E/DX2                !
 ! R42   R(35,38)                1.3595         estimate D2E/DX2                !
 ! R43   R(37,39)                1.4358         estimate D2E/DX2                !
 ! R44   R(38,40)                1.4247         estimate D2E/DX2                !
 ! R45   R(39,41)                1.3946         estimate D2E/DX2                !
 ! R46   R(39,42)                1.7614         estimate D2E/DX2                !
 ! R47   R(40,43)                1.09           estimate D2E/DX2                !
 ! R48   R(40,44)                1.0966         estimate D2E/DX2                !
 ! R49   R(40,45)                1.0967         estimate D2E/DX2                !
 ! R50   R(41,46)                1.4245         estimate D2E/DX2                !
 ! R51   R(41,47)                1.3576         estimate D2E/DX2                !
 ! R52   R(42,48)                1.7265         estimate D2E/DX2                !
 ! R53   R(46,48)                1.3687         estimate D2E/DX2                !
 ! R54   R(46,49)                1.0813         estimate D2E/DX2                !
 ! R55   R(47,50)                1.4235         estimate D2E/DX2                !
 ! R56   R(48,51)                1.0807         estimate D2E/DX2                !
 ! R57   R(50,52)                1.0969         estimate D2E/DX2                !
 ! R58   R(50,53)                1.0887         estimate D2E/DX2                !
 ! R59   R(50,54)                1.097          estimate D2E/DX2                !
 ! A1    A(2,1,19)             116.767          estimate D2E/DX2                !
 ! A2    A(2,1,20)             122.9113         estimate D2E/DX2                !
 ! A3    A(19,1,20)            120.3217         estimate D2E/DX2                !
 ! A4    A(1,2,3)              120.5473         estimate D2E/DX2                !
 ! A5    A(1,2,6)              119.3369         estimate D2E/DX2                !
 ! A6    A(3,2,6)              120.1056         estimate D2E/DX2                !
 ! A7    A(2,3,4)              120.3743         estimate D2E/DX2                !
 ! A8    A(2,3,7)              118.662          estimate D2E/DX2                !
 ! A9    A(4,3,7)              120.9617         estimate D2E/DX2                !
 ! A10   A(3,4,5)              120.4909         estimate D2E/DX2                !
 ! A11   A(3,4,14)             120.2702         estimate D2E/DX2                !
 ! A12   A(5,4,14)             119.2382         estimate D2E/DX2                !
 ! A13   A(4,5,19)             116.7341         estimate D2E/DX2                !
 ! A14   A(4,5,21)             122.024          estimate D2E/DX2                !
 ! A15   A(19,5,21)            121.2418         estimate D2E/DX2                !
 ! A16   A(2,6,9)              123.2421         estimate D2E/DX2                !
 ! A17   A(2,6,17)             117.1119         estimate D2E/DX2                !
 ! A18   A(9,6,17)             119.589          estimate D2E/DX2                !
 ! A19   A(3,7,8)              120.9519         estimate D2E/DX2                !
 ! A20   A(3,7,12)             117.1037         estimate D2E/DX2                !
 ! A21   A(8,7,12)             121.944          estimate D2E/DX2                !
 ! A22   A(7,8,9)              119.5639         estimate D2E/DX2                !
 ! A23   A(7,8,10)             117.3064         estimate D2E/DX2                !
 ! A24   A(9,8,10)             122.9922         estimate D2E/DX2                !
 ! A25   A(6,9,8)              117.3944         estimate D2E/DX2                !
 ! A26   A(6,9,32)             115.0236         estimate D2E/DX2                !
 ! A27   A(8,9,32)             127.5648         estimate D2E/DX2                !
 ! A28   A(8,10,18)            118.042          estimate D2E/DX2                !
 ! A29   A(8,10,23)            124.5436         estimate D2E/DX2                !
 ! A30   A(18,10,23)           117.4097         estimate D2E/DX2                !
 ! A31   A(12,11,18)           115.5202         estimate D2E/DX2                !
 ! A32   A(12,11,22)           122.7205         estimate D2E/DX2                !
 ! A33   A(18,11,22)           121.7534         estimate D2E/DX2                !
 ! A34   A(7,12,11)            120.8614         estimate D2E/DX2                !
 ! A35   A(7,12,13)            121.162          estimate D2E/DX2                !
 ! A36   A(11,12,13)           117.9699         estimate D2E/DX2                !
 ! A37   A(12,13,14)           120.9948         estimate D2E/DX2                !
 ! A38   A(12,13,16)           117.8401         estimate D2E/DX2                !
 ! A39   A(14,13,16)           121.1642         estimate D2E/DX2                !
 ! A40   A(4,14,13)            119.5003         estimate D2E/DX2                !
 ! A41   A(4,14,15)            118.9169         estimate D2E/DX2                !
 ! A42   A(13,14,15)           121.5811         estimate D2E/DX2                !
 ! A43   A(10,18,11)           126.0753         estimate D2E/DX2                !
 ! A44   A(10,18,24)           115.7508         estimate D2E/DX2                !
 ! A45   A(11,18,24)           118.1737         estimate D2E/DX2                !
 ! A46   A(1,19,5)             125.0856         estimate D2E/DX2                !
 ! A47   A(1,19,28)            116.2868         estimate D2E/DX2                !
 ! A48   A(5,19,28)            118.6276         estimate D2E/DX2                !
 ! A49   A(18,24,25)           109.8574         estimate D2E/DX2                !
 ! A50   A(18,24,26)           109.8979         estimate D2E/DX2                !
 ! A51   A(18,24,27)           107.5355         estimate D2E/DX2                !
 ! A52   A(25,24,26)           108.1108         estimate D2E/DX2                !
 ! A53   A(25,24,27)           110.8301         estimate D2E/DX2                !
 ! A54   A(26,24,27)           110.6124         estimate D2E/DX2                !
 ! A55   A(19,28,29)           109.6906         estimate D2E/DX2                !
 ! A56   A(19,28,30)           109.8136         estimate D2E/DX2                !
 ! A57   A(19,28,31)           107.7461         estimate D2E/DX2                !
 ! A58   A(29,28,30)           108.2991         estimate D2E/DX2                !
 ! A59   A(29,28,31)           110.6959         estimate D2E/DX2                !
 ! A60   A(30,28,31)           110.5924         estimate D2E/DX2                !
 ! A61   A(9,32,33)            130.8922         estimate D2E/DX2                !
 ! A62   A(9,32,34)            118.8009         estimate D2E/DX2                !
 ! A63   A(33,32,34)           110.0501         estimate D2E/DX2                !
 ! A64   A(32,33,35)           113.555          estimate D2E/DX2                !
 ! A65   A(32,33,36)           122.745          estimate D2E/DX2                !
 ! A66   A(35,33,36)           123.6971         estimate D2E/DX2                !
 ! A67   A(32,34,37)            92.5856         estimate D2E/DX2                !
 ! A68   A(33,35,37)           114.4379         estimate D2E/DX2                !
 ! A69   A(33,35,38)           126.4811         estimate D2E/DX2                !
 ! A70   A(37,35,38)           119.081          estimate D2E/DX2                !
 ! A71   A(34,37,35)           109.3658         estimate D2E/DX2                !
 ! A72   A(34,37,39)           122.9647         estimate D2E/DX2                !
 ! A73   A(35,37,39)           127.6538         estimate D2E/DX2                !
 ! A74   A(35,38,40)           117.5167         estimate D2E/DX2                !
 ! A75   A(37,39,41)           127.5354         estimate D2E/DX2                !
 ! A76   A(37,39,42)           123.1071         estimate D2E/DX2                !
 ! A77   A(41,39,42)           109.3574         estimate D2E/DX2                !
 ! A78   A(38,40,43)           105.9874         estimate D2E/DX2                !
 ! A79   A(38,40,44)           111.202          estimate D2E/DX2                !
 ! A80   A(38,40,45)           111.1861         estimate D2E/DX2                !
 ! A81   A(43,40,44)           109.2968         estimate D2E/DX2                !
 ! A82   A(43,40,45)           109.7279         estimate D2E/DX2                !
 ! A83   A(44,40,45)           109.3743         estimate D2E/DX2                !
 ! A84   A(39,41,46)           114.093          estimate D2E/DX2                !
 ! A85   A(39,41,47)           119.2845         estimate D2E/DX2                !
 ! A86   A(46,41,47)           126.6222         estimate D2E/DX2                !
 ! A87   A(39,42,48)            91.8249         estimate D2E/DX2                !
 ! A88   A(41,46,48)           111.9479         estimate D2E/DX2                !
 ! A89   A(41,46,49)           124.4276         estimate D2E/DX2                !
 ! A90   A(48,46,49)           123.6243         estimate D2E/DX2                !
 ! A91   A(41,47,50)           117.9841         estimate D2E/DX2                !
 ! A92   A(42,48,46)           112.7767         estimate D2E/DX2                !
 ! A93   A(42,48,51)           119.783          estimate D2E/DX2                !
 ! A94   A(46,48,51)           127.4402         estimate D2E/DX2                !
 ! A95   A(47,50,52)           111.2856         estimate D2E/DX2                !
 ! A96   A(47,50,53)           106.0658         estimate D2E/DX2                !
 ! A97   A(47,50,54)           111.2481         estimate D2E/DX2                !
 ! A98   A(52,50,53)           109.4239         estimate D2E/DX2                !
 ! A99   A(52,50,54)           109.3566         estimate D2E/DX2                !
 ! A100  A(53,50,54)           109.3904         estimate D2E/DX2                !
 ! D1    D(19,1,2,3)             0.1578         estimate D2E/DX2                !
 ! D2    D(19,1,2,6)          -178.6792         estimate D2E/DX2                !
 ! D3    D(20,1,2,3)          -179.8231         estimate D2E/DX2                !
 ! D4    D(20,1,2,6)             1.3399         estimate D2E/DX2                !
 ! D5    D(2,1,19,5)            -0.124          estimate D2E/DX2                !
 ! D6    D(2,1,19,28)          179.8267         estimate D2E/DX2                !
 ! D7    D(20,1,19,5)          179.8575         estimate D2E/DX2                !
 ! D8    D(20,1,19,28)          -0.1919         estimate D2E/DX2                !
 ! D9    D(1,2,3,4)              0.0571         estimate D2E/DX2                !
 ! D10   D(1,2,3,7)            179.5453         estimate D2E/DX2                !
 ! D11   D(6,2,3,4)            178.8851         estimate D2E/DX2                !
 ! D12   D(6,2,3,7)             -1.6266         estimate D2E/DX2                !
 ! D13   D(1,2,6,9)            178.625          estimate D2E/DX2                !
 ! D14   D(1,2,6,17)             1.3881         estimate D2E/DX2                !
 ! D15   D(3,2,6,9)             -0.2173         estimate D2E/DX2                !
 ! D16   D(3,2,6,17)          -177.4541         estimate D2E/DX2                !
 ! D17   D(2,3,4,5)             -0.3074         estimate D2E/DX2                !
 ! D18   D(2,3,4,14)           179.3968         estimate D2E/DX2                !
 ! D19   D(7,3,4,5)           -179.7837         estimate D2E/DX2                !
 ! D20   D(7,3,4,14)            -0.0795         estimate D2E/DX2                !
 ! D21   D(2,3,7,8)              1.0523         estimate D2E/DX2                !
 ! D22   D(2,3,7,12)          -178.712          estimate D2E/DX2                !
 ! D23   D(4,3,7,8)           -179.4626         estimate D2E/DX2                !
 ! D24   D(4,3,7,12)             0.7731         estimate D2E/DX2                !
 ! D25   D(3,4,5,19)             0.3343         estimate D2E/DX2                !
 ! D26   D(3,4,5,21)          -179.7799         estimate D2E/DX2                !
 ! D27   D(14,4,5,19)         -179.3729         estimate D2E/DX2                !
 ! D28   D(14,4,5,21)            0.5129         estimate D2E/DX2                !
 ! D29   D(3,4,14,13)           -0.4559         estimate D2E/DX2                !
 ! D30   D(3,4,14,15)         -179.9937         estimate D2E/DX2                !
 ! D31   D(5,4,14,13)          179.252          estimate D2E/DX2                !
 ! D32   D(5,4,14,15)           -0.2858         estimate D2E/DX2                !
 ! D33   D(4,5,19,1)            -0.1141         estimate D2E/DX2                !
 ! D34   D(4,5,19,28)          179.9364         estimate D2E/DX2                !
 ! D35   D(21,5,19,1)          179.9992         estimate D2E/DX2                !
 ! D36   D(21,5,19,28)           0.0496         estimate D2E/DX2                !
 ! D37   D(2,6,9,8)              2.5984         estimate D2E/DX2                !
 ! D38   D(2,6,9,32)          -176.0103         estimate D2E/DX2                !
 ! D39   D(17,6,9,8)           179.77           estimate D2E/DX2                !
 ! D40   D(17,6,9,32)            1.1613         estimate D2E/DX2                !
 ! D41   D(3,7,8,9)              1.3551         estimate D2E/DX2                !
 ! D42   D(3,7,8,10)          -174.5099         estimate D2E/DX2                !
 ! D43   D(12,7,8,9)          -178.8921         estimate D2E/DX2                !
 ! D44   D(12,7,8,10)            5.2428         estimate D2E/DX2                !
 ! D45   D(3,7,12,11)          178.0768         estimate D2E/DX2                !
 ! D46   D(3,7,12,13)           -0.9621         estimate D2E/DX2                !
 ! D47   D(8,7,12,11)           -1.685          estimate D2E/DX2                !
 ! D48   D(8,7,12,13)          179.2761         estimate D2E/DX2                !
 ! D49   D(7,8,9,6)             -3.0809         estimate D2E/DX2                !
 ! D50   D(7,8,9,32)           175.3285         estimate D2E/DX2                !
 ! D51   D(10,8,9,6)           172.5381         estimate D2E/DX2                !
 ! D52   D(10,8,9,32)           -9.0525         estimate D2E/DX2                !
 ! D53   D(7,8,10,18)           -4.7549         estimate D2E/DX2                !
 ! D54   D(7,8,10,23)          174.4235         estimate D2E/DX2                !
 ! D55   D(9,8,10,18)          179.5335         estimate D2E/DX2                !
 ! D56   D(9,8,10,23)           -1.2882         estimate D2E/DX2                !
 ! D57   D(6,9,32,33)          123.4223         estimate D2E/DX2                !
 ! D58   D(6,9,32,34)          -50.1177         estimate D2E/DX2                !
 ! D59   D(8,9,32,33)          -55.0193         Frozen                          !
 ! D60   D(8,9,32,34)          131.4408         estimate D2E/DX2                !
 ! D61   D(8,10,18,11)           0.7189         estimate D2E/DX2                !
 ! D62   D(8,10,18,24)        -179.4089         estimate D2E/DX2                !
 ! D63   D(23,10,18,11)       -178.5188         estimate D2E/DX2                !
 ! D64   D(23,10,18,24)          1.3535         estimate D2E/DX2                !
 ! D65   D(18,11,12,7)          -2.3856         estimate D2E/DX2                !
 ! D66   D(18,11,12,13)        176.6833         estimate D2E/DX2                !
 ! D67   D(22,11,12,7)         178.4862         estimate D2E/DX2                !
 ! D68   D(22,11,12,13)         -2.445          estimate D2E/DX2                !
 ! D69   D(12,11,18,10)          2.8444         estimate D2E/DX2                !
 ! D70   D(12,11,18,24)       -177.0251         estimate D2E/DX2                !
 ! D71   D(22,11,18,10)       -178.0181         estimate D2E/DX2                !
 ! D72   D(22,11,18,24)          2.1124         estimate D2E/DX2                !
 ! D73   D(7,12,13,14)           0.461          estimate D2E/DX2                !
 ! D74   D(7,12,13,16)        -179.8781         estimate D2E/DX2                !
 ! D75   D(11,12,13,14)       -178.6049         estimate D2E/DX2                !
 ! D76   D(11,12,13,16)          1.056          estimate D2E/DX2                !
 ! D77   D(12,13,14,4)           0.2708         estimate D2E/DX2                !
 ! D78   D(12,13,14,15)        179.7958         estimate D2E/DX2                !
 ! D79   D(16,13,14,4)        -179.3788         estimate D2E/DX2                !
 ! D80   D(16,13,14,15)          0.1463         estimate D2E/DX2                !
 ! D81   D(10,18,24,25)        -59.609          estimate D2E/DX2                !
 ! D82   D(10,18,24,26)         59.2209         estimate D2E/DX2                !
 ! D83   D(10,18,24,27)        179.6858         estimate D2E/DX2                !
 ! D84   D(11,18,24,25)        120.2739         estimate D2E/DX2                !
 ! D85   D(11,18,24,26)       -120.8962         estimate D2E/DX2                !
 ! D86   D(11,18,24,27)         -0.4313         estimate D2E/DX2                !
 ! D87   D(1,19,28,29)         -58.1407         estimate D2E/DX2                !
 ! D88   D(1,19,28,30)          60.7668         estimate D2E/DX2                !
 ! D89   D(1,19,28,31)        -178.7139         estimate D2E/DX2                !
 ! D90   D(5,19,28,29)         121.8132         estimate D2E/DX2                !
 ! D91   D(5,19,28,30)        -119.2792         estimate D2E/DX2                !
 ! D92   D(5,19,28,31)           1.2401         estimate D2E/DX2                !
 ! D93   D(9,32,33,35)        -174.2359         estimate D2E/DX2                !
 ! D94   D(9,32,33,36)           6.353          estimate D2E/DX2                !
 ! D95   D(34,32,33,35)         -0.2604         estimate D2E/DX2                !
 ! D96   D(34,32,33,36)       -179.6716         estimate D2E/DX2                !
 ! D97   D(9,32,34,37)         175.3612         estimate D2E/DX2                !
 ! D98   D(33,32,34,37)          0.5558         estimate D2E/DX2                !
 ! D99   D(32,33,35,37)         -0.286          estimate D2E/DX2                !
 ! D100  D(32,33,35,38)        179.7618         estimate D2E/DX2                !
 ! D101  D(36,33,35,37)        179.1187         estimate D2E/DX2                !
 ! D102  D(36,33,35,38)         -0.8335         estimate D2E/DX2                !
 ! D103  D(32,34,37,35)         -0.7013         estimate D2E/DX2                !
 ! D104  D(32,34,37,39)        177.9587         estimate D2E/DX2                !
 ! D105  D(33,35,37,34)          0.6921         estimate D2E/DX2                !
 ! D106  D(33,35,37,39)       -177.8879         estimate D2E/DX2                !
 ! D107  D(38,35,37,34)       -179.3519         estimate D2E/DX2                !
 ! D108  D(38,35,37,39)          2.0682         estimate D2E/DX2                !
 ! D109  D(33,35,38,40)          6.5315         estimate D2E/DX2                !
 ! D110  D(37,35,38,40)       -173.4187         estimate D2E/DX2                !
 ! D111  D(34,37,39,41)          2.8377         estimate D2E/DX2                !
 ! D112  D(34,37,39,42)       -177.1485         estimate D2E/DX2                !
 ! D113  D(35,37,39,41)       -178.7591         estimate D2E/DX2                !
 ! D114  D(35,37,39,42)          1.2547         estimate D2E/DX2                !
 ! D115  D(35,38,40,43)        175.5191         estimate D2E/DX2                !
 ! D116  D(35,38,40,44)        -65.805          estimate D2E/DX2                !
 ! D117  D(35,38,40,45)         56.3337         estimate D2E/DX2                !
 ! D118  D(37,39,41,46)       -179.9583         estimate D2E/DX2                !
 ! D119  D(37,39,41,47)         -0.162          estimate D2E/DX2                !
 ! D120  D(42,39,41,46)          0.0294         estimate D2E/DX2                !
 ! D121  D(42,39,41,47)        179.8257         estimate D2E/DX2                !
 ! D122  D(37,39,42,48)       -179.9984         estimate D2E/DX2                !
 ! D123  D(41,39,42,48)          0.0132         estimate D2E/DX2                !
 ! D124  D(39,41,46,48)         -0.071          estimate D2E/DX2                !
 ! D125  D(39,41,46,49)       -179.9417         estimate D2E/DX2                !
 ! D126  D(47,41,46,48)       -179.8496         estimate D2E/DX2                !
 ! D127  D(47,41,46,49)          0.2797         estimate D2E/DX2                !
 ! D128  D(39,41,47,50)        178.4083         estimate D2E/DX2                !
 ! D129  D(46,41,47,50)         -1.8234         estimate D2E/DX2                !
 ! D130  D(39,42,48,46)         -0.0544         estimate D2E/DX2                !
 ! D131  D(39,42,48,51)        179.8576         estimate D2E/DX2                !
 ! D132  D(41,46,48,42)          0.08           estimate D2E/DX2                !
 ! D133  D(41,46,48,51)       -179.8238         estimate D2E/DX2                !
 ! D134  D(49,46,48,42)        179.952          estimate D2E/DX2                !
 ! D135  D(49,46,48,51)          0.0482         estimate D2E/DX2                !
 ! D136  D(41,47,50,52)         61.9547         estimate D2E/DX2                !
 ! D137  D(41,47,50,53)       -179.1242         estimate D2E/DX2                !
 ! D138  D(41,47,50,54)        -60.2637         estimate D2E/DX2                !
 --------------------------------------------------------------------------------
 Trust Radius=3.00D-01 FncErr=1.00D-07 GrdErr=1.00D-06 EigMax=2.50D+02 EigMin=1.00D-04
 Number of steps in this run=    307 maximum allowed number of steps=    324.
 GradGradGradGradGradGradGradGradGradGradGradGradGradGradGradGradGradGrad

 Stoichiometry    C26H18N2O6S2(2-)
 Framework group  C1[X(C26H18N2O6S2)]
 Deg. of freedom   156
 Full point group                 C1      NOp   1
 Largest Abelian subgroup         C1      NOp   1
 Largest concise Abelian subgroup C1      NOp   1
                         Standard orientation:                         
 ---------------------------------------------------------------------
 Center     Atomic      Atomic             Coordinates (Angstroms)
 Number     Number       Type             X           Y           Z
 ---------------------------------------------------------------------
      1          6           0        2.700408   -2.938278    0.577536
      2          6           0        2.330950   -1.518930    0.334505
      3          6           0        3.329980   -0.547552    0.090956
      4          6           0        4.693755   -0.914366    0.074291
      5          6           0        5.099039   -2.324246    0.319028
      6          6           0        1.009358   -1.152433    0.372133
      7          6           0        2.930322    0.798778   -0.146647
      8          6           0        1.548866    1.172531   -0.118438
      9          6           0        0.562973    0.192416    0.179066
     10          6           0        1.211997    2.570910   -0.500351
     11          6           0        3.634107    3.152020   -0.715156
     12          6           0        3.958145    1.740903   -0.415141
     13          6           0        5.294656    1.363442   -0.423851
     14          6           0        5.671012    0.037737   -0.177160
     15          1           0        6.710451   -0.267807   -0.184850
     16          1           0        6.035272    2.127338   -0.633292
     17          1           0        0.288351   -1.927438    0.604247
     18          7           0        2.273048    3.459456   -0.763629
     19          7           0        4.065823   -3.247230    0.554680
     20          8           0        1.872673   -3.813592    0.789297
     21          8           0        6.270406   -2.671677    0.314987
     22          8           0        4.494019    3.998597   -0.924986
     23          8           0        0.072427    3.003510   -0.616776
     24          6           0        1.884338    4.828004   -1.122292
     25          1           0        1.265914    4.814133   -2.021024
     26          1           0        1.298511    5.272377   -0.313566
     27          1           0        2.796459    5.394179   -1.289632
     28          6           0        4.418767   -4.650070    0.799660
     29          1           0        4.032554   -4.962216    1.772274
     30          1           0        3.969423   -5.283982    0.032963
     31          1           0        5.502317   -4.728422    0.773572
     32          6           0       -0.875382    0.396843    0.346545
     33          6           0       -1.577324    1.244991    1.181570
     34         16           0       -1.990416   -0.668823   -0.509011
     35          6           0       -2.971706    1.053258    1.135450
     36          1           0       -1.095501    1.986633    1.798482
     37          6           0       -3.388914    0.050919    0.254531
     38          8           0       -3.905636    1.736969    1.848542
     39          6           0       -4.734977   -0.349454   -0.044533
     40          6           0       -3.459445    2.844295    2.626123
     41          6           0       -5.147672   -1.365641   -0.905886
     42         16           0       -6.148995    0.422168    0.667875
     43          1           0       -4.357327    3.296827    3.046983
     44          1           0       -2.802285    2.517607    3.440894
     45          1           0       -2.931573    3.577807    2.004843
     46          6           0       -6.561468   -1.518003   -0.990241
     47          8           0       -4.213596   -2.093884   -1.569472
     48          6           0       -7.221063   -0.621148   -0.194043
     49          1           0       -7.061471   -2.253240   -1.605582
     50          6           0       -4.664244   -3.146768   -2.414922
     51          1           0       -8.289153   -0.517889   -0.065785
     52          1           0       -5.289399   -2.762781   -3.230359
     53          1           0       -3.767919   -3.604094   -2.830434
     54          1           0       -5.227371   -3.898463   -1.848053
 ---------------------------------------------------------------------
 Rotational constants (GHZ):           0.1544394           0.0572539           0.0453590
 Standard basis: 6-311+G(d,p) (5D, 7F)
 There are   952 symmetry adapted cartesian basis functions of A   symmetry.
 There are   916 symmetry adapted basis functions of A   symmetry.
   916 basis functions,  1468 primitive gaussians,   952 cartesian basis functions
   135 alpha electrons      135 beta electrons
       nuclear repulsion energy      4077.9979834902 Hartrees.
 NAtoms=   54 NActive=   54 NUniq=   54 SFac= 1.00D+00 NAtFMM=   60 NAOKFM=F Big=F
 Integral buffers will be    131072 words long.
 Raffenetti 2 integral format.
 Two-electron integral symmetry is turned on.
 ------------------------------------------------------------------------------
 Polarizable Continuum Model (PCM)
 =================================
 Model                : PCM.
 Atomic radii         : UFF (Universal Force Field).
 Polarization charges : Total charges.
 Charge compensation  : None.
 Solution method      : On-the-fly selection.
 Cavity type          : Scaled VdW (van der Waals Surface) (Alpha=1.100).
 Cavity algorithm     : GePol (No added spheres)
                        Default sphere list used, NSphG=   54.
                        Lebedev-Laikov grids with approx.  5.0 points / Ang**2.
                        Smoothing algorithm: York/Karplus (Gamma=1.0000).
                        Polarization charges: spherical gaussians, with
                                              point-specific exponents (IZeta= 3).
                        Self-potential: point-specific (ISelfS= 7).
                        Self-field    : sphere-specific E.n sum rule (ISelfD= 2).
 1st derivatives      : Analytical E(r).r(x)/FMM algorithm (CHGder, D1EAlg=3).
                        Cavity 1st derivative terms included.
 Solvent              : Water, Eps=  78.355300 Eps(inf)=   1.777849
 ------------------------------------------------------------------------------
 One-electron integrals computed using PRISM.
 NBasis=   916 RedAO= T EigKep=  1.03D-06  NBF=   916
 NBsUse=   902 1.00D-06 EigRej=  6.10D-07 NBFU=   902
 ExpMin= 4.05D-02 ExpMax= 9.34D+04 ExpMxC= 3.17D+03 IAcc=3 IRadAn=         5 AccDes= 0.00D+00
 Harris functional with IExCor=  402 and IRadAn=       5 diagonalized for initial guess.
 HarFok:  IExCor=  402 AccDes= 0.00D+00 IRadAn=         5 IDoV= 1 UseB2=F ITyADJ=14
 ICtDFT=  3500011 ScaDFX=  1.000000  1.000000  1.000000  1.000000
 FoFCou: FMM=F IPFlag=           0 FMFlag=      100000 FMFlg1=           0
         NFxFlg=           0 DoJE=T BraDBF=F KetDBF=T FulRan=T
         wScrn=  0.000000 ICntrl=       500 IOpCl=  0 I1Cent=   200000004 NGrid=           0
         NMat0=    1 NMatS0=      1 NMatT0=    0 NMatD0=    1 NMtDS0=    0 NMtDT0=    0
 Petite list used in FoFCou.
 Requested convergence on RMS density matrix=1.00D-08 within 128 cycles.
 Requested convergence on MAX density matrix=1.00D-06.
 Requested convergence on             energy=1.00D-06.
 No special actions if energy rises.
 Inv3:  Mode=1 IEnd=    53501187.
 Iteration    1 A*A^-1 deviation from unit magnitude is 7.33D-15 for   4205.
 Iteration    1 A*A^-1 deviation from orthogonality  is 3.17D-15 for   4215   4162.
 Iteration    1 A^-1*A deviation from unit magnitude is 7.99D-15 for   4205.
 Iteration    1 A^-1*A deviation from orthogonality  is 2.35D-15 for   4205   4073.
 Error on total polarization charges =  0.03060
 SCF Done:  E(RB3LYP) =  -2359.60643713     A.U. after   16 cycles
            NFock= 16  Conv=0.97D-08     -V/T= 2.0030

 **********************************************************************

            Population analysis using the SCF Density.

 **********************************************************************

 Orbital symmetries:
       Occupied  (A) (A) (A) (A) (A) (A) (A) (A) (A) (A) (A) (A)
                 (A) (A) (A) (A) (A) (A) (A) (A) (A) (A) (A) (A)
                 (A) (A) (A) (A) (A) (A) (A) (A) (A) (A) (A) (A)
                 (A) (A) (A) (A) (A) (A) (A) (A) (A) (A) (A) (A)
                 (A) (A) (A) (A) (A) (A) (A) (A) (A) (A) (A) (A)
                 (A) (A) (A) (A) (A) (A) (A) (A) (A) (A) (A) (A)
                 (A) (A) (A) (A) (A) (A) (A) (A) (A) (A) (A) (A)
                 (A) (A) (A) (A) (A) (A) (A) (A) (A) (A) (A) (A)
                 (A) (A) (A) (A) (A) (A) (A) (A) (A) (A) (A) (A)
                 (A) (A) (A) (A) (A) (A) (A) (A) (A) (A) (A) (A)
                 (A) (A) (A) (A) (A) (A) (A) (A) (A) (A) (A) (A)
                 (A) (A) (A)
       Virtual   (A) (A) (A) (A) (A) (A) (A) (A) (A) (A) (A) (A)
                 (A) (A) (A) (A) (A) (A) (A) (A) (A) (A) (A) (A)
                 (A) (A) (A) (A) (A) (A) (A) (A) (A) (A) (A) (A)
                 (A) (A) (A) (A) (A) (A) (A) (A) (A) (A) (A) (A)
                 (A) (A) (A) (A) (A) (A) (A) (A) (A) (A) (A) (A)
                 (A) (A) (A) (A) (A) (A) (A) (A) (A) (A) (A) (A)
                 (A) (A) (A) (A) (A) (A) (A) (A) (A) (A) (A) (A)
                 (A) (A) (A) (A) (A) (A) (A) (A) (A) (A) (A) (A)
                 (A) (A) (A) (A) (A) (A) (A) (A) (A) (A) (A) (A)
                 (A) (A) (A) (A) (A) (A) (A) (A) (A) (A) (A) (A)
                 (A) (A) (A) (A) (A) (A) (A) (A) (A) (A) (A) (A)
                 (A) (A) (A) (A) (A) (A) (A) (A) (A) (A) (A) (A)
                 (A) (A) (A) (A) (A) (A) (A) (A) (A) (A) (A) (A)
                 (A) (A) (A) (A) (A) (A) (A) (A) (A) (A) (A) (A)
                 (A) (A) (A) (A) (A) (A) (A) (A) (A) (A) (A) (A)
                 (A) (A) (A) (A) (A) (A) (A) (A) (A) (A) (A) (A)
                 (A) (A) (A) (A) (A) (A) (A) (A) (A) (A) (A) (A)
                 (A) (A) (A) (A) (A) (A) (A) (A) (A) (A) (A) (A)
                 (A) (A) (A) (A) (A) (A) (A) (A) (A) (A) (A) (A)
                 (A) (A) (A) (A) (A) (A) (A) (A) (A) (A) (A) (A)
                 (A) (A) (A) (A) (A) (A) (A) (A) (A) (A) (A) (A)
                 (A) (A) (A) (A) (A) (A) (A) (A) (A) (A) (A) (A)
                 (A) (A) (A) (A) (A) (A) (A) (A) (A) (A) (A) (A)
                 (A) (A) (A) (A) (A) (A) (A) (A) (A) (A) (A) (A)
                 (A) (A) (A) (A) (A) (A) (A) (A) (A) (A) (A) (A)
                 (A) (A) (A) (A) (A) (A) (A) (A) (A) (A) (A) (A)
                 (A) (A) (A) (A) (A) (A) (A) (A) (A) (A) (A) (A)
                 (A) (A) (A) (A) (A) (A) (A) (A) (A) (A) (A) (A)
                 (A) (A) (A) (A) (A) (A) (A) (A) (A) (A) (A) (A)
                 (A) (A) (A) (A) (A) (A) (A) (A) (A) (A) (A) (A)
                 (A) (A) (A) (A) (A) (A) (A) (A) (A) (A) (A) (A)
                 (A) (A) (A) (A) (A) (A) (A) (A) (A) (A) (A) (A)
                 (A) (A) (A) (A) (A) (A) (A) (A) (A) (A) (A) (A)
                 (A) (A) (A) (A) (A) (A) (A) (A) (A) (A) (A) (A)
                 (A) (A) (A) (A) (A) (A) (A) (A) (A) (A) (A) (A)
                 (A) (A) (A) (A) (A) (A) (A) (A) (A) (A) (A) (A)
                 (A) (A) (A) (A) (A) (A) (A) (A) (A) (A) (A) (A)
                 (A) (A) (A) (A) (A) (A) (A) (A) (A) (A) (A) (A)
                 (A) (A) (A) (A) (A) (A) (A) (A) (A) (A) (A) (A)
                 (A) (A) (A) (A) (A) (A) (A) (A) (A) (A) (A) (A)
                 (A) (A) (A) (A) (A) (A) (A) (A) (A) (A) (A) (A)
                 (A) (A) (A) (A) (A) (A) (A) (A) (A) (A) (A) (A)
                 (A) (A) (A) (A) (A) (A) (A) (A) (A) (A) (A) (A)
                 (A) (A) (A) (A) (A) (A) (A) (A) (A) (A) (A) (A)
                 (A) (A) (A) (A) (A) (A) (A) (A) (A) (A) (A) (A)
                 (A) (A) (A) (A) (A) (A) (A) (A) (A) (A) (A) (A)
                 (A) (A) (A) (A) (A) (A) (A) (A) (A) (A) (A) (A)
                 (A) (A) (A) (A) (A) (A) (A) (A) (A) (A) (A) (A)
                 (A) (A) (A) (A) (A) (A) (A) (A) (A) (A) (A) (A)
                 (A) (A) (A) (A) (A) (A) (A) (A) (A) (A) (A) (A)
                 (A) (A) (A) (A) (A) (A) (A) (A) (A) (A) (A) (A)
                 (A) (A) (A) (A) (A) (A) (A) (A) (A) (A) (A) (A)
                 (A) (A) (A) (A) (A) (A) (A) (A) (A) (A) (A) (A)
                 (A) (A) (A) (A) (A) (A) (A) (A) (A) (A) (A) (A)
                 (A) (A) (A) (A) (A) (A) (A) (A) (A) (A) (A) (A)
                 (A) (A) (A) (A) (A) (A) (A) (A) (A) (A) (A) (A)
                 (A) (A) (A) (A) (A) (A) (A) (A) (A) (A) (A) (A)
                 (A) (A) (A) (A) (A) (A) (A) (A) (A) (A) (A) (A)
                 (A) (A) (A) (A) (A) (A) (A) (A) (A) (A) (A) (A)
                 (A) (A) (A) (A) (A) (A) (A) (A) (A) (A) (A) (A)
                 (A) (A) (A) (A) (A) (A) (A) (A) (A) (A) (A) (A)
                 (A) (A) (A) (A) (A) (A) (A) (A) (A) (A) (A) (A)
                 (A) (A) (A) (A) (A) (A) (A) (A) (A) (A) (A) (A)
                 (A) (A) (A) (A) (A) (A) (A) (A) (A) (A) (A)
 The electronic state is 1-A.
 Alpha  occ. eigenvalues --  -88.87470 -88.86419 -19.15868 -19.15784 -19.07303
 Alpha  occ. eigenvalues --  -19.07208 -19.06878 -19.06248 -14.34656 -14.34173
 Alpha  occ. eigenvalues --  -10.25389 -10.25174 -10.24857 -10.24788 -10.23217
 Alpha  occ. eigenvalues --  -10.22920 -10.22273 -10.22148 -10.20637 -10.19851
 Alpha  occ. eigenvalues --  -10.19624 -10.19489 -10.18860 -10.18541 -10.17855
 Alpha  occ. eigenvalues --  -10.17422 -10.17148 -10.17079 -10.16251 -10.15653
 Alpha  occ. eigenvalues --  -10.15288 -10.15014 -10.14833 -10.14775 -10.14773
 Alpha  occ. eigenvalues --  -10.14724  -7.96042  -7.94999  -5.92348  -5.91968
 Alpha  occ. eigenvalues --   -5.91613  -5.91312  -5.90934  -5.90549  -1.07515
 Alpha  occ. eigenvalues --   -1.07314  -1.03908  -1.03424  -1.02005  -1.01389
 Alpha  occ. eigenvalues --   -0.91862  -0.91255  -0.88704  -0.87094  -0.86073
 Alpha  occ. eigenvalues --   -0.81035  -0.78505  -0.77073  -0.75403  -0.74051
 Alpha  occ. eigenvalues --   -0.73059  -0.72424  -0.71416  -0.71095  -0.69106
 Alpha  occ. eigenvalues --   -0.68928  -0.67161  -0.65214  -0.62766  -0.61178
 Alpha  occ. eigenvalues --   -0.60885  -0.59665  -0.58724  -0.57135  -0.54982
 Alpha  occ. eigenvalues --   -0.54747  -0.53253  -0.53031  -0.52554  -0.50326
 Alpha  occ. eigenvalues --   -0.49165  -0.48038  -0.47401  -0.47078  -0.46943
 Alpha  occ. eigenvalues --   -0.46589  -0.46318  -0.45904  -0.45290  -0.44858
 Alpha  occ. eigenvalues --   -0.44615  -0.44222  -0.44187  -0.42665  -0.42159
 Alpha  occ. eigenvalues --   -0.41877  -0.41081  -0.40746  -0.40526  -0.40340
 Alpha  occ. eigenvalues --   -0.40187  -0.40020  -0.39087  -0.38550  -0.38524
 Alpha  occ. eigenvalues --   -0.38084  -0.37832  -0.37487  -0.37107  -0.36988
 Alpha  occ. eigenvalues --   -0.36755  -0.36151  -0.35209  -0.35180  -0.34393
 Alpha  occ. eigenvalues --   -0.33337  -0.32963  -0.32683  -0.32097  -0.31754
 Alpha  occ. eigenvalues --   -0.30317  -0.27692  -0.26902  -0.26627  -0.25955
 Alpha  occ. eigenvalues --   -0.25537  -0.25241  -0.24709  -0.24362  -0.23792
 Alpha  occ. eigenvalues --   -0.23437  -0.22793  -0.21107  -0.17638  -0.11476
 Alpha virt. eigenvalues --   -0.04484  -0.02365  -0.01277  -0.00377  -0.00025
 Alpha virt. eigenvalues --    0.00638   0.00976   0.00998   0.01356   0.01640
 Alpha virt. eigenvalues --    0.02067   0.02638   0.02673   0.03144   0.03202
 Alpha virt. eigenvalues --    0.03613   0.03683   0.04166   0.04276   0.04468
 Alpha virt. eigenvalues --    0.04602   0.04948   0.05122   0.05314   0.05555
 Alpha virt. eigenvalues --    0.05687   0.05823   0.06293   0.06405   0.06540
 Alpha virt. eigenvalues --    0.06917   0.07159   0.07406   0.07567   0.07807
 Alpha virt. eigenvalues --    0.08138   0.08406   0.08602   0.09143   0.09297
 Alpha virt. eigenvalues --    0.09454   0.09591   0.09852   0.10163   0.10323
 Alpha virt. eigenvalues --    0.10587   0.10881   0.11161   0.11556   0.11974
 Alpha virt. eigenvalues --    0.12133   0.12194   0.12482   0.12679   0.12923
 Alpha virt. eigenvalues --    0.13262   0.13601   0.13709   0.14557   0.14687
 Alpha virt. eigenvalues --    0.14756   0.14967   0.15209   0.15471   0.15499
 Alpha virt. eigenvalues --    0.15866   0.15914   0.16249   0.16289   0.16517
 Alpha virt. eigenvalues --    0.16690   0.17038   0.17398   0.17559   0.17664
 Alpha virt. eigenvalues --    0.17941   0.18191   0.18627   0.18731   0.18819
 Alpha virt. eigenvalues --    0.19131   0.19298   0.19673   0.19840   0.20001
 Alpha virt. eigenvalues --    0.20133   0.20284   0.20603   0.20642   0.20921
 Alpha virt. eigenvalues --    0.21163   0.21424   0.21504   0.21630   0.21842
 Alpha virt. eigenvalues --    0.21925   0.22085   0.22337   0.22512   0.22662
 Alpha virt. eigenvalues --    0.23288   0.23516   0.23817   0.24050   0.24139
 Alpha virt. eigenvalues --    0.24420   0.24454   0.24640   0.24901   0.25121
 Alpha virt. eigenvalues --    0.25231   0.25326   0.25649   0.25852   0.25955
 Alpha virt. eigenvalues --    0.26204   0.26466   0.26709   0.26821   0.26924
 Alpha virt. eigenvalues --    0.27199   0.27326   0.27536   0.27786   0.27833
 Alpha virt. eigenvalues --    0.28004   0.28350   0.28464   0.28744   0.28973
 Alpha virt. eigenvalues --    0.29262   0.29346   0.29461   0.29714   0.29945
 Alpha virt. eigenvalues --    0.30141   0.30275   0.30364   0.30609   0.30812
 Alpha virt. eigenvalues --    0.30913   0.31073   0.31380   0.31388   0.31741
 Alpha virt. eigenvalues --    0.31907   0.32216   0.32741   0.32787   0.32898
 Alpha virt. eigenvalues --    0.33275   0.33611   0.33709   0.33944   0.34087
 Alpha virt. eigenvalues --    0.34434   0.34776   0.35090   0.35300   0.35463
 Alpha virt. eigenvalues --    0.36063   0.36224   0.36626   0.36770   0.36914
 Alpha virt. eigenvalues --    0.37473   0.38273   0.38622   0.39022   0.39131
 Alpha virt. eigenvalues --    0.39789   0.40242   0.40722   0.40913   0.41223
 Alpha virt. eigenvalues --    0.41608   0.41738   0.42240   0.42607   0.42916
 Alpha virt. eigenvalues --    0.43453   0.43575   0.43942   0.44517   0.44994
 Alpha virt. eigenvalues --    0.45895   0.45930   0.46359   0.46659   0.46826
 Alpha virt. eigenvalues --    0.47097   0.47373   0.47457   0.47944   0.48363
 Alpha virt. eigenvalues --    0.48587   0.48997   0.49936   0.50783   0.51176
 Alpha virt. eigenvalues --    0.51775   0.52185   0.52454   0.52919   0.53274
 Alpha virt. eigenvalues --    0.53799   0.55138   0.55383   0.55706   0.56188
 Alpha virt. eigenvalues --    0.56702   0.56858   0.57261   0.57519   0.58065
 Alpha virt. eigenvalues --    0.58315   0.58426   0.58862   0.59108   0.59452
 Alpha virt. eigenvalues --    0.60237   0.60407   0.61024   0.61399   0.61860
 Alpha virt. eigenvalues --    0.62421   0.62524   0.62889   0.63363   0.63816
 Alpha virt. eigenvalues --    0.64067   0.64359   0.64672   0.65422   0.65814
 Alpha virt. eigenvalues --    0.66116   0.66287   0.66609   0.67297   0.67457
 Alpha virt. eigenvalues --    0.67832   0.68174   0.68545   0.68711   0.69188
 Alpha virt. eigenvalues --    0.69481   0.69707   0.70160   0.70605   0.70820
 Alpha virt. eigenvalues --    0.71463   0.71993   0.72252   0.72440   0.72902
 Alpha virt. eigenvalues --    0.73673   0.73898   0.74379   0.74578   0.74812
 Alpha virt. eigenvalues --    0.75293   0.75822   0.75943   0.76320   0.76393
 Alpha virt. eigenvalues --    0.76801   0.77177   0.77245   0.77772   0.77930
 Alpha virt. eigenvalues --    0.78566   0.78734   0.79015   0.79212   0.79777
 Alpha virt. eigenvalues --    0.80110   0.80473   0.80985   0.81547   0.81928
 Alpha virt. eigenvalues --    0.82256   0.82756   0.83178   0.83456   0.84149
 Alpha virt. eigenvalues --    0.84565   0.85210   0.85460   0.86455   0.87801
 Alpha virt. eigenvalues --    0.88852   0.89519   0.89751   0.90239   0.91180
 Alpha virt. eigenvalues --    0.91219   0.91518   0.92432   0.92562   0.93049
 Alpha virt. eigenvalues --    0.93370   0.94335   0.95052   0.95511   0.96113
 Alpha virt. eigenvalues --    0.96855   0.97682   0.98143   0.98157   0.98517
 Alpha virt. eigenvalues --    0.99165   0.99329   0.99506   1.00369   1.00778
 Alpha virt. eigenvalues --    1.00919   1.01344   1.01729   1.02198   1.02680
 Alpha virt. eigenvalues --    1.03016   1.03114   1.04358   1.04727   1.04916
 Alpha virt. eigenvalues --    1.05646   1.05965   1.06311   1.06543   1.06744
 Alpha virt. eigenvalues --    1.07072   1.07901   1.08074   1.08396   1.08806
 Alpha virt. eigenvalues --    1.09478   1.09744   1.10266   1.10648   1.11039
 Alpha virt. eigenvalues --    1.11748   1.11768   1.12199   1.13061   1.13662
 Alpha virt. eigenvalues --    1.14199   1.15148   1.16201   1.16600   1.17224
 Alpha virt. eigenvalues --    1.18279   1.18590   1.18926   1.19424   1.20162
 Alpha virt. eigenvalues --    1.21231   1.21386   1.22422   1.23021   1.23449
 Alpha virt. eigenvalues --    1.23905   1.24317   1.25889   1.26456   1.27359
 Alpha virt. eigenvalues --    1.27604   1.27971   1.28928   1.30598   1.30834
 Alpha virt. eigenvalues --    1.31266   1.31678   1.32270   1.32904   1.33351
 Alpha virt. eigenvalues --    1.34324   1.34962   1.36200   1.36295   1.37246
 Alpha virt. eigenvalues --    1.38906   1.39233   1.39917   1.40891   1.41559
 Alpha virt. eigenvalues --    1.42104   1.43782   1.43958   1.44483   1.44771
 Alpha virt. eigenvalues --    1.45133   1.45485   1.46369   1.46584   1.46920
 Alpha virt. eigenvalues --    1.47079   1.47871   1.48314   1.48869   1.49726
 Alpha virt. eigenvalues --    1.50027   1.50272   1.51621   1.51951   1.53019
 Alpha virt. eigenvalues --    1.54098   1.54550   1.55139   1.55553   1.55877
 Alpha virt. eigenvalues --    1.56015   1.56168   1.56690   1.57013   1.57575
 Alpha virt. eigenvalues --    1.57842   1.58162   1.58496   1.59033   1.59746
 Alpha virt. eigenvalues --    1.61793   1.62104   1.62830   1.63496   1.63986
 Alpha virt. eigenvalues --    1.64291   1.64973   1.65328   1.65619   1.67241
 Alpha virt. eigenvalues --    1.67761   1.68056   1.68744   1.69202   1.70047
 Alpha virt. eigenvalues --    1.70540   1.71299   1.71886   1.72901   1.73141
 Alpha virt. eigenvalues --    1.73688   1.73977   1.74315   1.74642   1.75320
 Alpha virt. eigenvalues --    1.76030   1.76942   1.77782   1.78092   1.78260
 Alpha virt. eigenvalues --    1.78885   1.79604   1.80002   1.80711   1.81088
 Alpha virt. eigenvalues --    1.81303   1.81836   1.83205   1.84159   1.85389
 Alpha virt. eigenvalues --    1.85759   1.87197   1.87491   1.88510   1.89147
 Alpha virt. eigenvalues --    1.89819   1.90385   1.91507   1.91718   1.92258
 Alpha virt. eigenvalues --    1.93122   1.93254   1.94257   1.94884   1.95414
 Alpha virt. eigenvalues --    1.95925   1.96137   1.96964   1.97352   1.98137
 Alpha virt. eigenvalues --    1.99633   2.00290   2.00536   2.01860   2.02684
 Alpha virt. eigenvalues --    2.03110   2.03263   2.04242   2.04786   2.04867
 Alpha virt. eigenvalues --    2.05376   2.05848   2.06351   2.07057   2.07809
 Alpha virt. eigenvalues --    2.07823   2.08608   2.09324   2.09540   2.10314
 Alpha virt. eigenvalues --    2.11148   2.11662   2.12634   2.13297   2.13754
 Alpha virt. eigenvalues --    2.14680   2.15201   2.16489   2.16946   2.17550
 Alpha virt. eigenvalues --    2.19759   2.19902   2.20683   2.20789   2.21279
 Alpha virt. eigenvalues --    2.22057   2.23038   2.23117   2.24558   2.25148
 Alpha virt. eigenvalues --    2.27063   2.28948   2.30334   2.30682   2.32325
 Alpha virt. eigenvalues --    2.36046   2.36787   2.37507   2.39743   2.41013
 Alpha virt. eigenvalues --    2.42119   2.42394   2.43642   2.43992   2.44385
 Alpha virt. eigenvalues --    2.45088   2.46043   2.47264   2.47704   2.47975
 Alpha virt. eigenvalues --    2.49275   2.49708   2.50443   2.51381   2.52817
 Alpha virt. eigenvalues --    2.53281   2.53593   2.54190   2.54563   2.54827
 Alpha virt. eigenvalues --    2.55637   2.55688   2.55788   2.56957   2.57429
 Alpha virt. eigenvalues --    2.58914   2.59687   2.61903   2.61954   2.62961
 Alpha virt. eigenvalues --    2.64861   2.66518   2.68068   2.68505   2.68987
 Alpha virt. eigenvalues --    2.69163   2.70187   2.70265   2.71001   2.72319
 Alpha virt. eigenvalues --    2.72995   2.73737   2.74409   2.75309   2.75536
 Alpha virt. eigenvalues --    2.75783   2.76012   2.76669   2.76841   2.78235
 Alpha virt. eigenvalues --    2.79403   2.80322   2.80905   2.82373   2.83560
 Alpha virt. eigenvalues --    2.84954   2.85238   2.86287   2.87094   2.87769
 Alpha virt. eigenvalues --    2.88282   2.88947   2.89587   2.90391   2.91093
 Alpha virt. eigenvalues --    2.92093   2.93054   2.93545   2.93911   2.94449
 Alpha virt. eigenvalues --    2.95132   2.95941   2.96611   2.97063   2.97995
 Alpha virt. eigenvalues --    2.98634   2.99629   3.00137   3.01136   3.01633
 Alpha virt. eigenvalues --    3.03312   3.04559   3.06048   3.07671   3.08098
 Alpha virt. eigenvalues --    3.09821   3.10023   3.11341   3.12395   3.12878
 Alpha virt. eigenvalues --    3.15276   3.15617   3.17822   3.18459   3.18855
 Alpha virt. eigenvalues --    3.19560   3.21333   3.22979   3.23603   3.24590
 Alpha virt. eigenvalues --    3.24908   3.25466   3.26694   3.30062   3.31087
 Alpha virt. eigenvalues --    3.32123   3.32881   3.34113   3.34447   3.38159
 Alpha virt. eigenvalues --    3.38294   3.38714   3.38984   3.39625   3.40980
 Alpha virt. eigenvalues --    3.42311   3.43279   3.44974   3.47067   3.47103
 Alpha virt. eigenvalues --    3.48024   3.49394   3.50178   3.51690   3.53822
 Alpha virt. eigenvalues --    3.55000   3.56201   3.59497   3.62407   3.63656
 Alpha virt. eigenvalues --    3.64914   3.66332   3.69203   3.69649   3.71482
 Alpha virt. eigenvalues --    3.73690   3.74450   3.75017   3.75263   3.77367
 Alpha virt. eigenvalues --    3.77486   3.77778   3.83306   3.85755   3.86206
 Alpha virt. eigenvalues --    3.88154   3.89212   3.94307   3.96007   3.96850
 Alpha virt. eigenvalues --    3.97447   3.98042   4.01215   4.04688   4.05788
 Alpha virt. eigenvalues --    4.08588   4.09558   4.11655   4.15097   4.17520
 Alpha virt. eigenvalues --    4.21118   4.25729   4.29783   4.31317   4.40540
 Alpha virt. eigenvalues --    4.43257   4.45497   4.54898   4.70222   4.89982
 Alpha virt. eigenvalues --    4.90886   4.92055   4.94211   5.02500   5.03745
 Alpha virt. eigenvalues --    5.08115   5.09514   5.09884   5.13991   5.15815
 Alpha virt. eigenvalues --    5.17379   5.29038   5.30974   5.33066   5.35268
 Alpha virt. eigenvalues --    5.43483   5.44845   5.77725   5.79867   5.81384
 Alpha virt. eigenvalues --    5.84225   5.86156   5.89294   8.03056   8.06236
 Alpha virt. eigenvalues --   17.29888  17.35323  17.50440  17.53298  17.59358
 Alpha virt. eigenvalues --   17.63892  23.53284  23.60014  23.74214  23.82938
 Alpha virt. eigenvalues --   23.85945  23.87926  23.89325  23.90857  23.91550
 Alpha virt. eigenvalues --   23.92394  23.92450  23.92874  23.94185  23.96926
 Alpha virt. eigenvalues --   23.97554  24.00537  24.01850  24.03252  24.03747
 Alpha virt. eigenvalues --   24.04898  24.06163  24.11498  24.14596  24.15643
 Alpha virt. eigenvalues --   24.19482  24.20352  35.59867  35.62668  49.97206
 Alpha virt. eigenvalues --   49.98547  50.06900  50.08722  50.10738  50.12364
 Alpha virt. eigenvalues --  189.20352 189.24153
          Condensed to atoms (all electrons):
 Mulliken charges:
               1
     1  C    0.325321
     2  C   -0.156946
     3  C    0.084167
     4  C    0.100414
     5  C    0.234783
     6  C   -0.658217
     7  C    0.200288
     8  C    0.106921
     9  C    0.465899
    10  C   -0.343940
    11  C    0.410653
    12  C   -0.027510
    13  C   -0.556454
    14  C   -0.656707
    15  H    0.118716
    16  H    0.120765
    17  H    0.132408
    18  N   -0.158598
    19  N   -0.158326
    20  O   -0.489646
    21  O   -0.470363
    22  O   -0.484080
    23  O   -0.385547
    24  C   -0.189299
    25  H    0.161503
    26  H    0.161228
    27  H    0.167048
    28  C   -0.199670
    29  H    0.161340
    30  H    0.162154
    31  H    0.168212
    32  C   -0.110784
    33  C   -0.188543
    34  S   -0.501003
    35  C   -0.392089
    36  H    0.137640
    37  C    0.518792
    38  O   -0.152848
    39  C    0.808569
    40  C   -0.245763
    41  C   -0.034633
    42  S   -0.211324
    43  H    0.170465
    44  H    0.157658
    45  H    0.160152
    46  C   -0.513818
    47  O   -0.157278
    48  C   -0.354539
    49  H    0.155189
    50  C   -0.254038
    51  H    0.181002
    52  H    0.155169
    53  H    0.170313
    54  H    0.155192
 Sum of Mulliken charges =  -2.00000
 Mulliken charges with hydrogens summed into heavy atoms:
               1
     1  C    0.325321
     2  C   -0.156946
     3  C    0.084167
     4  C    0.100414
     5  C    0.234783
     6  C   -0.525809
     7  C    0.200288
     8  C    0.106921
     9  C    0.465899
    10  C   -0.343940
    11  C    0.410653
    12  C   -0.027510
    13  C   -0.435689
    14  C   -0.537991
    18  N   -0.158598
    19  N   -0.158326
    20  O   -0.489646
    21  O   -0.470363
    22  O   -0.484080
    23  O   -0.385547
    24  C    0.300480
    28  C    0.292037
    32  C   -0.110784
    33  C   -0.050904
    34  S   -0.501003
    35  C   -0.392089
    37  C    0.518792
    38  O   -0.152848
    39  C    0.808569
    40  C    0.242513
    41  C   -0.034633
    42  S   -0.211324
    46  C   -0.358629
    47  O   -0.157278
    48  C   -0.173537
    50  C    0.226636
 Electronic spatial extent (au):  <R**2>=          22624.1694
 Charge=             -2.0000 electrons
 Dipole moment (field-independent basis, Debye):
    X=            -25.6840    Y=             -1.5292    Z=              0.8137  Tot=             25.7423
 Quadrupole moment (field-independent basis, Debye-Ang):
   XX=           -380.3109   YY=           -287.9197   ZZ=           -225.9258
   XY=              5.7168   XZ=             10.9465   YZ=             29.5991
 Traceless Quadrupole moment (field-independent basis, Debye-Ang):
   XX=            -82.2587   YY=             10.1324   ZZ=             72.1263
   XY=              5.7168   XZ=             10.9465   YZ=             29.5991
 Octapole moment (field-independent basis, Debye-Ang**2):
  XXX=           -980.4166  YYY=            -44.5656  ZZZ=              2.9172  XYY=           -301.1545
  XXY=            -65.9323  XXZ=            -27.9230  XZZ=            -61.4558  YZZ=             -3.8089
  YYZ=              7.2790  XYZ=            -20.8279
 Hexadecapole moment (field-independent basis, Debye-Ang**3):
 XXXX=         -26409.0457 YYYY=          -8272.3590 ZZZZ=          -1468.8890 XXXY=            755.4090
 XXXZ=            408.2702 YYYX=           -352.4925 YYYZ=            372.4868 ZZZX=             48.1174
 ZZZY=            137.5086 XXYY=          -5947.2094 XXZZ=          -3984.0103 YYZZ=          -1428.6034
 XXYZ=            517.3991 YYXZ=            163.8779 ZZXY=            -18.9389
 N-N= 4.077997983490D+03 E-N=-1.375865927645D+04  KE= 2.352519717694D+03
 D1PCM: PCM CHGder 1st derivatives, ID1Alg=3 FixD1E=F DoIter=F DoCFld=F I1PDM=0.
 Calling FoFJK, ICntrl=      2127 FMM=F ISym2X=0 I1Cent= 0 IOpClX= 0 NMat=1 NMatS=1 NMatT=0.
 ***** Axes restored to original set *****
 -------------------------------------------------------------------
 Center     Atomic                   Forces (Hartrees/Bohr)
 Number     Number              X              Y              Z
 -------------------------------------------------------------------
      1        6          -0.012318136    0.051162377    0.006829985
      2        6          -0.031099290   -0.033787393   -0.003182701
      3        6          -0.001110623   -0.009056302   -0.001118144
      4        6           0.012684718   -0.039810104   -0.005863818
      5        6           0.034502088    0.039284244    0.004854832
      6        6           0.038882189    0.034687320    0.003926403
      7        6           0.001439383    0.008063221   -0.000211577
      8        6          -0.011864207    0.038971600    0.007429217
      9        6           0.002100390   -0.047809075   -0.003693736
     10        6          -0.024421509   -0.038547736   -0.009508900
     11        6           0.016428263   -0.048210346   -0.007885939
     12        6           0.027037134    0.031744990    0.005166325
     13        6          -0.032692728   -0.029946661   -0.003968449
     14        6          -0.015966660    0.040526773    0.006170098
     15        1          -0.000325612    0.001764964    0.000275370
     16        1          -0.000706385   -0.001912362   -0.000283313
     17        1           0.001445770    0.002488356   -0.000363316
     18        7          -0.002701999    0.000898884   -0.000944835
     19        7          -0.000607821   -0.000207893   -0.000076352
     20        8           0.022029662   -0.028568904   -0.004102746
     21        8          -0.033306037   -0.016744907   -0.001760841
     22        8          -0.022910005    0.027645037    0.004510715
     23        8           0.030960223    0.013040855    0.004759924
     24        6           0.000209316   -0.002131196   -0.001673445
     25        1          -0.000467131    0.001042865    0.000131220
     26        1          -0.001021867    0.000673988    0.001121280
     27        1           0.001208573    0.000446010    0.000253142
     28        6           0.000824138    0.002319940   -0.000108568
     29        1          -0.001133246   -0.000647247    0.000490020
     30        1          -0.000863442   -0.000750123   -0.000287330
     31        1           0.001053522   -0.000922019   -0.000103852
     32        6           0.004734413    0.002028549   -0.003255518
     33        6          -0.007186918    0.000113856    0.003438667
     34       16          -0.008628029    0.002906009   -0.001182309
     35        6           0.003181946   -0.007792735    0.009462488
     36        1          -0.001435175   -0.000071717   -0.000188951
     37        6           0.004652064    0.006696381   -0.007080811
     38        8           0.002034424    0.001259456   -0.001187561
     39        6           0.000627774   -0.004352499    0.002551951
     40        6          -0.001073224    0.003084422   -0.003026699
     41        6           0.003762194    0.006377654   -0.005587127
     42       16          -0.000920906   -0.000735742    0.000131289
     43        1          -0.000961512   -0.000076381    0.000276154
     44        1           0.000848148    0.000351192    0.001174277
     45        1           0.001436114   -0.001075514   -0.000771949
     46        6          -0.000728191    0.001105645   -0.001288380
     47        8          -0.003280059   -0.001911207    0.001602449
     48        6           0.005664819   -0.002390171    0.002825785
     49        1           0.000139026    0.000549683   -0.000507470
     50        6           0.002727489   -0.002859614    0.002529988
     51        1          -0.000940081    0.000228173   -0.000064302
     52        1          -0.001054075   -0.000401288   -0.001198167
     53        1           0.000215478    0.000061405    0.000056009
     54        1          -0.001104386    0.001195288    0.000509522
 -------------------------------------------------------------------
 Cartesian Forces:  Max     0.051162377 RMS     0.014231888

 GradGradGradGradGradGradGradGradGradGradGradGradGradGradGradGradGradGrad
 Berny optimization.
 FormGI is forming the generalized inverse of G from B-inverse, IUseBI=4.
 Internal  Forces:  Max     0.036950004 RMS     0.006676256
 Search for a local minimum.
 Step number   1 out of a maximum of  307
 All quantities printed in internal units (Hartrees-Bohrs-Radians)
 Mixed Optimization -- RFO/linear search
 Second derivative matrix not updated -- first step.
 ITU=  0
     Eigenvalues ---    0.00803   0.00803   0.01176   0.01203   0.01245
     Eigenvalues ---    0.01292   0.01308   0.01311   0.01364   0.01381
     Eigenvalues ---    0.01419   0.01429   0.01458   0.01496   0.01516
     Eigenvalues ---    0.01568   0.01572   0.01577   0.01615   0.01651
     Eigenvalues ---    0.01687   0.01711   0.01712   0.01719   0.01754
     Eigenvalues ---    0.01783   0.01803   0.01847   0.01957   0.02040
     Eigenvalues ---    0.02051   0.02072   0.02072   0.02080   0.02135
     Eigenvalues ---    0.02149   0.02163   0.02178   0.02197   0.02228
     Eigenvalues ---    0.02249   0.02252   0.07556   0.07572   0.07690
     Eigenvalues ---    0.07700   0.10061   0.10071   0.10628   0.10633
     Eigenvalues ---    0.15983   0.15999   0.15999   0.16000   0.16000
     Eigenvalues ---    0.16000   0.16000   0.16000   0.16000   0.16000
     Eigenvalues ---    0.16000   0.16000   0.16000   0.16000   0.16000
     Eigenvalues ---    0.16000   0.16000   0.16000   0.22530   0.22583
     Eigenvalues ---    0.23518   0.23582   0.24516   0.24747   0.24865
     Eigenvalues ---    0.24931   0.24952   0.24985   0.24987   0.24988
     Eigenvalues ---    0.24991   0.24994   0.24997   0.24997   0.24998
     Eigenvalues ---    0.24998   0.25000   0.25000   0.25000   0.25000
     Eigenvalues ---    0.25000   0.25000   0.25000   0.25000   0.25000
     Eigenvalues ---    0.25000   0.28832   0.28915   0.30099   0.32126
     Eigenvalues ---    0.32582   0.32774   0.33111   0.33787   0.34012
     Eigenvalues ---    0.34027   0.34053   0.34066   0.34354   0.34466
     Eigenvalues ---    0.34577   0.34629   0.34693   0.34813   0.34967
     Eigenvalues ---    0.35198   0.35218   0.35468   0.35553   0.35582
     Eigenvalues ---    0.35837   0.35909   0.36078   0.36083   0.36199
     Eigenvalues ---    0.36396   0.36662   0.39352   0.40162   0.40194
     Eigenvalues ---    0.40619   0.40651   0.41524   0.41754   0.41933
     Eigenvalues ---    0.42300   0.42798   0.43455   0.43949   0.44092
     Eigenvalues ---    0.44480   0.44594   0.45014   0.45406   0.46251
     Eigenvalues ---    0.47305   0.47548   0.49310   0.49588   0.53053
     Eigenvalues ---    0.53428   0.93281   0.93432   0.93989   0.94585
     Eigenvalues --- 1000.000001000.000001000.000001000.000001000.00000
     Eigenvalues --- 1000.000001000.000001000.000001000.000001000.00000
     Eigenvalues --- 1000.000001000.000001000.000001000.000001000.00000
     Eigenvalues --- 1000.000001000.000001000.000001000.000001000.00000
     Eigenvalues --- 1000.000001000.000001000.000001000.000001000.00000
     Eigenvalues --- 1000.000001000.000001000.000001000.000001000.00000
     Eigenvalues --- 1000.000001000.000001000.000001000.000001000.00000
     Eigenvalues --- 1000.000001000.000001000.000001000.000001000.00000
     Eigenvalues --- 1000.000001000.000001000.000001000.000001000.00000
     Eigenvalues --- 1000.000001000.000001000.000001000.000001000.00000
     Eigenvalues --- 1000.000001000.000001000.000001000.000001000.00000
     Eigenvalues --- 1000.000001000.000001000.000001000.000001000.00000
     Eigenvalues --- 1000.000001000.000001000.000001000.000001000.00000
     Eigenvalues --- 1000.000001000.000001000.000001000.000001000.00000
     Eigenvalues --- 1000.000001000.000001000.000001000.000001000.00000
     Eigenvalues --- 1000.000001000.000001000.000001000.000001000.00000
     Eigenvalues --- 1000.000001000.000001000.000001000.000001000.00000
     Eigenvalues --- 1000.000001000.000001000.000001000.000001000.00000
     Eigenvalues --- 1000.000001000.000001000.000001000.000001000.00000
     Eigenvalues --- 1000.000001000.000001000.000001000.000001000.00000
     Eigenvalues --- 1000.000001000.000001000.000001000.000001000.00000
     Eigenvalues --- 1000.000001000.000001000.000001000.000001000.00000
     Eigenvalues --- 1000.000001000.000001000.000001000.000001000.00000
     Eigenvalues --- 1000.000001000.000001000.000001000.000001000.00000
     Eigenvalues --- 1000.000001000.000001000.000001000.000001000.00000
     Eigenvalues --- 1000.000001000.000001000.000001000.000001000.00000
     Eigenvalues --- 1000.000001000.000001000.000001000.000001000.00000
     Eigenvalues --- 1000.000001000.000001000.000001000.000001000.00000
     Eigenvalues --- 1000.000001000.00000
 RFO step:  Lambda=-2.51329211D-02 EMin= 8.02933640D-03
 Linear search not attempted -- first point.
 Iteration  1 RMS(Cart)=  0.06790332 RMS(Int)=  0.00045495
 Iteration  2 RMS(Cart)=  0.00120911 RMS(Int)=  0.00003779
 Iteration  3 RMS(Cart)=  0.00000044 RMS(Int)=  0.00003779
 Iteration  1 RMS(Cart)=  0.00000640 RMS(Int)=  0.00000103
 Iteration  2 RMS(Cart)=  0.00000365 RMS(Int)=  0.00000114
 Iteration  3 RMS(Cart)=  0.00000208 RMS(Int)=  0.00000130
 Iteration  4 RMS(Cart)=  0.00000119 RMS(Int)=  0.00000141
 Iteration  5 RMS(Cart)=  0.00000068 RMS(Int)=  0.00000147
 Variable       Old X    -DE/DX   Delta X   Delta X   Delta X     New X
                                 (Linear)    (Quad)   (Total)
    R1        2.80935  -0.02393   0.00000  -0.06566  -0.06566   2.74369
    R2        2.64584   0.00336   0.00000   0.00652   0.00654   2.65238
    R3        2.31147   0.03597   0.00000   0.03727   0.03727   2.34874
    R4        2.67311   0.00663   0.00000   0.01674   0.01668   2.68980
    R5        2.59267   0.03294   0.00000   0.06282   0.06277   2.65544
    R6        2.66894   0.00423   0.00000   0.01012   0.01013   2.67907
    R7        2.69164   0.00840   0.00000   0.02013   0.02017   2.71181
    R8        2.81049  -0.02247   0.00000  -0.06214  -0.06214   2.74835
    R9        2.62173   0.03023   0.00000   0.06015   0.06014   2.68187
   R10        2.65570   0.00259   0.00000   0.00486   0.00488   2.66058
   R11        2.30889   0.03695   0.00000   0.03805   0.03805   2.34695
   R12        2.70248  -0.03009   0.00000  -0.06985  -0.06986   2.63262
   R13        2.04786  -0.00068   0.00000  -0.00178  -0.00178   2.04608
   R14        2.70495   0.00140   0.00000   0.00199   0.00208   2.70704
   R15        2.68322   0.00434   0.00000   0.00962   0.00966   2.69287
   R16        2.68655   0.01979   0.00000   0.04259   0.04263   2.72918
   R17        2.81233  -0.02563   0.00000  -0.07132  -0.07131   2.74102
   R18        2.76359   0.00345   0.00000   0.00881   0.00881   2.77241
   R19        2.66221   0.00461   0.00000   0.00984   0.00981   2.67202
   R20        2.31391   0.03392   0.00000   0.03536   0.03536   2.34926
   R21        2.79415  -0.02017   0.00000  -0.05378  -0.05378   2.74037
   R22        2.63842   0.00338   0.00000   0.00719   0.00715   2.64557
   R23        2.31456   0.03584   0.00000   0.03741   0.03741   2.35197
   R24        2.62448   0.02948   0.00000   0.05845   0.05844   2.68292
   R25        2.64561  -0.02274   0.00000  -0.04768  -0.04771   2.59791
   R26        2.04921  -0.00084   0.00000  -0.00222  -0.00222   2.04700
   R27        2.04741  -0.00026   0.00000  -0.00068  -0.00068   2.04673
   R28        2.77259  -0.00002   0.00000  -0.00005  -0.00005   2.77255
   R29        2.77252   0.00002   0.00000   0.00006   0.00006   2.77258
   R30        2.06176  -0.00008   0.00000  -0.00022  -0.00022   2.06154
   R31        2.06551  -0.00113   0.00000  -0.00305  -0.00305   2.06246
   R32        2.05322  -0.00080   0.00000  -0.00213  -0.00213   2.05110
   R33        2.06368  -0.00068   0.00000  -0.00183  -0.00183   2.06184
   R34        2.06281  -0.00016   0.00000  -0.00043  -0.00043   2.06238
   R35        2.05355  -0.00094   0.00000  -0.00250  -0.00250   2.05105
   R36        2.61121  -0.00460   0.00000  -0.00916  -0.00917   2.60203
   R37        3.33306  -0.00370   0.00000  -0.01202  -0.01206   3.32101
   R38        2.66122   0.00737   0.00000   0.01584   0.01586   2.67708
   R39        2.03772   0.00071   0.00000   0.00182   0.00182   2.03954
   R40        3.30395   0.00735   0.00000   0.02234   0.02235   3.32630
   R41        2.64208  -0.00431   0.00000  -0.00863  -0.00859   2.63349
   R42        2.56905   0.00519   0.00000   0.00933   0.00933   2.57838
   R43        2.71333   0.00592   0.00000   0.01388   0.01388   2.72721
   R44        2.69237   0.00301   0.00000   0.00680   0.00680   2.69918
   R45        2.63539  -0.00125   0.00000  -0.00264  -0.00264   2.63275
   R46        3.32848   0.00127   0.00000   0.00410   0.00409   3.33257
   R47        2.05980  -0.00093   0.00000  -0.00249  -0.00249   2.05731
   R48        2.07219  -0.00148   0.00000  -0.00404  -0.00404   2.06816
   R49        2.07240  -0.00189   0.00000  -0.00516  -0.00516   2.06724
   R50        2.69188   0.00140   0.00000   0.00300   0.00300   2.69488
   R51        2.56556   0.00552   0.00000   0.00986   0.00986   2.57543
   R52        3.26258   0.00168   0.00000   0.00494   0.00494   3.26752
   R53        2.58647  -0.00222   0.00000  -0.00415  -0.00415   2.58233
   R54        2.04337  -0.00060   0.00000  -0.00157  -0.00157   2.04180
   R55        2.69008   0.00287   0.00000   0.00645   0.00645   2.69653
   R56        2.04224  -0.00090   0.00000  -0.00233  -0.00233   2.03991
   R57        2.07285  -0.00161   0.00000  -0.00440  -0.00440   2.06845
   R58        2.05728  -0.00018   0.00000  -0.00049  -0.00049   2.05679
   R59        2.07311  -0.00168   0.00000  -0.00460  -0.00460   2.06851
    A1        2.03797  -0.00190   0.00000  -0.00632  -0.00631   2.03166
    A2        2.14521   0.00668   0.00000   0.02399   0.02399   2.16919
    A3        2.10001  -0.00478   0.00000  -0.01767  -0.01768   2.08233
    A4        2.10395  -0.00253   0.00000  -0.00923  -0.00921   2.09474
    A5        2.08282   0.00261   0.00000   0.00564   0.00570   2.08852
    A6        2.09624  -0.00009   0.00000   0.00350   0.00341   2.09965
    A7        2.10093   0.00420   0.00000   0.01478   0.01473   2.11565
    A8        2.07104  -0.00121   0.00000  -0.00238  -0.00240   2.06864
    A9        2.11118  -0.00298   0.00000  -0.01239  -0.01231   2.09887
   A10        2.10296  -0.00291   0.00000  -0.00969  -0.00971   2.09325
   A11        2.09911   0.00079   0.00000   0.00365   0.00368   2.10279
   A12        2.08110   0.00212   0.00000   0.00604   0.00604   2.08714
   A13        2.03739  -0.00147   0.00000  -0.00560  -0.00558   2.03181
   A14        2.12972   0.00679   0.00000   0.02480   0.02479   2.15451
   A15        2.11607  -0.00532   0.00000  -0.01920  -0.01921   2.09686
   A16        2.15098  -0.00253   0.00000  -0.00905  -0.00912   2.14186
   A17        2.04399   0.00406   0.00000   0.01949   0.01950   2.06349
   A18        2.08722  -0.00155   0.00000  -0.01085  -0.01084   2.07639
   A19        2.11101  -0.00343   0.00000  -0.01263  -0.01261   2.09840
   A20        2.04385   0.00179   0.00000   0.00810   0.00806   2.05191
   A21        2.12832   0.00164   0.00000   0.00452   0.00453   2.13285
   A22        2.08678   0.00279   0.00000   0.00714   0.00723   2.09401
   A23        2.04738   0.00298   0.00000   0.01160   0.01161   2.05899
   A24        2.14662  -0.00576   0.00000  -0.01820  -0.01832   2.12830
   A25        2.04892   0.00448   0.00000   0.01307   0.01310   2.06202
   A26        2.00754   0.00472   0.00000   0.01872   0.01870   2.02624
   A27        2.22643  -0.00921   0.00000  -0.03190  -0.03191   2.19451
   A28        2.06022  -0.00401   0.00000  -0.01546  -0.01546   2.04476
   A29        2.17370   0.00182   0.00000   0.00705   0.00705   2.18074
[...]
 Alpha  occ. eigenvalues --   -0.54888  -0.53507  -0.53360  -0.52865  -0.50687
 Alpha  occ. eigenvalues --   -0.49435  -0.48262  -0.47381  -0.47061  -0.46980
 Alpha  occ. eigenvalues --   -0.46661  -0.46083  -0.45760  -0.45457  -0.44851
 Alpha  occ. eigenvalues --   -0.44442  -0.44292  -0.44233  -0.42555  -0.42048
 Alpha  occ. eigenvalues --   -0.41738  -0.41114  -0.40859  -0.40454  -0.40427
 Alpha  occ. eigenvalues --   -0.40178  -0.40002  -0.39113  -0.38281  -0.38220
 Alpha  occ. eigenvalues --   -0.38141  -0.37704  -0.37339  -0.36950  -0.36874
 Alpha  occ. eigenvalues --   -0.36448  -0.36176  -0.35104  -0.34895  -0.34473
 Alpha  occ. eigenvalues --   -0.33328  -0.32975  -0.32760  -0.32461  -0.31703
 Alpha  occ. eigenvalues --   -0.30257  -0.27824  -0.26691  -0.26343  -0.25800
 Alpha  occ. eigenvalues --   -0.25586  -0.25015  -0.24651  -0.24171  -0.23865
 Alpha  occ. eigenvalues --   -0.23741  -0.22992  -0.20880  -0.18118  -0.13204
 Alpha virt. eigenvalues --   -0.04590  -0.03329  -0.01356  -0.00431  -0.00033
 Alpha virt. eigenvalues --    0.00590   0.00807   0.00959   0.01247   0.01551
 Alpha virt. eigenvalues --    0.01906   0.02621   0.02634   0.03082   0.03179
 Alpha virt. eigenvalues --    0.03511   0.03545   0.04066   0.04254   0.04451
 Alpha virt. eigenvalues --    0.04552   0.04721   0.05013   0.05205   0.05350
 Alpha virt. eigenvalues --    0.05531   0.05618   0.06223   0.06304   0.06508
 Alpha virt. eigenvalues --    0.06918   0.07214   0.07395   0.07601   0.07848
 Alpha virt. eigenvalues --    0.08094   0.08300   0.08577   0.08929   0.09221
 Alpha virt. eigenvalues --    0.09464   0.09553   0.09658   0.10275   0.10402
 Alpha virt. eigenvalues --    0.10559   0.10975   0.11277   0.11553   0.11754
 Alpha virt. eigenvalues --    0.11973   0.12231   0.12292   0.12739   0.12884
 Alpha virt. eigenvalues --    0.13243   0.13439   0.13705   0.14448   0.14585
 Alpha virt. eigenvalues --    0.14769   0.14927   0.15170   0.15211   0.15418
 Alpha virt. eigenvalues --    0.15703   0.15964   0.16144   0.16405   0.16518
 Alpha virt. eigenvalues --    0.16803   0.17003   0.17215   0.17504   0.17578
 Alpha virt. eigenvalues --    0.17833   0.18142   0.18485   0.18619   0.18853
 Alpha virt. eigenvalues --    0.19058   0.19303   0.19739   0.19862   0.19924
 Alpha virt. eigenvalues --    0.20204   0.20315   0.20455   0.20592   0.20861
 Alpha virt. eigenvalues --    0.21185   0.21357   0.21490   0.21634   0.21857
 Alpha virt. eigenvalues --    0.22040   0.22056   0.22419   0.22488   0.22789
 Alpha virt. eigenvalues --    0.23283   0.23366   0.23738   0.23831   0.24030
 Alpha virt. eigenvalues --    0.24179   0.24485   0.24552   0.24627   0.24950
 Alpha virt. eigenvalues --    0.25152   0.25224   0.25533   0.25817   0.25942
 Alpha virt. eigenvalues --    0.26281   0.26424   0.26717   0.26905   0.26980
 Alpha virt. eigenvalues --    0.27202   0.27335   0.27509   0.27555   0.27844
 Alpha virt. eigenvalues --    0.28093   0.28268   0.28366   0.28481   0.28999
 Alpha virt. eigenvalues --    0.29103   0.29322   0.29424   0.29562   0.29826
 Alpha virt. eigenvalues --    0.30108   0.30285   0.30394   0.30640   0.30772
 Alpha virt. eigenvalues --    0.31128   0.31186   0.31379   0.31442   0.31820
 Alpha virt. eigenvalues --    0.31950   0.32117   0.32296   0.32623   0.32901
 Alpha virt. eigenvalues --    0.33164   0.33260   0.33626   0.34074   0.34314
 Alpha virt. eigenvalues --    0.34409   0.34644   0.35126   0.35496   0.35622
 Alpha virt. eigenvalues --    0.36050   0.36338   0.36634   0.36838   0.37222
 Alpha virt. eigenvalues --    0.38034   0.38192   0.38819   0.39077   0.39269
 Alpha virt. eigenvalues --    0.39998   0.40166   0.40721   0.40882   0.41385
 Alpha virt. eigenvalues --    0.41599   0.41791   0.42144   0.42734   0.42951
 Alpha virt. eigenvalues --    0.43514   0.43975   0.44350   0.44573   0.44941
 Alpha virt. eigenvalues --    0.45600   0.45865   0.46269   0.46657   0.46858
 Alpha virt. eigenvalues --    0.47337   0.47460   0.47746   0.48237   0.48932
 Alpha virt. eigenvalues --    0.49076   0.49925   0.50498   0.50796   0.50941
 Alpha virt. eigenvalues --    0.51725   0.52180   0.52639   0.52733   0.53439
 Alpha virt. eigenvalues --    0.54161   0.54525   0.55249   0.55826   0.56106
 Alpha virt. eigenvalues --    0.56571   0.57057   0.57240   0.57804   0.58025
 Alpha virt. eigenvalues --    0.58372   0.58591   0.58810   0.59058   0.60024
 Alpha virt. eigenvalues --    0.60351   0.60727   0.61070   0.61718   0.62025
 Alpha virt. eigenvalues --    0.62243   0.62355   0.63157   0.63278   0.63928
 Alpha virt. eigenvalues --    0.64182   0.64576   0.65212   0.65485   0.65609
 Alpha virt. eigenvalues --    0.65868   0.66504   0.67186   0.67216   0.67703
 Alpha virt. eigenvalues --    0.68083   0.68441   0.68529   0.68775   0.68992
 Alpha virt. eigenvalues --    0.69567   0.69608   0.70242   0.70588   0.71157
 Alpha virt. eigenvalues --    0.71667   0.72071   0.72342   0.72599   0.73464
 Alpha virt. eigenvalues --    0.73813   0.74088   0.74380   0.74410   0.74853
 Alpha virt. eigenvalues --    0.75321   0.75621   0.75855   0.76113   0.76193
 Alpha virt. eigenvalues --    0.76797   0.77034   0.77507   0.77720   0.78177
 Alpha virt. eigenvalues --    0.78402   0.78624   0.78681   0.79484   0.79576
 Alpha virt. eigenvalues --    0.79905   0.80452   0.80961   0.81372   0.81818
 Alpha virt. eigenvalues --    0.82736   0.83361   0.83511   0.83616   0.84737
 Alpha virt. eigenvalues --    0.85205   0.85939   0.86435   0.87596   0.88612
 Alpha virt. eigenvalues --    0.88821   0.89268   0.89894   0.90737   0.91075
 Alpha virt. eigenvalues --    0.91899   0.92131   0.92336   0.93052   0.93541
 Alpha virt. eigenvalues --    0.93866   0.94286   0.94826   0.95761   0.96219
 Alpha virt. eigenvalues --    0.96690   0.97193   0.97439   0.98142   0.98355
 Alpha virt. eigenvalues --    0.98681   0.99426   0.99519   1.00310   1.00675
 Alpha virt. eigenvalues --    1.01260   1.01782   1.02415   1.02479   1.02868
 Alpha virt. eigenvalues --    1.03334   1.04035   1.04493   1.04967   1.05395
 Alpha virt. eigenvalues --    1.05457   1.05705   1.06187   1.06610   1.06836
 Alpha virt. eigenvalues --    1.07209   1.07679   1.07989   1.08451   1.08520
 Alpha virt. eigenvalues --    1.09636   1.09688   1.10310   1.10897   1.11388
 Alpha virt. eigenvalues --    1.11708   1.12126   1.12540   1.13156   1.13456
 Alpha virt. eigenvalues --    1.14392   1.16022   1.16746   1.16850   1.17327
 Alpha virt. eigenvalues --    1.18152   1.18668   1.19195   1.20665   1.21528
 Alpha virt. eigenvalues --    1.21791   1.22447   1.22828   1.23870   1.24286
 Alpha virt. eigenvalues --    1.24919   1.26108   1.26525   1.27094   1.27308
 Alpha virt. eigenvalues --    1.28158   1.28836   1.29522   1.30674   1.31520
 Alpha virt. eigenvalues --    1.31984   1.32606   1.32995   1.33325   1.34327
 Alpha virt. eigenvalues --    1.34942   1.36068   1.36303   1.37642   1.38564
 Alpha virt. eigenvalues --    1.39177   1.39952   1.40956   1.41217   1.42086
 Alpha virt. eigenvalues --    1.43629   1.43925   1.44295   1.44412   1.45100
 Alpha virt. eigenvalues --    1.45812   1.46130   1.46137   1.46929   1.47405
 Alpha virt. eigenvalues --    1.47866   1.48652   1.48683   1.49664   1.50009
 Alpha virt. eigenvalues --    1.50501   1.51388   1.51704   1.52519   1.53963
 Alpha virt. eigenvalues --    1.54027   1.54921   1.55065   1.55577   1.55727
 Alpha virt. eigenvalues --    1.56073   1.56657   1.56724   1.57061   1.57509
 Alpha virt. eigenvalues --    1.57892   1.59139   1.59531   1.59912   1.60644
 Alpha virt. eigenvalues --    1.62141   1.63083   1.63320   1.63644   1.63803
 Alpha virt. eigenvalues --    1.64715   1.65041   1.65416   1.66435   1.67289
 Alpha virt. eigenvalues --    1.67552   1.68063   1.69065   1.70206   1.70769
 Alpha virt. eigenvalues --    1.71042   1.71783   1.71890   1.72694   1.73410
 Alpha virt. eigenvalues --    1.73899   1.74178   1.74709   1.75229   1.76775
 Alpha virt. eigenvalues --    1.77205   1.77487   1.77998   1.78256   1.79219
 Alpha virt. eigenvalues --    1.79504   1.80058   1.80321   1.81315   1.81588
 Alpha virt. eigenvalues --    1.82778   1.83093   1.83634   1.85049   1.85445
 Alpha virt. eigenvalues --    1.86584   1.87468   1.88611   1.88881   1.89573
 Alpha virt. eigenvalues --    1.90063   1.90597   1.91447   1.92290   1.92908
 Alpha virt. eigenvalues --    1.93020   1.93957   1.94216   1.94933   1.95796
 Alpha virt. eigenvalues --    1.95986   1.96792   1.97508   1.98083   1.99721
 Alpha virt. eigenvalues --    1.99910   2.00581   2.01089   2.02346   2.02520
 Alpha virt. eigenvalues --    2.03119   2.03705   2.04575   2.04755   2.05024
 Alpha virt. eigenvalues --    2.05596   2.06494   2.07167   2.07483   2.08142
 Alpha virt. eigenvalues --    2.08201   2.09230   2.09853   2.10365   2.10729
 Alpha virt. eigenvalues --    2.11644   2.12139   2.12712   2.13367   2.14156
 Alpha virt. eigenvalues --    2.15102   2.16511   2.16621   2.17579   2.18224
 Alpha virt. eigenvalues --    2.19760   2.20397   2.20701   2.21594   2.21765
 Alpha virt. eigenvalues --    2.22867   2.23752   2.24070   2.24673   2.27048
 Alpha virt. eigenvalues --    2.28278   2.29752   2.32060   2.32375   2.36178
 Alpha virt. eigenvalues --    2.37007   2.37502   2.39170   2.40169   2.41984
 Alpha virt. eigenvalues --    2.42372   2.43278   2.43905   2.44511   2.44816
 Alpha virt. eigenvalues --    2.46143   2.47786   2.48066   2.48127   2.48839
 Alpha virt. eigenvalues --    2.49717   2.50186   2.51433   2.52446   2.53158
 Alpha virt. eigenvalues --    2.53189   2.54055   2.54309   2.54815   2.55575
 Alpha virt. eigenvalues --    2.55658   2.55909   2.57157   2.57644   2.59302
 Alpha virt. eigenvalues --    2.60120   2.61629   2.62547   2.63794   2.64866
 Alpha virt. eigenvalues --    2.65741   2.67202   2.68080   2.68620   2.69056
 Alpha virt. eigenvalues --    2.69940   2.70193   2.70970   2.71320   2.72099
 Alpha virt. eigenvalues --    2.73048   2.73498   2.74948   2.75265   2.75592
 Alpha virt. eigenvalues --    2.75831   2.76542   2.77100   2.78004   2.79561
 Alpha virt. eigenvalues --    2.80380   2.81038   2.82324   2.83412   2.84417
 Alpha virt. eigenvalues --    2.84923   2.85761   2.85834   2.87230   2.87294
 Alpha virt. eigenvalues --    2.87834   2.88986   2.89911   2.90912   2.91789
 Alpha virt. eigenvalues --    2.93034   2.93253   2.93750   2.94207   2.95073
 Alpha virt. eigenvalues --    2.96191   2.96213   2.96974   2.97598   2.97992
 Alpha virt. eigenvalues --    2.99289   3.00561   3.00655   3.01418   3.03129
 Alpha virt. eigenvalues --    3.04231   3.05276   3.07765   3.08324   3.09453
 Alpha virt. eigenvalues --    3.10512   3.12046   3.12787   3.13796   3.15101
 Alpha virt. eigenvalues --    3.15506   3.17347   3.18129   3.19914   3.21422
 Alpha virt. eigenvalues --    3.22041   3.22687   3.22977   3.23729   3.24087
 Alpha virt. eigenvalues --    3.25346   3.25717   3.27392   3.30604   3.32035
 Alpha virt. eigenvalues --    3.32486   3.33409   3.33973   3.35390   3.35860
 Alpha virt. eigenvalues --    3.36144   3.37197   3.37576   3.40443   3.40993
 Alpha virt. eigenvalues --    3.41895   3.42369   3.43325   3.44030   3.45601
 Alpha virt. eigenvalues --    3.46150   3.48849   3.49643   3.52600   3.52977
 Alpha virt. eigenvalues --    3.55283   3.56308   3.60531   3.61827   3.63272
 Alpha virt. eigenvalues --    3.64153   3.67602   3.69571   3.70226   3.73288
 Alpha virt. eigenvalues --    3.74562   3.74976   3.76111   3.77641   3.78112
 Alpha virt. eigenvalues --    3.78382   3.82946   3.85509   3.85730   3.88037
 Alpha virt. eigenvalues --    3.89181   3.93662   3.95513   3.96407   3.97268
 Alpha virt. eigenvalues --    3.98062   4.00895   4.03971   4.06522   4.08522
 Alpha virt. eigenvalues --    4.09038   4.11009   4.14845   4.16942   4.20770
 Alpha virt. eigenvalues --    4.25676   4.30037   4.31962   4.41003   4.42743
 Alpha virt. eigenvalues --    4.46070   4.53474   4.68012   4.86207   4.89374
 Alpha virt. eigenvalues --    4.91143   4.94375   5.02496   5.03527   5.08388
 Alpha virt. eigenvalues --    5.09784   5.10200   5.14649   5.16865   5.18057
 Alpha virt. eigenvalues --    5.28524   5.30388   5.32464   5.34706   5.42447
 Alpha virt. eigenvalues --    5.43664   5.76460   5.78623   5.80372   5.82979
 Alpha virt. eigenvalues --    5.85117   5.87956   8.02523   8.05442  17.29738
 Alpha virt. eigenvalues --   17.34997  17.49997  17.52861  17.58901  17.63650
 Alpha virt. eigenvalues --   23.52664  23.59507  23.73001  23.82090  23.83845
 Alpha virt. eigenvalues --   23.85924  23.88319  23.90797  23.91914  23.92334
 Alpha virt. eigenvalues --   23.92803  23.93700  23.94867  23.95602  23.97603
 Alpha virt. eigenvalues --   23.98301  23.99827  24.03140  24.04356  24.05009
 Alpha virt. eigenvalues --   24.05310  24.06589  24.13697  24.16164  24.19227
 Alpha virt. eigenvalues --   24.22890  35.59354  35.62053  49.96892  49.98275
 Alpha virt. eigenvalues --   50.05593  50.07281  50.09059  50.10448 189.19772
 Alpha virt. eigenvalues --  189.23298
          Condensed to atoms (all electrons):
 Mulliken charges:
               1
     1  C    0.375504
     2  C   -0.200656
     3  C    0.072011
     4  C    0.169684
     5  C    0.219985
     6  C   -0.519538
     7  C    0.211439
     8  C    0.094478
     9  C    0.449860
    10  C   -0.407272
    11  C    0.220686
    12  C    0.089285
    13  C   -0.521928
    14  C   -0.614913
    15  H    0.122457
    16  H    0.122936
    17  H    0.132530
    18  N   -0.121344
    19  N   -0.158574
    20  O   -0.527832
    21  O   -0.509088
    22  O   -0.515330
    23  O   -0.403201
    24  C   -0.190102
    25  H    0.160639
    26  H    0.160124
    27  H    0.167718
    28  C   -0.198567
    29  H    0.160008
    30  H    0.159623
    31  H    0.167960
    32  C    0.060005
    33  C   -0.439933
    34  S   -0.474351
    35  C   -0.268171
    36  H    0.139189
    37  C    0.586940
    38  O   -0.173194
    39  C    0.721158
    40  C   -0.233037
    41  C   -0.009427
    42  S   -0.244225
    43  H    0.171833
    44  H    0.158677
    45  H    0.160252
    46  C   -0.579025
    47  O   -0.170370
    48  C   -0.347881
    49  H    0.156815
    50  C   -0.250410
    51  H    0.183448
    52  H    0.156130
    53  H    0.170853
    54  H    0.156140
 Sum of Mulliken charges =  -2.00000
 Mulliken charges with hydrogens summed into heavy atoms:
               1
     1  C    0.375504
     2  C   -0.200656
     3  C    0.072011
     4  C    0.169684
     5  C    0.219985
     6  C   -0.387008
     7  C    0.211439
     8  C    0.094478
     9  C    0.449860
    10  C   -0.407272
    11  C    0.220686
    12  C    0.089285
    13  C   -0.398992
    14  C   -0.492456
    18  N   -0.121344
    19  N   -0.158574
    20  O   -0.527832
    21  O   -0.509088
    22  O   -0.515330
    23  O   -0.403201
    24  C    0.298379
    28  C    0.289023
    32  C    0.060005
    33  C   -0.300743
    34  S   -0.474351
    35  C   -0.268171
    37  C    0.586940
    38  O   -0.173194
    39  C    0.721158
    40  C    0.257724
    41  C   -0.009427
    42  S   -0.244225
    46  C   -0.422210
    47  O   -0.170370
    48  C   -0.164432
    50  C    0.232713
 Electronic spatial extent (au):  <R**2>=          22773.1346
 Charge=             -2.0000 electrons
 Dipole moment (field-independent basis, Debye):
    X=            -27.3571    Y=             -1.0449    Z=              1.7089  Tot=             27.4303
 Quadrupole moment (field-independent basis, Debye-Ang):
   XX=           -380.5013   YY=           -297.5145   ZZ=           -224.8358
   XY=              9.6654   XZ=              7.0724   YZ=             30.7970
 Traceless Quadrupole moment (field-independent basis, Debye-Ang):
   XX=            -79.5508   YY=              3.4360   ZZ=             76.1147
   XY=              9.6654   XZ=              7.0724   YZ=             30.7970
 Octapole moment (field-independent basis, Debye-Ang**2):
  XXX=          -1075.9738  YYY=            -39.1156  ZZZ=              6.6966  XYY=           -323.5085
  XXY=            -60.1161  XXZ=            -60.8612  XZZ=            -67.9072  YZZ=             -5.7693
  YYZ=             12.5114  XYZ=            -20.2811
 Hexadecapole moment (field-independent basis, Debye-Ang**3):
 XXXX=         -26835.2989 YYYY=          -8205.8963 ZZZZ=          -1558.4099 XXXY=           1016.0950
 XXXZ=            277.6515 YYYX=           -402.6730 YYYZ=            363.3091 ZZZX=             47.2124
 ZZZY=            159.3755 XXYY=          -6040.5256 XXZZ=          -4032.1467 YYZZ=          -1397.8908
 XXYZ=            538.1306 YYXZ=            145.7897 ZZXY=             -3.1990
 N-N= 4.073496320795D+03 E-N=-1.374879581627D+04  KE= 2.352159407847D+03
 Unable to Open any file for archive entry.
 1\1\GINC-CX3-6-7\FOpt\RB3LYP\6-311+G(d,p)\C26H18N2O6S2(2-)\NS5018\28-O
 ct-2021\0\\# opt=modredundant b3lyp/6-311+g(d,p) scrf=(pcm, solvent=wa
 ter)\\NDI_-55.pdb\\-2,1\C,-2.6892887756,-3.0063802345,-0.3957341469\C,
 -2.3381422672,-1.6321957204,-0.1885401101\C,-3.3488828739,-0.640147400
 7,-0.1252740546\C,-4.7159971015,-0.9817171706,-0.2667101238\C,-5.10111
 9755,-2.3484948331,-0.4828055553\C,-0.9676341982,-1.2509440581,-0.1137
 8493\C,-2.9664174931,0.73572166,0.1053448745\C,-1.5899659081,1.0793788
 961,0.2620267977\C,-0.5742960337,0.0524076309,0.0695457171\C,-1.263055
 7829,2.4116202617,0.6935330324\C,-3.6700907538,3.0806544944,0.47304397
 09\C,-3.9940176597,1.7109273449,0.2008033005\C,-5.3684912014,1.3338906
 029,0.0441620886\C,-5.7201365476,0.0372157403,-0.1828781781\H,-6.75752
 56776,-0.252267912,-0.2946419182\H,-6.1185305395,2.1113893223,0.120126
 6267\H,-0.2238924711,-2.0191762392,-0.284620181\N,-2.3152468708,3.3552
 137526,0.7073615657\N,-4.0579937846,-3.2938461205,-0.5345195172\O,-1.8
 66867359,-3.9523035844,-0.4627214371\O,-6.2891873916,-2.7280333237,-0.
 6203836212\O,-4.5160953382,4.0073408981,0.529969851\O,-0.135773408,2.8
 038961298,1.0702554904\C,-1.9423339716,4.7235050191,1.0727261141\H,-1.
 6355098232,4.7740333972,2.1201859679\H,-1.1047653575,5.0553693968,0.45
 93828886\H,-2.8074684664,5.359124818,0.9139429762\C,-4.404578349,-4.70
 05059437,-0.7500309329\H,-3.9050674775,-5.0788694345,-1.6432419158\H,-
 4.0826610018,-5.3048869025,0.100108464\H,-5.4814568758,-4.7656055781,-
 0.8662666572\C,0.8633827911,0.353123712,-0.0578223141\C,1.5005958853,1
 .1954199161,-0.9333469074\S,2.0277384198,-0.5239155735,0.9076204841\C,
 2.9167407661,1.1405102823,-0.8371665584\H,0.9637268393,1.8315468424,-1
 .621269009\C,3.4015157913,0.2530345787,0.1142870528\O,3.7975888624,1.8
 586383374,-1.5938133391\C,4.7733052154,-0.0409631412,0.4510840496\C,3.
 2649503873,2.7769212678,-2.5520131197\C,5.2584033951,-0.930545659,1.40
 10697015\S,6.1366407183,0.7448213407,-0.3467962554\H,4.1251305643,3.24
 60754967,-3.0259226313\H,2.671200156,2.2554844495,-3.3081205697\H,2.65
 33265913,3.5417066578,-2.0653012591\C,6.6805594353,-0.9824644798,1.487
 5699797\O,4.3823354383,-1.6586103453,2.1538679984\C,7.2857421462,-0.13
 28219203,0.6058864355\H,7.2272030497,-1.6173821,2.1698129014\C,4.92371
 69726,-2.5723879536,3.1107317974\H,8.341855981,0.0318755414,0.45732054
 08\H,5.5182571058,-2.0472952132,3.8639684905\H,4.0681607412,-3.0451070
 731,3.5892394789\H,5.5364132618,-3.3359798727,2.6227466057\\Version=ES
 64L-G16RevC.01\State=1-A\HF=-2359.6252728\RMSD=7.044e-09\RMSF=2.045e-0
 4\Dipole=10.7911885,0.1113733,0.0584323\Quadrupole=-58.6375675,0.38812
 82,58.2494392,-8.6100772,-1.2413533,-21.5771985\PG=C01 [X(C26H18N2O6S2
 )]\\@
 The archive entry for this job was punched.


 THE HURRIEDER I GO, THE BEHINDER I GET.
 Job cpu time:       2 days 12 hours 16 minutes 35.9 seconds.
 Elapsed time:       0 days  3 hours 48 minutes 52.7 seconds.
 File lengths (MBytes):  RWF=    797 Int=      0 D2E=      0 Chk=     61 Scr=      1
 Normal termination of Gaussian 16 at Thu Oct 28 11:21:52 2021.
