 Entering Gaussian System, Link 0=g16
 Input=NDI_-95.gjf
 Output=NDI_-95.log
 Initial command:
 /apps/gaussian/g16-c01-avx/g16/l1.exe "/tmp/pbs.2625174[17].pbs/Gau-2630573.inp" -scrdir="/tmp/pbs.2625174[17].pbs/"
 Entering Link 1 = /apps/gaussian/g16-c01-avx/g16/l1.exe PID=   2630574.
  
 Copyright (c) 1988-2019, Gaussian, Inc.  All Rights Reserved.
  
 This is part of the Gaussian(R) 16 program.  It is based on
 the Gaussian(R) 09 system (copyright 2009, Gaussian, Inc.),
 the Gaussian(R) 03 system (copyright 2003, Gaussian, Inc.),
 the Gaussian(R) 98 system (copyright 1998, Gaussian, Inc.),
 the Gaussian(R) 94 system (copyright 1995, Gaussian, Inc.),
 the Gaussian 92(TM) system (copyright 1992, Gaussian, Inc.),
 the Gaussian 90(TM) system (copyright 1990, Gaussian, Inc.),
 the Gaussian 88(TM) system (copyright 1988, Gaussian, Inc.),
 the Gaussian 86(TM) system (copyright 1986, Carnegie Mellon
 University), and the Gaussian 82(TM) system (copyright 1983,
 Carnegie Mellon University). Gaussian is a federally registered
 trademark of Gaussian, Inc.
  
 This software contains proprietary and confidential information,
 including trade secrets, belonging to Gaussian, Inc.
  
 This software is provided under written license and may be
 used, copied, transmitted, or stored only in accord with that
 written license.
  
 The following legend is applicable only to US Government
 contracts under FAR:
  
                    RESTRICTED RIGHTS LEGEND
  
 Use, reproduction and disclosure by the US Government is
 subject to restrictions as set forth in subparagraphs (a)
 and (c) of the Commercial Computer Software - Restricted
 Rights clause in FAR 52.227-19.
  
 Gaussian, Inc.
 340 Quinnipiac St., Bldg. 40, Wallingford CT 06492
  
  
 ---------------------------------------------------------------
 Warning -- This program may not be used in any manner that
 competes with the business of Gaussian, Inc. or will provide
 assistance to any competitor of Gaussian, Inc.  The licensee
 of this program is prohibited from giving any competitor of
 Gaussian, Inc. access to this program.  By using this program,
 the user acknowledges that Gaussian, Inc. is engaged in the
 business of creating and licensing software in the field of
 computational chemistry and represents and warrants to the
 licensee that it is not a competitor of Gaussian, Inc. and that
 it will not use this program in any manner prohibited above.
 ---------------------------------------------------------------
  

 Cite this work as:
 Gaussian 16, Revision C.01,
 M. J. Frisch, G. W. Trucks, H. B. Schlegel, G. E. Scuseria, 
 M. A. Robb, J. R. Cheeseman, G. Scalmani, V. Barone, 
 G. A. Petersson, H. Nakatsuji, X. Li, M. Caricato, A. V. Marenich, 
 J. Bloino, B. G. Janesko, R. Gomperts, B. Mennucci, H. P. Hratchian, 
 J. V. Ortiz, A. F. Izmaylov, J. L. Sonnenberg, D. Williams-Young, 
 F. Ding, F. Lipparini, F. Egidi, J. Goings, B. Peng, A. Petrone, 
 T. Henderson, D. Ranasinghe, V. G. Zakrzewski, J. Gao, N. Rega, 
 G. Zheng, W. Liang, M. Hada, M. Ehara, K. Toyota, R. Fukuda, 
 J. Hasegawa, M. Ishida, T. Nakajima, Y. Honda, O. Kitao, H. Nakai, 
 T. Vreven, K. Throssell, J. A. Montgomery, Jr., J. E. Peralta, 
 F. Ogliaro, M. J. Bearpark, J. J. Heyd, E. N. Brothers, K. N. Kudin, 
 V. N. Staroverov, T. A. Keith, R. Kobayashi, J. Normand, 
 K. Raghavachari, A. P. Rendell, J. C. Burant, S. S. Iyengar, 
 J. Tomasi, M. Cossi, J. M. Millam, M. Klene, C. Adamo, R. Cammi, 
 J. W. Ochterski, R. L. Martin, K. Morokuma, O. Farkas, 
 J. B. Foresman, and D. J. Fox, Gaussian, Inc., Wallingford CT, 2019.
 
 ******************************************
 Gaussian 16:  ES64L-G16RevC.01  3-Jul-2019
                29-Nov-2020 
 ******************************************
 %mem=10GB
 %nprocshared=8
 Will use up to    8 processors via shared memory.
 -------------------------------------
 # opt=modredundant b3lyp/6-311+g(d,p)
 -------------------------------------
 1/18=120,19=15,26=3,38=1/1,3;
 2/9=110,12=2,17=6,18=5,40=1/2;
 3/5=4,6=6,7=111,11=2,25=1,30=1,71=1,74=-5/1,2,3;
 4//1;
 5/5=2,38=5/2;
 6/7=2,8=2,9=2,10=2,28=1/1;
 7//1,2,3,16;
 1/18=20,19=15,26=3/3(2);
 2/9=110/2;
 99//99;
 2/9=110/2;
 3/5=4,6=6,7=111,11=2,25=1,30=1,71=1,74=-5/1,2,3;
 4/5=5,16=3,69=1/1;
 5/5=2,38=5/2;
 7//1,2,3,16;
 1/18=20,19=15,26=3/3(-5);
 2/9=110/2;
 6/7=2,8=2,9=2,10=2,19=2,28=1/1;
 99/9=1/99;
 -----------
 NDI_-95.pdb
 -----------
 Symbolic Z-matrix:
 Charge =  0 Multiplicity = 1
 C                    -2.563    -2.994    -0.409 
 C                    -2.257    -1.551    -0.224 
 C                    -3.301    -0.607    -0.083 
 C                    -4.65     -1.024    -0.115 
 C                    -4.992    -2.459    -0.304 
 C                    -0.949    -1.137    -0.215 
 C                    -2.962     0.764     0.102 
 C                    -1.595     1.188     0.123 
 C                    -0.561     0.232    -0.072 
 C                    -1.328     2.616     0.446 
 C                    -3.777     3.115     0.508 
 C                    -4.035     1.679     0.268 
 C                    -5.356     1.252     0.23 
 C                    -5.672    -0.098     0.036 
 H                    -6.699    -0.442     0.008 
 H                    -6.133     1.997     0.361 
 H                    -0.19     -1.895    -0.369 
 N                    -2.432     3.476     0.608 
 N                    -3.916    -3.353    -0.438 
 O                    -1.695    -3.847    -0.532 
 O                    -6.149    -2.85     -0.34 
 O                    -4.676     3.938     0.629 
 O                    -0.212     3.097     0.596 
 C                    -2.111     4.875     0.912 
 H                    -1.54      4.931     1.84 
 H                    -1.5       5.299     0.111 
 H                    -3.05      5.414     1.003 
 C                    -4.206    -4.779    -0.625 
 H                    -3.759    -5.126    -1.559 
 H                    -3.775    -5.355     0.196 
 H                    -5.286    -4.897    -0.649 
 C                     0.876     0.482    -0.178 
 C                     1.684     0.655    -1.285 
 S                     1.858     0.429     1.286 
 C                     3.055     0.749    -0.972 
 H                     1.295     0.72     -2.288 
 C                     3.344     0.657     0.393 
 O                     4.076     0.915    -1.854 
 C                     4.628     0.758     1.027 
 C                     3.736     1.148    -3.218 
 C                     4.917     0.643     2.385 
 S                     6.118     1.06      0.137 
 H                     4.678     1.334    -3.734 
 H                     3.246     0.272    -3.66 
 H                     3.08      2.021    -3.319 
 C                     6.297     0.794     2.703 
 O                     3.906     0.411     3.262 
 C                     7.056     1.022     1.586 
 H                     6.705     0.735     3.702 
 C                     4.236     0.263     4.639 
 H                     8.126     1.17      1.538 
 H                     4.692     1.177     5.039 
 H                     3.296     0.071     5.155 
 H                     4.917    -0.582     4.796 
 
 The following ModRedundant input section has been read:
 D       8       9      32      33 F                                           
 D      33      35      38      40 F                                           
 D      46      41      47      50 F                                           
 D      10      18      24      25 F                                           
 D       1      19      28      30 F                                           
 D       9       8      10      23 F                                           
 D      20       1       2       6 F                                           
 

 GradGradGradGradGradGradGradGradGradGradGradGradGradGradGradGradGradGrad
 Berny optimization.
 Initialization pass.
                           ----------------------------
                           !    Initial Parameters    !
                           ! (Angstroms and Degrees)  !
 --------------------------                            --------------------------
 ! Name  Definition              Value          Derivative Info.                !
 --------------------------------------------------------------------------------
 ! R1    R(1,2)                  1.4866         estimate D2E/DX2                !
 ! R2    R(1,19)                 1.4001         estimate D2E/DX2                !
 ! R3    R(1,20)                 1.2232         estimate D2E/DX2                !
 ! R4    R(2,3)                  1.4146         estimate D2E/DX2                !
 ! R5    R(2,6)                  1.372          estimate D2E/DX2                !
 ! R6    R(3,4)                  1.4123         estimate D2E/DX2                !
 ! R7    R(3,7)                  1.4244         estimate D2E/DX2                !
 ! R8    R(4,5)                  1.4872         estimate D2E/DX2                !
 ! R9    R(4,14)                 1.3874         estimate D2E/DX2                !
 ! R10   R(5,19)                 1.4053         estimate D2E/DX2                !
 ! R11   R(5,21)                 1.2218         estimate D2E/DX2                !
 ! R12   R(6,9)                  1.4301         estimate D2E/DX2                !
 ! R13   R(6,17)                 1.0837         estimate D2E/DX2                !
 ! R14   R(7,8)                  1.4314         estimate D2E/DX2                !
 ! R15   R(7,12)                 1.4199         estimate D2E/DX2                !
 ! R16   R(8,9)                  1.4217         estimate D2E/DX2                !
 ! R17   R(8,10)                 1.4882         estimate D2E/DX2                !
 ! R18   R(9,32)                 1.4624         estimate D2E/DX2                !
 ! R19   R(10,18)                1.4088         estimate D2E/DX2                !
 ! R20   R(10,23)                1.2245         estimate D2E/DX2                !
 ! R21   R(11,12)                1.4786         estimate D2E/DX2                !
 ! R22   R(11,18)                1.3962         estimate D2E/DX2                !
 ! R23   R(11,22)                1.2248         estimate D2E/DX2                !
 ! R24   R(12,13)                1.3888         estimate D2E/DX2                !
 ! R25   R(13,14)                1.4            estimate D2E/DX2                !
 ! R26   R(13,16)                1.0844         estimate D2E/DX2                !
 ! R27   R(14,15)                1.0834         estimate D2E/DX2                !
 ! R28   R(18,24)                1.4672         estimate D2E/DX2                !
 ! R29   R(19,28)                1.4672         estimate D2E/DX2                !
 ! R30   R(24,25)                1.091          estimate D2E/DX2                !
 ! R31   R(24,26)                1.093          estimate D2E/DX2                !
 ! R32   R(24,27)                1.0865         estimate D2E/DX2                !
 ! R33   R(28,29)                1.0921         estimate D2E/DX2                !
 ! R34   R(28,30)                1.0916         estimate D2E/DX2                !
 ! R35   R(28,31)                1.0867         estimate D2E/DX2                !
 ! R36   R(32,33)                1.3814         estimate D2E/DX2                !
 ! R37   R(32,34)                1.7636         estimate D2E/DX2                !
 ! R38   R(33,35)                1.4094         estimate D2E/DX2                !
 ! R39   R(33,36)                1.0778         estimate D2E/DX2                !
 ! R40   R(34,37)                1.7486         estimate D2E/DX2                !
 ! R41   R(35,37)                1.3983         estimate D2E/DX2                !
 ! R42   R(35,38)                1.3594         estimate D2E/DX2                !
 ! R43   R(37,39)                1.4356         estimate D2E/DX2                !
 ! R44   R(38,40)                1.4249         estimate D2E/DX2                !
 ! R45   R(39,41)                1.3932         estimate D2E/DX2                !
 ! R46   R(39,42)                1.7616         estimate D2E/DX2                !
 ! R47   R(40,43)                1.0901         estimate D2E/DX2                !
 ! R48   R(40,44)                1.0967         estimate D2E/DX2                !
 ! R49   R(40,45)                1.0967         estimate D2E/DX2                !
 ! R50   R(41,46)                1.4242         estimate D2E/DX2                !
 ! R51   R(41,47)                1.3583         estimate D2E/DX2                !
 ! R52   R(42,48)                1.7265         estimate D2E/DX2                !
 ! R53   R(46,48)                1.3696         estimate D2E/DX2                !
 ! R54   R(46,49)                1.0807         estimate D2E/DX2                !
 ! R55   R(47,50)                1.4237         estimate D2E/DX2                !
 ! R56   R(48,51)                1.0813         estimate D2E/DX2                !
 ! R57   R(50,52)                1.097          estimate D2E/DX2                !
 ! R58   R(50,53)                1.0894         estimate D2E/DX2                !
 ! R59   R(50,54)                1.0966         estimate D2E/DX2                !
 ! A1    A(2,1,19)             116.767          estimate D2E/DX2                !
 ! A2    A(2,1,20)             122.9113         estimate D2E/DX2                !
 ! A3    A(19,1,20)            120.3217         estimate D2E/DX2                !
 ! A4    A(1,2,3)              120.5473         estimate D2E/DX2                !
 ! A5    A(1,2,6)              119.3369         estimate D2E/DX2                !
 ! A6    A(3,2,6)              120.1056         estimate D2E/DX2                !
 ! A7    A(2,3,4)              120.3743         estimate D2E/DX2                !
 ! A8    A(2,3,7)              118.662          estimate D2E/DX2                !
 ! A9    A(4,3,7)              120.9617         estimate D2E/DX2                !
 ! A10   A(3,4,5)              120.4909         estimate D2E/DX2                !
 ! A11   A(3,4,14)             120.2702         estimate D2E/DX2                !
 ! A12   A(5,4,14)             119.2382         estimate D2E/DX2                !
 ! A13   A(4,5,19)             116.7341         estimate D2E/DX2                !
 ! A14   A(4,5,21)             122.024          estimate D2E/DX2                !
 ! A15   A(19,5,21)            121.2418         estimate D2E/DX2                !
 ! A16   A(2,6,9)              123.2421         estimate D2E/DX2                !
 ! A17   A(2,6,17)             117.1119         estimate D2E/DX2                !
 ! A18   A(9,6,17)             119.589          estimate D2E/DX2                !
 ! A19   A(3,7,8)              120.9519         estimate D2E/DX2                !
 ! A20   A(3,7,12)             117.1037         estimate D2E/DX2                !
 ! A21   A(8,7,12)             121.944          estimate D2E/DX2                !
 ! A22   A(7,8,9)              119.5639         estimate D2E/DX2                !
 ! A23   A(7,8,10)             117.3064         estimate D2E/DX2                !
 ! A24   A(9,8,10)             122.9922         estimate D2E/DX2                !
 ! A25   A(6,9,8)              117.3944         estimate D2E/DX2                !
 ! A26   A(6,9,32)             115.0236         estimate D2E/DX2                !
 ! A27   A(8,9,32)             127.5648         estimate D2E/DX2                !
 ! A28   A(8,10,18)            118.042          estimate D2E/DX2                !
 ! A29   A(8,10,23)            124.5436         estimate D2E/DX2                !
 ! A30   A(18,10,23)           117.4097         estimate D2E/DX2                !
 ! A31   A(12,11,18)           115.5202         estimate D2E/DX2                !
 ! A32   A(12,11,22)           122.7205         estimate D2E/DX2                !
 ! A33   A(18,11,22)           121.7534         estimate D2E/DX2                !
 ! A34   A(7,12,11)            120.8614         estimate D2E/DX2                !
 ! A35   A(7,12,13)            121.162          estimate D2E/DX2                !
 ! A36   A(11,12,13)           117.9699         estimate D2E/DX2                !
 ! A37   A(12,13,14)           120.9948         estimate D2E/DX2                !
 ! A38   A(12,13,16)           117.8401         estimate D2E/DX2                !
 ! A39   A(14,13,16)           121.1642         estimate D2E/DX2                !
 ! A40   A(4,14,13)            119.5003         estimate D2E/DX2                !
 ! A41   A(4,14,15)            118.9169         estimate D2E/DX2                !
 ! A42   A(13,14,15)           121.5811         estimate D2E/DX2                !
 ! A43   A(10,18,11)           126.0753         estimate D2E/DX2                !
 ! A44   A(10,18,24)           115.7508         estimate D2E/DX2                !
 ! A45   A(11,18,24)           118.1737         estimate D2E/DX2                !
 ! A46   A(1,19,5)             125.0856         estimate D2E/DX2                !
 ! A47   A(1,19,28)            116.2868         estimate D2E/DX2                !
 ! A48   A(5,19,28)            118.6276         estimate D2E/DX2                !
 ! A49   A(18,24,25)           109.8574         estimate D2E/DX2                !
 ! A50   A(18,24,26)           109.8979         estimate D2E/DX2                !
 ! A51   A(18,24,27)           107.5355         estimate D2E/DX2                !
 ! A52   A(25,24,26)           108.1108         estimate D2E/DX2                !
 ! A53   A(25,24,27)           110.8301         estimate D2E/DX2                !
 ! A54   A(26,24,27)           110.6124         estimate D2E/DX2                !
 ! A55   A(19,28,29)           109.6906         estimate D2E/DX2                !
 ! A56   A(19,28,30)           109.8136         estimate D2E/DX2                !
 ! A57   A(19,28,31)           107.7461         estimate D2E/DX2                !
 ! A58   A(29,28,30)           108.2991         estimate D2E/DX2                !
 ! A59   A(29,28,31)           110.6959         estimate D2E/DX2                !
 ! A60   A(30,28,31)           110.5924         estimate D2E/DX2                !
 ! A61   A(9,32,33)            130.862          estimate D2E/DX2                !
 ! A62   A(9,32,34)            118.804          estimate D2E/DX2                !
 ! A63   A(33,32,34)           110.0777         estimate D2E/DX2                !
 ! A64   A(32,33,35)           113.5383         estimate D2E/DX2                !
 ! A65   A(32,33,36)           122.8347         estimate D2E/DX2                !
 ! A66   A(35,33,36)           123.6247         estimate D2E/DX2                !
 ! A67   A(32,34,37)            92.5985         estimate D2E/DX2                !
 ! A68   A(33,35,37)           114.4218         estimate D2E/DX2                !
 ! A69   A(33,35,38)           126.4884         estimate D2E/DX2                !
 ! A70   A(37,35,38)           119.0897         estimate D2E/DX2                !
 ! A71   A(34,37,35)           109.3581         estimate D2E/DX2                !
 ! A72   A(34,37,39)           122.9381         estimate D2E/DX2                !
 ! A73   A(35,37,39)           127.6879         estimate D2E/DX2                !
 ! A74   A(35,38,40)           117.5059         estimate D2E/DX2                !
 ! A75   A(37,39,41)           127.606          estimate D2E/DX2                !
 ! A76   A(37,39,42)           123.0552         estimate D2E/DX2                !
 ! A77   A(41,39,42)           109.3388         estimate D2E/DX2                !
 ! A78   A(38,40,43)           105.9521         estimate D2E/DX2                !
 ! A79   A(38,40,44)           111.2097         estimate D2E/DX2                !
 ! A80   A(38,40,45)           111.1654         estimate D2E/DX2                !
 ! A81   A(43,40,44)           109.3666         estimate D2E/DX2                !
 ! A82   A(43,40,45)           109.7248         estimate D2E/DX2                !
 ! A83   A(44,40,45)           109.3575         estimate D2E/DX2                !
 ! A84   A(39,41,46)           114.1986         estimate D2E/DX2                !
 ! A85   A(39,41,47)           119.278          estimate D2E/DX2                !
 ! A86   A(46,41,47)           126.523          estimate D2E/DX2                !
 ! A87   A(39,42,48)            91.8188         estimate D2E/DX2                !
 ! A88   A(41,46,48)           111.8719         estimate D2E/DX2                !
 ! A89   A(41,46,49)           124.5014         estimate D2E/DX2                !
 ! A90   A(48,46,49)           123.6266         estimate D2E/DX2                !
 ! A91   A(41,47,50)           118.0147         estimate D2E/DX2                !
 ! A92   A(42,48,46)           112.7719         estimate D2E/DX2                !
 ! A93   A(42,48,51)           119.8257         estimate D2E/DX2                !
 ! A94   A(46,48,51)           127.4024         estimate D2E/DX2                !
 ! A95   A(47,50,52)           111.2488         estimate D2E/DX2                !
 ! A96   A(47,50,53)           106.0481         estimate D2E/DX2                !
 ! A97   A(47,50,54)           111.256          estimate D2E/DX2                !
 ! A98   A(52,50,53)           109.4405         estimate D2E/DX2                !
 ! A99   A(52,50,54)           109.3719         estimate D2E/DX2                !
 ! A100  A(53,50,54)           109.4053         estimate D2E/DX2                !
 ! D1    D(19,1,2,3)             0.1578         estimate D2E/DX2                !
 ! D2    D(19,1,2,6)          -178.6792         estimate D2E/DX2                !
 ! D3    D(20,1,2,3)          -179.8231         estimate D2E/DX2                !
 ! D4    D(20,1,2,6)             1.3399         Frozen                          !
 ! D5    D(2,1,19,5)            -0.124          estimate D2E/DX2                !
 ! D6    D(2,1,19,28)          179.8267         estimate D2E/DX2                !
 ! D7    D(20,1,19,5)          179.8575         estimate D2E/DX2                !
 ! D8    D(20,1,19,28)          -0.1919         estimate D2E/DX2                !
 ! D9    D(1,2,3,4)              0.0571         estimate D2E/DX2                !
 ! D10   D(1,2,3,7)            179.5453         estimate D2E/DX2                !
 ! D11   D(6,2,3,4)            178.8851         estimate D2E/DX2                !
 ! D12   D(6,2,3,7)             -1.6266         estimate D2E/DX2                !
 ! D13   D(1,2,6,9)            178.625          estimate D2E/DX2                !
 ! D14   D(1,2,6,17)             1.3881         estimate D2E/DX2                !
 ! D15   D(3,2,6,9)             -0.2173         estimate D2E/DX2                !
 ! D16   D(3,2,6,17)          -177.4541         estimate D2E/DX2                !
 ! D17   D(2,3,4,5)             -0.3074         estimate D2E/DX2                !
 ! D18   D(2,3,4,14)           179.3968         estimate D2E/DX2                !
 ! D19   D(7,3,4,5)           -179.7837         estimate D2E/DX2                !
 ! D20   D(7,3,4,14)            -0.0795         estimate D2E/DX2                !
 ! D21   D(2,3,7,8)              1.0523         estimate D2E/DX2                !
 ! D22   D(2,3,7,12)          -178.712          estimate D2E/DX2                !
 ! D23   D(4,3,7,8)           -179.4626         estimate D2E/DX2                !
 ! D24   D(4,3,7,12)             0.7731         estimate D2E/DX2                !
 ! D25   D(3,4,5,19)             0.3343         estimate D2E/DX2                !
 ! D26   D(3,4,5,21)          -179.7799         estimate D2E/DX2                !
 ! D27   D(14,4,5,19)         -179.3729         estimate D2E/DX2                !
 ! D28   D(14,4,5,21)            0.5129         estimate D2E/DX2                !
 ! D29   D(3,4,14,13)           -0.4559         estimate D2E/DX2                !
 ! D30   D(3,4,14,15)         -179.9937         estimate D2E/DX2                !
 ! D31   D(5,4,14,13)          179.252          estimate D2E/DX2                !
 ! D32   D(5,4,14,15)           -0.2858         estimate D2E/DX2                !
 ! D33   D(4,5,19,1)            -0.1141         estimate D2E/DX2                !
 ! D34   D(4,5,19,28)          179.9364         estimate D2E/DX2                !
 ! D35   D(21,5,19,1)          179.9992         estimate D2E/DX2                !
 ! D36   D(21,5,19,28)           0.0496         estimate D2E/DX2                !
 ! D37   D(2,6,9,8)              2.5984         estimate D2E/DX2                !
 ! D38   D(2,6,9,32)          -176.0103         estimate D2E/DX2                !
 ! D39   D(17,6,9,8)           179.77           estimate D2E/DX2                !
 ! D40   D(17,6,9,32)            1.1613         estimate D2E/DX2                !
 ! D41   D(3,7,8,9)              1.3551         estimate D2E/DX2                !
 ! D42   D(3,7,8,10)          -174.5099         estimate D2E/DX2                !
 ! D43   D(12,7,8,9)          -178.8921         estimate D2E/DX2                !
 ! D44   D(12,7,8,10)            5.2428         estimate D2E/DX2                !
 ! D45   D(3,7,12,11)          178.0768         estimate D2E/DX2                !
 ! D46   D(3,7,12,13)           -0.9621         estimate D2E/DX2                !
 ! D47   D(8,7,12,11)           -1.685          estimate D2E/DX2                !
 ! D48   D(8,7,12,13)          179.2761         estimate D2E/DX2                !
 ! D49   D(7,8,9,6)             -3.0809         estimate D2E/DX2                !
 ! D50   D(7,8,9,32)           175.3285         estimate D2E/DX2                !
 ! D51   D(10,8,9,6)           172.5381         estimate D2E/DX2                !
 ! D52   D(10,8,9,32)           -9.0525         estimate D2E/DX2                !
 ! D53   D(7,8,10,18)           -4.7549         estimate D2E/DX2                !
 ! D54   D(7,8,10,23)          174.4235         estimate D2E/DX2                !
 ! D55   D(9,8,10,18)          179.5335         estimate D2E/DX2                !
 ! D56   D(9,8,10,23)           -1.2882         Frozen                          !
 ! D57   D(6,9,32,33)           83.4402         estimate D2E/DX2                !
 ! D58   D(6,9,32,34)          -90.1083         estimate D2E/DX2                !
 ! D59   D(8,9,32,33)          -95.0013         Frozen                          !
 ! D60   D(8,9,32,34)           91.4502         estimate D2E/DX2                !
 ! D61   D(8,10,18,11)           0.7189         estimate D2E/DX2                !
 ! D62   D(8,10,18,24)        -179.4089         estimate D2E/DX2                !
 ! D63   D(23,10,18,11)       -178.5188         estimate D2E/DX2                !
 ! D64   D(23,10,18,24)          1.3535         estimate D2E/DX2                !
 ! D65   D(18,11,12,7)          -2.3856         estimate D2E/DX2                !
 ! D66   D(18,11,12,13)        176.6833         estimate D2E/DX2                !
 ! D67   D(22,11,12,7)         178.4862         estimate D2E/DX2                !
 ! D68   D(22,11,12,13)         -2.445          estimate D2E/DX2                !
 ! D69   D(12,11,18,10)          2.8444         estimate D2E/DX2                !
 ! D70   D(12,11,18,24)       -177.0251         estimate D2E/DX2                !
 ! D71   D(22,11,18,10)       -178.0181         estimate D2E/DX2                !
 ! D72   D(22,11,18,24)          2.1124         estimate D2E/DX2                !
 ! D73   D(7,12,13,14)           0.461          estimate D2E/DX2                !
 ! D74   D(7,12,13,16)        -179.8781         estimate D2E/DX2                !
 ! D75   D(11,12,13,14)       -178.6049         estimate D2E/DX2                !
 ! D76   D(11,12,13,16)          1.056          estimate D2E/DX2                !
 ! D77   D(12,13,14,4)           0.2708         estimate D2E/DX2                !
 ! D78   D(12,13,14,15)        179.7958         estimate D2E/DX2                !
 ! D79   D(16,13,14,4)        -179.3788         estimate D2E/DX2                !
 ! D80   D(16,13,14,15)          0.1463         estimate D2E/DX2                !
 ! D81   D(10,18,24,25)        -59.609          Frozen                          !
 ! D82   D(10,18,24,26)         59.2209         estimate D2E/DX2                !
 ! D83   D(10,18,24,27)        179.6858         estimate D2E/DX2                !
 ! D84   D(11,18,24,25)        120.2739         estimate D2E/DX2                !
 ! D85   D(11,18,24,26)       -120.8962         estimate D2E/DX2                !
 ! D86   D(11,18,24,27)         -0.4313         estimate D2E/DX2                !
 ! D87   D(1,19,28,29)         -58.1407         estimate D2E/DX2                !
 ! D88   D(1,19,28,30)          60.7668         Frozen                          !
 ! D89   D(1,19,28,31)        -178.7139         estimate D2E/DX2                !
 ! D90   D(5,19,28,29)         121.8132         estimate D2E/DX2                !
 ! D91   D(5,19,28,30)        -119.2792         estimate D2E/DX2                !
 ! D92   D(5,19,28,31)           1.2401         estimate D2E/DX2                !
 ! D93   D(9,32,33,35)        -174.2376         estimate D2E/DX2                !
 ! D94   D(9,32,33,36)           6.2912         estimate D2E/DX2                !
 ! D95   D(34,32,33,35)         -0.255          estimate D2E/DX2                !
 ! D96   D(34,32,33,36)       -179.7262         estimate D2E/DX2                !
 ! D97   D(9,32,34,37)         175.3598         estimate D2E/DX2                !
 ! D98   D(33,32,34,37)          0.5509         estimate D2E/DX2                !
 ! D99   D(32,33,35,37)         -0.289          estimate D2E/DX2                !
 ! D100  D(32,33,35,38)        179.7117         estimate D2E/DX2                !
 ! D101  D(36,33,35,37)        179.1774         estimate D2E/DX2                !
 ! D102  D(36,33,35,38)         -0.8218         estimate D2E/DX2                !
 ! D103  D(32,34,37,35)         -0.698          estimate D2E/DX2                !
 ! D104  D(32,34,37,39)        177.9564         estimate D2E/DX2                !
 ! D105  D(33,35,37,34)          0.691          estimate D2E/DX2                !
 ! D106  D(33,35,37,39)       -177.8819         estimate D2E/DX2                !
 ! D107  D(38,35,37,34)       -179.3096         estimate D2E/DX2                !
 ! D108  D(38,35,37,39)          2.1175         estimate D2E/DX2                !
 ! D109  D(33,35,38,40)          6.5641         Frozen                          !
 ! D110  D(37,35,38,40)       -173.4352         estimate D2E/DX2                !
 ! D111  D(34,37,39,41)          2.8178         estimate D2E/DX2                !
 ! D112  D(34,37,39,42)       -177.1612         estimate D2E/DX2                !
 ! D113  D(35,37,39,41)       -178.7866         estimate D2E/DX2                !
 ! D114  D(35,37,39,42)          1.2345         estimate D2E/DX2                !
 ! D115  D(35,38,40,43)        175.4377         estimate D2E/DX2                !
 ! D116  D(35,38,40,44)        -65.8194         estimate D2E/DX2                !
 ! D117  D(35,38,40,45)         56.2886         estimate D2E/DX2                !
 ! D118  D(37,39,41,46)       -179.9451         estimate D2E/DX2                !
 ! D119  D(37,39,41,47)         -0.1664         estimate D2E/DX2                !
 ! D120  D(42,39,41,46)          0.0362         estimate D2E/DX2                !
 ! D121  D(42,39,41,47)        179.8149         estimate D2E/DX2                !
 ! D122  D(37,39,42,48)        179.9909         estimate D2E/DX2                !
 ! D123  D(41,39,42,48)          0.0086         estimate D2E/DX2                !
 ! D124  D(39,41,46,48)         -0.0767         estimate D2E/DX2                !
 ! D125  D(39,41,46,49)       -179.9433         estimate D2E/DX2                !
 ! D126  D(47,41,46,48)       -179.8366         estimate D2E/DX2                !
 ! D127  D(47,41,46,49)          0.2968         estimate D2E/DX2                !
 ! D128  D(39,41,47,50)        178.3712         estimate D2E/DX2                !
 ! D129  D(46,41,47,50)         -1.8799         Frozen                          !
 ! D130  D(39,42,48,46)         -0.0528         estimate D2E/DX2                !
 ! D131  D(39,42,48,51)        179.8941         estimate D2E/DX2                !
 ! D132  D(41,46,48,42)          0.0819         estimate D2E/DX2                !
 ! D133  D(41,46,48,51)       -179.8601         estimate D2E/DX2                !
 ! D134  D(49,46,48,42)        179.9499         estimate D2E/DX2                !
 ! D135  D(49,46,48,51)          0.0079         estimate D2E/DX2                !
 ! D136  D(41,47,50,52)         61.9826         estimate D2E/DX2                !
 ! D137  D(41,47,50,53)       -179.1069         estimate D2E/DX2                !
 ! D138  D(41,47,50,54)        -60.2349         estimate D2E/DX2                !
 --------------------------------------------------------------------------------
 Trust Radius=3.00D-01 FncErr=1.00D-07 GrdErr=1.00D-06 EigMax=2.50D+02 EigMin=1.00D-04
 Number of steps in this run=    307 maximum allowed number of steps=    324.
 GradGradGradGradGradGradGradGradGradGradGradGradGradGradGradGradGradGrad

 Stoichiometry    C26H18N2O6S2
 Framework group  C1[X(C26H18N2O6S2)]
 Deg. of freedom   156
 Full point group                 C1      NOp   1
 Largest Abelian subgroup         C1      NOp   1
 Largest concise Abelian subgroup C1      NOp   1
                         Standard orientation:                         
 ---------------------------------------------------------------------
 Center     Atomic      Atomic             Coordinates (Angstroms)
 Number     Number       Type             X           Y           Z
 ---------------------------------------------------------------------
      1          6           0        3.137846   -2.881106   -0.028475
      2          6           0        2.567793   -1.510193    0.047335
      3          6           0        3.408700   -0.376071   -0.039816
      4          6           0        4.803107   -0.531663   -0.201473
      5          6           0        5.407461   -1.888567   -0.275471
      6          6           0        1.216774   -1.352983    0.227262
      7          6           0        2.818784    0.918622    0.027682
      8          6           0        1.406911    1.076100    0.202955
      9          6           0        0.584401   -0.075300    0.340335
     10          6           0        0.860811    2.458936    0.137082
     11          6           0        3.161396    3.414275   -0.075244
     12          6           0        3.689999    2.033486   -0.091369
     13          6           0        5.059485    1.862062   -0.246079
     14          6           0        5.624394    0.582201   -0.299236
     15          1           0        6.690973    0.437445   -0.422939
     16          1           0        5.674864    2.751000   -0.329827
     17          1           0        0.624022   -2.254359    0.329860
     18          7           0        1.772285    3.525616    0.010322
     19          7           0        4.525813   -2.979138   -0.184259
     20          8           0        2.451135   -3.891084    0.038849
     21          8           0        6.610187   -2.055626   -0.411001
     22          8           0        3.883820    4.400653   -0.148278
     23          8           0       -0.331172    2.737047    0.170980
     24          6           0        1.180697    4.867443   -0.036393
     25          1           0        0.500209    4.943083   -0.885848
     26          1           0        0.607649    5.053309    0.875620
     27          1           0        1.994766    5.581086   -0.128743
     28          6           0        5.077542   -4.336817   -0.253901
     29          1           0        4.813714   -4.888081    0.651127
     30          1           0        4.655722   -4.864083   -1.111594
     31          1           0        6.156533   -4.251307   -0.350684
     32          6           0       -0.850523   -0.117812    0.619426
     33          6           0       -1.535781   -0.255581    1.810930
     34         16           0       -1.979091   -0.151205   -0.735435
     35          6           0       -2.930194   -0.379155    1.647255
     36          1           0       -1.044937   -0.258298    2.770419
     37          6           0       -3.362582   -0.333588    0.318280
     38          8           0       -3.849782   -0.532644    2.636558
     39          6           0       -4.712123   -0.389399   -0.167968
     40          6           0       -3.391938   -0.431376    3.982109
     41          6           0       -5.139701   -0.367165   -1.493710
     42         16           0       -6.112631   -0.500176    0.894911
     43          1           0       -4.282177   -0.499724    4.607425
     44          1           0       -2.708442   -1.252037    4.231488
     45          1           0       -2.888717    0.526994    4.158070
     46          6           0       -6.553333   -0.436325   -1.652412
     47          8           0       -4.217917   -0.280422   -2.487623
     48          6           0       -7.198948   -0.512775   -0.446970
     49          1           0       -7.063299   -0.431911   -2.605230
     50          6           0       -4.682200   -0.295362   -3.833414
     51          1           0       -8.264587   -0.577228   -0.275606
     52          1           0       -5.333903    0.562821   -4.038687
     53          1           0       -3.792883   -0.233224   -4.459492
     54          1           0       -5.221479   -1.223448   -4.057621
 ---------------------------------------------------------------------
 Rotational constants (GHZ):           0.1593586           0.0542925           0.0473119
 Standard basis: 6-311+G(d,p) (5D, 7F)
 There are   952 symmetry adapted cartesian basis functions of A   symmetry.
 There are   916 symmetry adapted basis functions of A   symmetry.
   916 basis functions,  1468 primitive gaussians,   952 cartesian basis functions
   134 alpha electrons      134 beta electrons
       nuclear repulsion energy      4078.1941381663 Hartrees.
 NAtoms=   54 NActive=   54 NUniq=   54 SFac= 1.00D+00 NAtFMM=   60 NAOKFM=F Big=F
 Integral buffers will be    131072 words long.
 Raffenetti 2 integral format.
 Two-electron integral symmetry is turned on.
 One-electron integrals computed using PRISM.
 NBasis=   916 RedAO= T EigKep=  1.00D-06  NBF=   916
 NBsUse=   902 1.00D-06 EigRej=  6.73D-07 NBFU=   902
 ExpMin= 4.05D-02 ExpMax= 9.34D+04 ExpMxC= 3.17D+03 IAcc=3 IRadAn=         5 AccDes= 0.00D+00
 Harris functional with IExCor=  402 and IRadAn=       5 diagonalized for initial guess.
 HarFok:  IExCor=  402 AccDes= 0.00D+00 IRadAn=         5 IDoV= 1 UseB2=F ITyADJ=14
 ICtDFT=  3500011 ScaDFX=  1.000000  1.000000  1.000000  1.000000
 FoFCou: FMM=F IPFlag=           0 FMFlag=      100000 FMFlg1=           0
         NFxFlg=           0 DoJE=T BraDBF=F KetDBF=T FulRan=T
         wScrn=  0.000000 ICntrl=       500 IOpCl=  0 I1Cent=   200000004 NGrid=           0
         NMat0=    1 NMatS0=      1 NMatT0=    0 NMatD0=    1 NMtDS0=    0 NMtDT0=    0
 Petite list used in FoFCou.
 Requested convergence on RMS density matrix=1.00D-08 within 128 cycles.
 Requested convergence on MAX density matrix=1.00D-06.
 Requested convergence on             energy=1.00D-06.
 No special actions if energy rises.
 EnCoef did     1 forward-backward iterations
 EnCoef did     1 forward-backward iterations
 SCF Done:  E(RB3LYP) =  -2359.32947495     A.U. after   20 cycles
            NFock= 20  Conv=0.97D-08     -V/T= 2.0032

 **********************************************************************

            Population analysis using the SCF Density.

 **********************************************************************

 Orbital symmetries:
       Occupied  (A) (A) (A) (A) (A) (A) (A) (A) (A) (A) (A) (A)
                 (A) (A) (A) (A) (A) (A) (A) (A) (A) (A) (A) (A)
                 (A) (A) (A) (A) (A) (A) (A) (A) (A) (A) (A) (A)
                 (A) (A) (A) (A) (A) (A) (A) (A) (A) (A) (A) (A)
                 (A) (A) (A) (A) (A) (A) (A) (A) (A) (A) (A) (A)
                 (A) (A) (A) (A) (A) (A) (A) (A) (A) (A) (A) (A)
                 (A) (A) (A) (A) (A) (A) (A) (A) (A) (A) (A) (A)
                 (A) (A) (A) (A) (A) (A) (A) (A) (A) (A) (A) (A)
                 (A) (A) (A) (A) (A) (A) (A) (A) (A) (A) (A) (A)
                 (A) (A) (A) (A) (A) (A) (A) (A) (A) (A) (A) (A)
                 (A) (A) (A) (A) (A) (A) (A) (A) (A) (A) (A) (A)
                 (A) (A)
       Virtual   (A) (A) (A) (A) (A) (A) (A) (A) (A) (A) (A) (A)
                 (A) (A) (A) (A) (A) (A) (A) (A) (A) (A) (A) (A)
                 (A) (A) (A) (A) (A) (A) (A) (A) (A) (A) (A) (A)
                 (A) (A) (A) (A) (A) (A) (A) (A) (A) (A) (A) (A)
                 (A) (A) (A) (A) (A) (A) (A) (A) (A) (A) (A) (A)
                 (A) (A) (A) (A) (A) (A) (A) (A) (A) (A) (A) (A)
                 (A) (A) (A) (A) (A) (A) (A) (A) (A) (A) (A) (A)
                 (A) (A) (A) (A) (A) (A) (A) (A) (A) (A) (A) (A)
                 (A) (A) (A) (A) (A) (A) (A) (A) (A) (A) (A) (A)
                 (A) (A) (A) (A) (A) (A) (A) (A) (A) (A) (A) (A)
                 (A) (A) (A) (A) (A) (A) (A) (A) (A) (A) (A) (A)
                 (A) (A) (A) (A) (A) (A) (A) (A) (A) (A) (A) (A)
                 (A) (A) (A) (A) (A) (A) (A) (A) (A) (A) (A) (A)
                 (A) (A) (A) (A) (A) (A) (A) (A) (A) (A) (A) (A)
                 (A) (A) (A) (A) (A) (A) (A) (A) (A) (A) (A) (A)
                 (A) (A) (A) (A) (A) (A) (A) (A) (A) (A) (A) (A)
                 (A) (A) (A) (A) (A) (A) (A) (A) (A) (A) (A) (A)
                 (A) (A) (A) (A) (A) (A) (A) (A) (A) (A) (A) (A)
                 (A) (A) (A) (A) (A) (A) (A) (A) (A) (A) (A) (A)
                 (A) (A) (A) (A) (A) (A) (A) (A) (A) (A) (A) (A)
                 (A) (A) (A) (A) (A) (A) (A) (A) (A) (A) (A) (A)
                 (A) (A) (A) (A) (A) (A) (A) (A) (A) (A) (A) (A)
                 (A) (A) (A) (A) (A) (A) (A) (A) (A) (A) (A) (A)
                 (A) (A) (A) (A) (A) (A) (A) (A) (A) (A) (A) (A)
                 (A) (A) (A) (A) (A) (A) (A) (A) (A) (A) (A) (A)
                 (A) (A) (A) (A) (A) (A) (A) (A) (A) (A) (A) (A)
                 (A) (A) (A) (A) (A) (A) (A) (A) (A) (A) (A) (A)
                 (A) (A) (A) (A) (A) (A) (A) (A) (A) (A) (A) (A)
                 (A) (A) (A) (A) (A) (A) (A) (A) (A) (A) (A) (A)
                 (A) (A) (A) (A) (A) (A) (A) (A) (A) (A) (A) (A)
                 (A) (A) (A) (A) (A) (A) (A) (A) (A) (A) (A) (A)
                 (A) (A) (A) (A) (A) (A) (A) (A) (A) (A) (A) (A)
                 (A) (A) (A) (A) (A) (A) (A) (A) (A) (A) (A) (A)
                 (A) (A) (A) (A) (A) (A) (A) (A) (A) (A) (A) (A)
                 (A) (A) (A) (A) (A) (A) (A) (A) (A) (A) (A) (A)
                 (A) (A) (A) (A) (A) (A) (A) (A) (A) (A) (A) (A)
                 (A) (A) (A) (A) (A) (A) (A) (A) (A) (A) (A) (A)
                 (A) (A) (A) (A) (A) (A) (A) (A) (A) (A) (A) (A)
                 (A) (A) (A) (A) (A) (A) (A) (A) (A) (A) (A) (A)
                 (A) (A) (A) (A) (A) (A) (A) (A) (A) (A) (A) (A)
                 (A) (A) (A) (A) (A) (A) (A) (A) (A) (A) (A) (A)
                 (A) (A) (A) (A) (A) (A) (A) (A) (A) (A) (A) (A)
                 (A) (A) (A) (A) (A) (A) (A) (A) (A) (A) (A) (A)
                 (A) (A) (A) (A) (A) (A) (A) (A) (A) (A) (A) (A)
                 (A) (A) (A) (A) (A) (A) (A) (A) (A) (A) (A) (A)
                 (A) (A) (A) (A) (A) (A) (A) (A) (A) (A) (A) (A)
                 (A) (A) (A) (A) (A) (A) (A) (A) (A) (A) (A) (A)
                 (A) (A) (A) (A) (A) (A) (A) (A) (A) (A) (A) (A)
                 (A) (A) (A) (A) (A) (A) (A) (A) (A) (A) (A) (A)
                 (A) (A) (A) (A) (A) (A) (A) (A) (A) (A) (A) (A)
                 (A) (A) (A) (A) (A) (A) (A) (A) (A) (A) (A) (A)
                 (A) (A) (A) (A) (A) (A) (A) (A) (A) (A) (A) (A)
                 (A) (A) (A) (A) (A) (A) (A) (A) (A) (A) (A) (A)
                 (A) (A) (A) (A) (A) (A) (A) (A) (A) (A) (A) (A)
                 (A) (A) (A) (A) (A) (A) (A) (A) (A) (A) (A) (A)
                 (A) (A) (A) (A) (A) (A) (A) (A) (A) (A) (A) (A)
                 (A) (A) (A) (A) (A) (A) (A) (A) (A) (A) (A) (A)
                 (A) (A) (A) (A) (A) (A) (A) (A) (A) (A) (A) (A)
                 (A) (A) (A) (A) (A) (A) (A) (A) (A) (A) (A) (A)
                 (A) (A) (A) (A) (A) (A) (A) (A) (A) (A) (A) (A)
                 (A) (A) (A) (A) (A) (A) (A) (A) (A) (A) (A) (A)
                 (A) (A) (A) (A) (A) (A) (A) (A) (A) (A) (A) (A)
                 (A) (A) (A) (A) (A) (A) (A) (A) (A) (A) (A) (A)
                 (A) (A) (A) (A) (A) (A) (A) (A) (A) (A) (A) (A)
 The electronic state is 1-A.
 Alpha  occ. eigenvalues --  -88.87609 -88.87443 -19.16261 -19.16254 -19.12993
 Alpha  occ. eigenvalues --  -19.12898 -19.12502 -19.12393 -14.39178 -14.38712
 Alpha  occ. eigenvalues --  -10.31681 -10.31432 -10.31277 -10.31113 -10.24501
 Alpha  occ. eigenvalues --  -10.24104 -10.23823 -10.23646 -10.23643 -10.23495
 Alpha  occ. eigenvalues --  -10.23338 -10.23309 -10.23122 -10.23027 -10.22924
 Alpha  occ. eigenvalues --  -10.22090 -10.21961 -10.21926 -10.21606 -10.21403
 Alpha  occ. eigenvalues --  -10.20948 -10.20918 -10.20702 -10.19929 -10.18596
 Alpha  occ. eigenvalues --  -10.18065  -7.96127  -7.95987  -5.92453  -5.92297
 Alpha  occ. eigenvalues --   -5.92061  -5.91910  -5.91670  -5.91556  -1.08950
 Alpha  occ. eigenvalues --   -1.08529  -1.07877  -1.07803  -1.07063  -1.06545
 Alpha  occ. eigenvalues --   -0.96738  -0.96166  -0.93019  -0.89541  -0.88107
 Alpha  occ. eigenvalues --   -0.86726  -0.84931  -0.80613  -0.79118  -0.77150
 Alpha  occ. eigenvalues --   -0.75825  -0.75639  -0.74527  -0.72985  -0.72627
 Alpha  occ. eigenvalues --   -0.71945  -0.69864  -0.68713  -0.67568  -0.66393
 Alpha  occ. eigenvalues --   -0.65854  -0.65011  -0.60884  -0.59515  -0.58734
 Alpha  occ. eigenvalues --   -0.57835  -0.56651  -0.55630  -0.55550  -0.54084
 Alpha  occ. eigenvalues --   -0.53945  -0.52133  -0.50623  -0.50285  -0.50032
 Alpha  occ. eigenvalues --   -0.49191  -0.49047  -0.48950  -0.48122  -0.47870
 Alpha  occ. eigenvalues --   -0.47756  -0.47536  -0.46976  -0.46587  -0.45613
 Alpha  occ. eigenvalues --   -0.45341  -0.44948  -0.44828  -0.44607  -0.44200
 Alpha  occ. eigenvalues --   -0.42943  -0.42847  -0.42328  -0.42070  -0.41634
 Alpha  occ. eigenvalues --   -0.41526  -0.41221  -0.40931  -0.40645  -0.40208
 Alpha  occ. eigenvalues --   -0.39794  -0.38788  -0.38154  -0.37968  -0.36984
 Alpha  occ. eigenvalues --   -0.35772  -0.35593  -0.33647  -0.33229  -0.33120
 Alpha  occ. eigenvalues --   -0.32851  -0.32635  -0.31417  -0.30523  -0.30052
 Alpha  occ. eigenvalues --   -0.29424  -0.29312  -0.28779  -0.28637  -0.27423
 Alpha  occ. eigenvalues --   -0.26810  -0.24242  -0.23751  -0.18490
 Alpha virt. eigenvalues --   -0.13847  -0.07533  -0.06437  -0.05288  -0.04712
 Alpha virt. eigenvalues --   -0.01135  -0.00135  -0.00042   0.00176   0.00309
 Alpha virt. eigenvalues --    0.00590   0.00615   0.01029   0.01165   0.01721
 Alpha virt. eigenvalues --    0.02075   0.02141   0.02688   0.03110   0.03219
 Alpha virt. eigenvalues --    0.03430   0.03640   0.03856   0.04213   0.04538
 Alpha virt. eigenvalues --    0.04841   0.05071   0.05328   0.05453   0.05724
 Alpha virt. eigenvalues --    0.05874   0.06098   0.06207   0.06376   0.06780
 Alpha virt. eigenvalues --    0.07201   0.07427   0.07742   0.07949   0.08352
 Alpha virt. eigenvalues --    0.08648   0.08659   0.09009   0.09114   0.09267
 Alpha virt. eigenvalues --    0.09469   0.09550   0.09696   0.10300   0.10583
 Alpha virt. eigenvalues --    0.10653   0.11123   0.11371   0.11798   0.12062
 Alpha virt. eigenvalues --    0.12128   0.12506   0.12842   0.13137   0.13348
 Alpha virt. eigenvalues --    0.13388   0.13661   0.13739   0.14052   0.14284
 Alpha virt. eigenvalues --    0.14346   0.14662   0.14799   0.14884   0.15386
 Alpha virt. eigenvalues --    0.15650   0.15767   0.15840   0.15889   0.16065
 Alpha virt. eigenvalues --    0.16322   0.16728   0.16926   0.17249   0.17521
 Alpha virt. eigenvalues --    0.17947   0.18117   0.18184   0.18313   0.18395
 Alpha virt. eigenvalues --    0.18627   0.18961   0.19115   0.19303   0.19523
 Alpha virt. eigenvalues --    0.19624   0.19913   0.20097   0.20140   0.20303
 Alpha virt. eigenvalues --    0.20378   0.20573   0.20707   0.20920   0.21226
 Alpha virt. eigenvalues --    0.21436   0.21563   0.21849   0.22076   0.22251
 Alpha virt. eigenvalues --    0.22476   0.22513   0.22782   0.22961   0.23091
 Alpha virt. eigenvalues --    0.23353   0.23433   0.23660   0.24111   0.24337
 Alpha virt. eigenvalues --    0.24411   0.24442   0.24685   0.24906   0.25035
 Alpha virt. eigenvalues --    0.25126   0.25476   0.25485   0.25924   0.26056
 Alpha virt. eigenvalues --    0.26289   0.26394   0.26664   0.26904   0.27197
 Alpha virt. eigenvalues --    0.27610   0.27723   0.27783   0.28097   0.28155
 Alpha virt. eigenvalues --    0.28219   0.28466   0.28662   0.29135   0.29249
 Alpha virt. eigenvalues --    0.29344   0.29639   0.29995   0.30159   0.30407
 Alpha virt. eigenvalues --    0.30635   0.30802   0.30912   0.31327   0.31608
 Alpha virt. eigenvalues --    0.31875   0.31977   0.32285   0.32488   0.32710
 Alpha virt. eigenvalues --    0.33240   0.33300   0.33635   0.33753   0.34114
 Alpha virt. eigenvalues --    0.34375   0.34519   0.34876   0.35433   0.35695
 Alpha virt. eigenvalues --    0.35797   0.36495   0.36656   0.36883   0.37554
 Alpha virt. eigenvalues --    0.37968   0.38316   0.38516   0.38777   0.38850
 Alpha virt. eigenvalues --    0.39676   0.39912   0.40388   0.40992   0.41518
 Alpha virt. eigenvalues --    0.41849   0.41961   0.42359   0.43159   0.43501
 Alpha virt. eigenvalues --    0.43786   0.44395   0.44782   0.44891   0.45186
 Alpha virt. eigenvalues --    0.45428   0.45531   0.45989   0.46165   0.46533
 Alpha virt. eigenvalues --    0.46747   0.47537   0.47871   0.48399   0.49057
 Alpha virt. eigenvalues --    0.49396   0.49692   0.49803   0.50201   0.50934
 Alpha virt. eigenvalues --    0.51442   0.51990   0.52359   0.53172   0.53663
 Alpha virt. eigenvalues --    0.53895   0.54598   0.54759   0.55433   0.55718
 Alpha virt. eigenvalues --    0.55998   0.56130   0.56416   0.56756   0.56778
 Alpha virt. eigenvalues --    0.57233   0.57838   0.58412   0.58973   0.59123
 Alpha virt. eigenvalues --    0.59326   0.60139   0.60497   0.60547   0.61256
 Alpha virt. eigenvalues --    0.61724   0.61970   0.62300   0.62581   0.63141
 Alpha virt. eigenvalues --    0.63570   0.63731   0.63837   0.64136   0.64560
 Alpha virt. eigenvalues --    0.64941   0.65357   0.65567   0.65705   0.66177
 Alpha virt. eigenvalues --    0.67041   0.67190   0.67644   0.67953   0.68033
 Alpha virt. eigenvalues --    0.68862   0.69055   0.69477   0.69896   0.70348
 Alpha virt. eigenvalues --    0.70516   0.70751   0.71195   0.71338   0.71934
 Alpha virt. eigenvalues --    0.72230   0.73282   0.73410   0.73695   0.73792
 Alpha virt. eigenvalues --    0.73990   0.74694   0.74845   0.75067   0.75324
 Alpha virt. eigenvalues --    0.75354   0.75782   0.76098   0.76539   0.77085
 Alpha virt. eigenvalues --    0.77254   0.77582   0.77951   0.78175   0.78496
 Alpha virt. eigenvalues --    0.79091   0.79824   0.80123   0.80804   0.81585
 Alpha virt. eigenvalues --    0.82693   0.82941   0.83454   0.84296   0.85173
 Alpha virt. eigenvalues --    0.85842   0.86121   0.87239   0.87527   0.87618
 Alpha virt. eigenvalues --    0.88082   0.88339   0.88967   0.89598   0.90494
 Alpha virt. eigenvalues --    0.90913   0.91259   0.91713   0.92256   0.92684
 Alpha virt. eigenvalues --    0.93315   0.93642   0.94017   0.94360   0.94926
 Alpha virt. eigenvalues --    0.95080   0.95485   0.95928   0.96532   0.96743
 Alpha virt. eigenvalues --    0.97484   0.97745   0.98521   0.99940   1.00237
 Alpha virt. eigenvalues --    1.00504   1.01103   1.01225   1.01557   1.01676
 Alpha virt. eigenvalues --    1.02570   1.03522   1.03618   1.03848   1.03994
 Alpha virt. eigenvalues --    1.04684   1.05023   1.05097   1.05511   1.05905
 Alpha virt. eigenvalues --    1.06109   1.07079   1.07456   1.07694   1.08171
 Alpha virt. eigenvalues --    1.08271   1.09037   1.09529   1.10213   1.10780
 Alpha virt. eigenvalues --    1.11106   1.11461   1.12156   1.13089   1.14007
 Alpha virt. eigenvalues --    1.14224   1.15239   1.15962   1.16794   1.17749
 Alpha virt. eigenvalues --    1.17950   1.18376   1.18744   1.19449   1.20200
 Alpha virt. eigenvalues --    1.21241   1.21998   1.22441   1.24116   1.25376
 Alpha virt. eigenvalues --    1.25553   1.25712   1.26165   1.26290   1.26647
 Alpha virt. eigenvalues --    1.27517   1.27668   1.28568   1.29245   1.29864
 Alpha virt. eigenvalues --    1.31457   1.32467   1.32783   1.33499   1.34138
 Alpha virt. eigenvalues --    1.35327   1.35864   1.36302   1.37018   1.37572
 Alpha virt. eigenvalues --    1.39262   1.40390   1.40717   1.41744   1.42200
 Alpha virt. eigenvalues --    1.42708   1.42886   1.43051   1.43438   1.44038
 Alpha virt. eigenvalues --    1.44427   1.44528   1.44681   1.44760   1.45400
 Alpha virt. eigenvalues --    1.45901   1.46647   1.46754   1.47103   1.48064
 Alpha virt. eigenvalues --    1.49455   1.50291   1.50532   1.51123   1.51922
 Alpha virt. eigenvalues --    1.52178   1.52970   1.53551   1.53818   1.54050
 Alpha virt. eigenvalues --    1.54631   1.55073   1.55116   1.56027   1.56512
 Alpha virt. eigenvalues --    1.57786   1.58921   1.59425   1.59767   1.60634
 Alpha virt. eigenvalues --    1.61396   1.61976   1.62713   1.63064   1.63766
 Alpha virt. eigenvalues --    1.64318   1.64681   1.65501   1.66015   1.66642
 Alpha virt. eigenvalues --    1.66904   1.67444   1.68419   1.69213   1.69390
 Alpha virt. eigenvalues --    1.69435   1.70388   1.70464   1.70578   1.70869
 Alpha virt. eigenvalues --    1.71696   1.73040   1.73885   1.74019   1.74598
 Alpha virt. eigenvalues --    1.75355   1.76382   1.76629   1.77581   1.78122
 Alpha virt. eigenvalues --    1.79138   1.79236   1.80704   1.80971   1.81590
 Alpha virt. eigenvalues --    1.82533   1.83087   1.84538   1.84824   1.85541
 Alpha virt. eigenvalues --    1.85875   1.86194   1.86757   1.87474   1.87922
 Alpha virt. eigenvalues --    1.88946   1.89583   1.89817   1.90104   1.90756
 Alpha virt. eigenvalues --    1.91328   1.91826   1.92422   1.93850   1.94480
 Alpha virt. eigenvalues --    1.95152   1.95323   1.96249   1.97097   1.97512
 Alpha virt. eigenvalues --    1.98981   1.99305   2.00592   2.01044   2.01754
 Alpha virt. eigenvalues --    2.01812   2.02542   2.03505   2.03830   2.04332
 Alpha virt. eigenvalues --    2.05227   2.05861   2.06049   2.07141   2.07932
 Alpha virt. eigenvalues --    2.08198   2.08393   2.09457   2.10957   2.11356
 Alpha virt. eigenvalues --    2.11948   2.12294   2.12943   2.14065   2.14831
 Alpha virt. eigenvalues --    2.15245   2.15670   2.16251   2.17082   2.17674
 Alpha virt. eigenvalues --    2.18158   2.18933   2.20025   2.20248   2.21616
 Alpha virt. eigenvalues --    2.22057   2.22665   2.25378   2.26168   2.27012
 Alpha virt. eigenvalues --    2.27865   2.31271   2.31833   2.32446   2.34089
 Alpha virt. eigenvalues --    2.35704   2.37000   2.39230   2.39565   2.41797
 Alpha virt. eigenvalues --    2.43062   2.43476   2.43675   2.44578   2.45431
 Alpha virt. eigenvalues --    2.46076   2.46672   2.46772   2.48212   2.48601
 Alpha virt. eigenvalues --    2.49790   2.50598   2.51120   2.52002   2.52102
 Alpha virt. eigenvalues --    2.52332   2.52936   2.53159   2.53733   2.54904
 Alpha virt. eigenvalues --    2.55722   2.57533   2.57799   2.58614   2.58762
 Alpha virt. eigenvalues --    2.59729   2.60857   2.62786   2.63777   2.64169
 Alpha virt. eigenvalues --    2.64726   2.66604   2.67433   2.67988   2.68377
 Alpha virt. eigenvalues --    2.68637   2.68860   2.69629   2.69970   2.70493
 Alpha virt. eigenvalues --    2.70991   2.71987   2.72319   2.73223   2.74660
 Alpha virt. eigenvalues --    2.75004   2.75381   2.76903   2.78850   2.79665
 Alpha virt. eigenvalues --    2.79908   2.81604   2.82647   2.83363   2.83578
 Alpha virt. eigenvalues --    2.83898   2.84309   2.85309   2.85583   2.85874
 Alpha virt. eigenvalues --    2.86947   2.87083   2.87905   2.87936   2.88941
 Alpha virt. eigenvalues --    2.90291   2.91433   2.92001   2.92641   2.93662
 Alpha virt. eigenvalues --    2.94154   2.94819   2.95722   2.96996   2.98516
 Alpha virt. eigenvalues --    2.98855   3.00889   3.00954   3.04094   3.04453
 Alpha virt. eigenvalues --    3.04883   3.05309   3.06555   3.08260   3.08626
 Alpha virt. eigenvalues --    3.10391   3.11074   3.12511   3.13511   3.14761
 Alpha virt. eigenvalues --    3.15580   3.16402   3.17249   3.18974   3.19976
 Alpha virt. eigenvalues --    3.22214   3.23230   3.24094   3.24518   3.24731
 Alpha virt. eigenvalues --    3.26598   3.28348   3.29891   3.30680   3.32638
 Alpha virt. eigenvalues --    3.33386   3.33918   3.34108   3.34924   3.35066
 Alpha virt. eigenvalues --    3.36219   3.38186   3.38880   3.41381   3.42089
 Alpha virt. eigenvalues --    3.43298   3.43743   3.45024   3.46668   3.47992
 Alpha virt. eigenvalues --    3.49624   3.49906   3.53635   3.56473   3.56977
 Alpha virt. eigenvalues --    3.59088   3.59681   3.61605   3.64690   3.65202
 Alpha virt. eigenvalues --    3.66091   3.68691   3.70260   3.71717   3.72444
 Alpha virt. eigenvalues --    3.76237   3.76479   3.76698   3.81351   3.82507
 Alpha virt. eigenvalues --    3.84798   3.84936   3.85955   3.89749   3.91964
 Alpha virt. eigenvalues --    3.92417   3.92915   3.93732   3.97023   4.00955
 Alpha virt. eigenvalues --    4.03667   4.04418   4.08546   4.11141   4.11986
 Alpha virt. eigenvalues --    4.14685   4.18880   4.23473   4.24725   4.27348
 Alpha virt. eigenvalues --    4.34602   4.37604   4.39281   4.50079   4.66398
 Alpha virt. eigenvalues --    4.83193   4.84961   4.86657   4.89814   5.02364
 Alpha virt. eigenvalues --    5.03114   5.03504   5.04703   5.05156   5.07611
 Alpha virt. eigenvalues --    5.10636   5.12195   5.24327   5.26153   5.28228
 Alpha virt. eigenvalues --    5.30463   5.42987   5.44429   5.74973   5.77312
 Alpha virt. eigenvalues --    5.79574   5.80895   5.81424   5.85014   8.03185
 Alpha virt. eigenvalues --    8.07849  17.29940  17.35424  17.50580  17.53713
 Alpha virt. eigenvalues --   17.57343  17.64136  23.48889  23.57020  23.73010
 Alpha virt. eigenvalues --   23.78874  23.81728  23.82825  23.83615  23.85780
 Alpha virt. eigenvalues --   23.86235  23.87347  23.90034  23.90439  23.91651
 Alpha virt. eigenvalues --   23.92356  23.94173  23.94796  23.95525  23.97288
 Alpha virt. eigenvalues --   23.99314  24.02912  24.03698  24.03933  24.11984
 Alpha virt. eigenvalues --   24.13024  24.13553  24.15048  35.55318  35.58220
 Alpha virt. eigenvalues --   49.96937  49.97957  50.01300  50.02951  50.05078
 Alpha virt. eigenvalues --   50.06612 189.20411 189.26475
          Condensed to atoms (all electrons):
 Mulliken charges:
               1
     1  C    0.324723
     2  C    0.039998
     3  C    0.157777
     4  C    0.202614
     5  C    0.231078
     6  C   -0.807349
     7  C    0.211490
     8  C   -0.065376
     9  C    0.566957
    10  C   -0.267257
    11  C    0.320953
    12  C    0.146128
    13  C   -0.538643
    14  C   -0.628664
    15  H    0.163376
    16  H    0.165789
    17  H    0.171518
    18  N   -0.154257
    19  N   -0.140921
    20  O   -0.268729
    21  O   -0.268929
    22  O   -0.273618
    23  O   -0.154093
    24  C   -0.199735
    25  H    0.178575
    26  H    0.176215
    27  H    0.183519
    28  C   -0.196760
    29  H    0.175394
    30  H    0.176908
    31  H    0.183672
    32  C    0.375304
    33  C   -0.718069
    34  S   -0.036782
    35  C   -0.213470
    36  H    0.112030
    37  C    0.236520
    38  O   -0.118557
    39  C    0.923150
    40  C   -0.241675
    41  C    0.131527
    42  S   -0.260158
    43  H    0.165398
    44  H    0.144808
    45  H    0.152579
    46  C   -0.498108
    47  O   -0.148079
    48  C   -0.319702
    49  H    0.128515
    50  C   -0.233758
    51  H    0.156738
    52  H    0.143479
    53  H    0.162893
    54  H    0.143064
 Sum of Mulliken charges =  -0.00000
 Mulliken charges with hydrogens summed into heavy atoms:
               1
     1  C    0.324723
     2  C    0.039998
     3  C    0.157777
     4  C    0.202614
     5  C    0.231078
     6  C   -0.635831
     7  C    0.211490
     8  C   -0.065376
     9  C    0.566957
    10  C   -0.267257
    11  C    0.320953
    12  C    0.146128
    13  C   -0.372854
    14  C   -0.465288
    18  N   -0.154257
    19  N   -0.140921
    20  O   -0.268729
    21  O   -0.268929
    22  O   -0.273618
    23  O   -0.154093
    24  C    0.338573
    28  C    0.339213
    32  C    0.375304
    33  C   -0.606039
    34  S   -0.036782
    35  C   -0.213470
    37  C    0.236520
    38  O   -0.118557
    39  C    0.923150
    40  C    0.221111
    41  C    0.131527
    42  S   -0.260158
    46  C   -0.369593
    47  O   -0.148079
    48  C   -0.162964
    50  C    0.215678
 Electronic spatial extent (au):  <R**2>=          22370.4006
 Charge=             -0.0000 electrons
 Dipole moment (field-independent basis, Debye):
    X=             -1.2420    Y=             -0.1193    Z=              0.0502  Tot=              1.2487
 Quadrupole moment (field-independent basis, Debye-Ang):
   XX=           -221.2828   YY=           -235.3711   ZZ=           -195.5247
   XY=             -3.3256   XZ=              8.9575   YZ=             -0.0015
 Traceless Quadrupole moment (field-independent basis, Debye-Ang):
   XX=             -3.8899   YY=            -17.9782   ZZ=             21.8681
   XY=             -3.3256   XZ=              8.9575   YZ=             -0.0015
 Octapole moment (field-independent basis, Debye-Ang**2):
  XXX=           -267.5628  YYY=             -8.6697  ZZZ=              4.1216  XYY=            -13.6177
  XXY=            -27.7403  XXZ=            -55.6903  XZZ=            -94.3201  YZZ=             -7.9267
  YYZ=             -2.5736  XYZ=             -3.4774
 Hexadecapole moment (field-independent basis, Debye-Ang**3):
 XXXX=         -21551.7900 YYYY=          -6083.2501 ZZZZ=          -2182.0796 XXXY=            217.2415
 XXXZ=            459.9559 YYYX=           -524.3481 YYYZ=             29.0423 ZZZX=             55.6268
 ZZZY=             -5.4428 XXYY=          -4900.9253 XXZZ=          -3660.5455 YYZZ=          -1409.6944
 XXYZ=             -7.0437 YYXZ=             -3.6823 ZZXY=              0.4360
 N-N= 4.078194138166D+03 E-N=-1.369620658679D+04  KE= 2.351790619268D+03
 Calling FoFJK, ICntrl=      2127 FMM=F ISym2X=0 I1Cent= 0 IOpClX= 0 NMat=1 NMatS=1 NMatT=0.
 ***** Axes restored to original set *****
 -------------------------------------------------------------------
 Center     Atomic                   Forces (Hartrees/Bohr)
 Number     Number              X              Y              Z
 -------------------------------------------------------------------
      1        6           0.004835601   -0.006809519   -0.000468108
      2        6          -0.004304259    0.001436208   -0.000117899
      3        6           0.004892786   -0.001222232   -0.000358470
      4        6          -0.003356099    0.002240351    0.000591464
      5        6          -0.005922618   -0.003773413   -0.000386451
      6        6           0.004804926    0.005291750   -0.004058061
      7        6          -0.001930915   -0.001142726    0.001152404
      8        6           0.005216473   -0.012063249    0.001840047
      9        6          -0.025108157   -0.003148868   -0.003944294
     10        6           0.014743384    0.012463841    0.001113211
     11        6          -0.003137765    0.008561719    0.001099297
     12        6          -0.002492991   -0.002039220   -0.000149721
     13        6           0.002199675    0.001946293    0.000049849
     14        6           0.003359469   -0.002916105   -0.000453597
     15        1           0.000551375    0.000608242    0.000032813
     16        1           0.000631473   -0.001046759   -0.000229953
     17        1           0.001899010    0.002125251    0.001678672
     18        7          -0.002265922   -0.001898560   -0.001206966
     19        7           0.000162852    0.002080220    0.000128351
     20        8          -0.006952595    0.007495602    0.000876088
     21        8           0.007646898    0.002863259    0.000234109
     22        8           0.006727435   -0.007506172   -0.001010890
     23        8          -0.009546647   -0.011369558   -0.004117110
     24        6           0.001103202    0.002899995   -0.000552716
     25        1          -0.000585634   -0.000106137   -0.000487785
     26        1          -0.001181497   -0.000724810    0.001249466
     27        1           0.001072605    0.000021371    0.000091750
     28        6          -0.000578649   -0.002271036   -0.000690094
     29        1          -0.000691509    0.000429267    0.001024866
     30        1          -0.000464026    0.000460817   -0.000525874
     31        1           0.000982417   -0.000410713   -0.000015559
     32        6           0.023880625    0.008903467    0.008653649
     33        6          -0.015705389   -0.002217199    0.004478431
     34       16          -0.006720115   -0.000320856   -0.005429387
     35        6           0.006576503    0.000238217    0.014727547
     36        1          -0.001829191   -0.000536517   -0.001798564
     37        6          -0.003253299    0.001314809   -0.011668240
     38        8          -0.000274450    0.001222909   -0.004218709
     39        6           0.004546657   -0.001085418    0.005381232
     40        6           0.000419929   -0.000044874   -0.000248774
     41        6           0.002307587    0.001241339   -0.006119304
     42       16          -0.000825841   -0.000672257    0.002214302
     43        1          -0.000982456   -0.000078978    0.000299146
     44        1           0.000709798    0.000426063    0.000456318
     45        1           0.001327640   -0.000418639    0.000142608
     46        6          -0.000385524    0.000169328   -0.002748456
     47        8          -0.001438985   -0.000904361    0.002937295
     48        6           0.001001353    0.000100996    0.002190888
     49        1           0.000183236    0.000111108   -0.000487483
     50        6           0.000832520    0.000274741    0.000524148
     51        1          -0.001448344   -0.000131850   -0.000258718
     52        1          -0.000839012   -0.000711310   -0.000602581
     53        1           0.000388524    0.000200911   -0.000346611
     54        1          -0.000782064    0.000443265   -0.000467574
 -------------------------------------------------------------------
 Cartesian Forces:  Max     0.025108157 RMS     0.004838388

 GradGradGradGradGradGradGradGradGradGradGradGradGradGradGradGradGradGrad
 Berny optimization.
 FormGI is forming the generalized inverse of G from B-inverse, IUseBI=4.
 Internal  Forces:  Max     0.019323386 RMS     0.002821451
 Search for a local minimum.
 Step number   1 out of a maximum of  307
 All quantities printed in internal units (Hartrees-Bohrs-Radians)
 Mixed Optimization -- RFO/linear search
 Second derivative matrix not updated -- first step.
 ITU=  0
     Eigenvalues ---    0.01155   0.01172   0.01239   0.01297   0.01362
     Eigenvalues ---    0.01378   0.01397   0.01410   0.01452   0.01470
     Eigenvalues ---    0.01512   0.01544   0.01567   0.01590   0.01618
     Eigenvalues ---    0.01652   0.01679   0.01695   0.01712   0.01719
     Eigenvalues ---    0.01721   0.01763   0.01799   0.01845   0.01972
     Eigenvalues ---    0.02039   0.02045   0.02073   0.02087   0.02096
     Eigenvalues ---    0.02133   0.02149   0.02162   0.02177   0.02197
     Eigenvalues ---    0.02241   0.04601   0.04620   0.07665   0.07667
     Eigenvalues ---    0.10063   0.10073   0.10630   0.10635   0.15983
     Eigenvalues ---    0.15999   0.15999   0.16000   0.16000   0.16000
     Eigenvalues ---    0.16000   0.16000   0.16000   0.16000   0.16000
     Eigenvalues ---    0.16000   0.16000   0.16000   0.16000   0.16000
     Eigenvalues ---    0.16000   0.16000   0.22531   0.22583   0.23517
     Eigenvalues ---    0.23582   0.24513   0.24747   0.24865   0.24906
     Eigenvalues ---    0.24952   0.24985   0.24986   0.24988   0.24991
     Eigenvalues ---    0.24994   0.24996   0.24997   0.24998   0.24998
     Eigenvalues ---    0.25000   0.25000   0.25000   0.25000   0.25000
     Eigenvalues ---    0.25000   0.25000   0.25000   0.25000   0.25000
     Eigenvalues ---    0.28844   0.28890   0.30078   0.32122   0.32582
     Eigenvalues ---    0.32774   0.33104   0.33787   0.34020   0.34045
     Eigenvalues ---    0.34054   0.34066   0.34353   0.34466   0.34577
     Eigenvalues ---    0.34629   0.34693   0.34806   0.34886   0.35198
     Eigenvalues ---    0.35218   0.35468   0.35553   0.35582   0.35843
     Eigenvalues ---    0.35908   0.36078   0.36083   0.36267   0.36393
     Eigenvalues ---    0.36662   0.39348   0.40194   0.40202   0.40651
     Eigenvalues ---    0.40659   0.41524   0.41729   0.41907   0.42300
     Eigenvalues ---    0.42641   0.43455   0.43929   0.44092   0.44594
     Eigenvalues ---    0.44667   0.45014   0.45405   0.46251   0.47305
     Eigenvalues ---    0.47597   0.49309   0.49468   0.53073   0.53285
     Eigenvalues ---    0.93281   0.93432   0.93989   0.945851000.00000
     Eigenvalues --- 1000.000001000.000001000.000001000.000001000.00000
     Eigenvalues --- 1000.000001000.000001000.000001000.000001000.00000
     Eigenvalues --- 1000.000001000.000001000.000001000.000001000.00000
     Eigenvalues --- 1000.000001000.000001000.000001000.000001000.00000
     Eigenvalues --- 1000.000001000.000001000.000001000.000001000.00000
     Eigenvalues --- 1000.000001000.000001000.000001000.000001000.00000
     Eigenvalues --- 1000.000001000.000001000.000001000.000001000.00000
     Eigenvalues --- 1000.000001000.000001000.000001000.000001000.00000
     Eigenvalues --- 1000.000001000.000001000.000001000.000001000.00000
     Eigenvalues --- 1000.000001000.000001000.000001000.000001000.00000
     Eigenvalues --- 1000.000001000.000001000.000001000.000001000.00000
     Eigenvalues --- 1000.000001000.000001000.000001000.000001000.00000
     Eigenvalues --- 1000.000001000.000001000.000001000.000001000.00000
     Eigenvalues --- 1000.000001000.000001000.000001000.000001000.00000
     Eigenvalues --- 1000.000001000.000001000.000001000.000001000.00000
     Eigenvalues --- 1000.000001000.000001000.000001000.000001000.00000
     Eigenvalues --- 1000.000001000.000001000.000001000.000001000.00000
     Eigenvalues --- 1000.000001000.000001000.000001000.000001000.00000
     Eigenvalues --- 1000.000001000.000001000.000001000.000001000.00000
     Eigenvalues --- 1000.000001000.000001000.000001000.000001000.00000
     Eigenvalues --- 1000.000001000.000001000.000001000.000001000.00000
     Eigenvalues --- 1000.000001000.000001000.000001000.000001000.00000
     Eigenvalues --- 1000.000001000.000001000.000001000.000001000.00000
     Eigenvalues --- 1000.000001000.000001000.000001000.000001000.00000
     Eigenvalues --- 1000.000001000.000001000.000001000.000001000.00000
     Eigenvalues --- 1000.000001000.000001000.000001000.000001000.00000
     Eigenvalues --- 1000.000001000.000001000.000001000.000001000.00000
     Eigenvalues --- 1000.000001000.000001000.000001000.000001000.00000
     Eigenvalues --- 1000.000001000.000001000.000001000.000001000.00000
     Eigenvalues --- 1000.000001000.00000
 RFO step:  Lambda=-7.74375487D-03 EMin= 1.15532237D-02
 Linear search not attempted -- first point.
 Iteration  1 RMS(Cart)=  0.10669287 RMS(Int)=  0.00140464
 Iteration  2 RMS(Cart)=  0.00317070 RMS(Int)=  0.00018825
 Iteration  3 RMS(Cart)=  0.00000445 RMS(Int)=  0.00018824
 Iteration  4 RMS(Cart)=  0.00000000 RMS(Int)=  0.00018824
 Iteration  1 RMS(Cart)=  0.00001781 RMS(Int)=  0.00001172
 Iteration  2 RMS(Cart)=  0.00000996 RMS(Int)=  0.00001303
 Iteration  3 RMS(Cart)=  0.00000559 RMS(Int)=  0.00001490
 Iteration  4 RMS(Cart)=  0.00000317 RMS(Int)=  0.00001632
 Iteration  5 RMS(Cart)=  0.00000183 RMS(Int)=  0.00001728
 Iteration  6 RMS(Cart)=  0.00000109 RMS(Int)=  0.00001790
 Iteration  7 RMS(Cart)=  0.00000067 RMS(Int)=  0.00001830
 Variable       Old X    -DE/DX   Delta X   Delta X   Delta X     New X
                                 (Linear)    (Quad)   (Total)
    R1        2.80935  -0.00002   0.00000   0.00011   0.00011   2.80946
    R2        2.64584  -0.00010   0.00000  -0.00024  -0.00023   2.64561
    R3        2.31147  -0.01025   0.00000  -0.01082  -0.01082   2.30065
    R4        2.67311  -0.00242   0.00000  -0.00370  -0.00380   2.66931
    R5        2.59267   0.00428   0.00000   0.00961   0.00959   2.60226
    R6        2.66894  -0.00121   0.00000  -0.00254  -0.00255   2.66639
    R7        2.69164  -0.00280   0.00000  -0.00668  -0.00672   2.68492
    R8        2.81049   0.00012   0.00000   0.00016   0.00016   2.81066
    R9        2.62173  -0.00269   0.00000  -0.00520  -0.00521   2.61652
   R10        2.65570  -0.00096   0.00000  -0.00226  -0.00225   2.65345
   R11        2.30889  -0.00816   0.00000  -0.00856  -0.00856   2.30033
   R12        2.70248  -0.00757   0.00000  -0.01816  -0.01810   2.68437
   R13        2.04786  -0.00040   0.00000  -0.00109  -0.00109   2.04677
   R14        2.70495  -0.00666   0.00000  -0.01858  -0.01850   2.68646
   R15        2.68322  -0.00323   0.00000  -0.00831  -0.00830   2.67491
   R16        2.68655  -0.01932   0.00000  -0.04663  -0.04655   2.63999
   R17        2.81233  -0.00126   0.00000  -0.00421  -0.00414   2.80819
   R18        2.76359   0.00829   0.00000   0.02215   0.02215   2.78574
   R19        2.66221  -0.00002   0.00000   0.00041   0.00042   2.66262
   R20        2.31391  -0.01367   0.00000  -0.01451  -0.01451   2.29939
   R21        2.79415   0.00393   0.00000   0.01161   0.01156   2.80571
   R22        2.63842   0.00054   0.00000   0.00197   0.00191   2.64033
   R23        2.31456  -0.01008   0.00000  -0.01072  -0.01072   2.30385
   R24        2.62448  -0.00304   0.00000  -0.00647  -0.00647   2.61802
   R25        2.64561   0.00167   0.00000   0.00378   0.00378   2.64939
   R26        2.04921  -0.00120   0.00000  -0.00331  -0.00331   2.04590
   R27        2.04741  -0.00072   0.00000  -0.00197  -0.00197   2.04544
   R28        2.77259   0.00214   0.00000   0.00582   0.00582   2.77842
   R29        2.77252   0.00192   0.00000   0.00520   0.00520   2.77772
   R30        2.06176  -0.00073   0.00000  -0.00205  -0.00205   2.05971
   R31        2.06551  -0.00186   0.00000  -0.00527  -0.00527   2.06024
   R32        2.05322  -0.00091   0.00000  -0.00252  -0.00252   2.05070
   R33        2.06368  -0.00130   0.00000  -0.00367  -0.00367   2.06001
   R34        2.06281  -0.00082   0.00000  -0.00232  -0.00232   2.06049
   R35        2.05355  -0.00093   0.00000  -0.00259  -0.00259   2.05096
   R36        2.61045  -0.01146   0.00000  -0.02343  -0.02340   2.58705
   R37        3.33280  -0.00827   0.00000  -0.02807  -0.02803   3.30477
   R38        2.66341   0.00670   0.00000   0.01497   0.01495   2.67835
   R39        2.03666   0.00230   0.00000   0.00621   0.00621   2.04287
   R40        3.30439   0.00240   0.00000   0.00803   0.00802   3.31241
   R41        2.64238  -0.00826   0.00000  -0.01731  -0.01735   2.62503
   R42        2.56886   0.00335   0.00000   0.00623   0.00623   2.57509
   R43        2.71280   0.00408   0.00000   0.00995   0.00995   2.72275
   R44        2.69270  -0.00099   0.00000  -0.00233  -0.00233   2.69037
   R45        2.63270  -0.00408   0.00000  -0.00876  -0.00876   2.62394
   R46        3.32903  -0.00128   0.00000  -0.00409  -0.00409   3.32494
   R47        2.05990  -0.00100   0.00000  -0.00282  -0.00282   2.05708
   R48        2.07254  -0.00084   0.00000  -0.00242  -0.00242   2.07012
   R49        2.07239  -0.00114   0.00000  -0.00327  -0.00327   2.06912
   R50        2.69133  -0.00060   0.00000  -0.00165  -0.00165   2.68968
   R51        2.56688   0.00281   0.00000   0.00519   0.00519   2.57207
   R52        3.26266  -0.00109   0.00000  -0.00293  -0.00293   3.25973
   R53        2.58813  -0.00289   0.00000  -0.00556  -0.00556   2.58257
   R54        2.04226  -0.00039   0.00000  -0.00106  -0.00106   2.04120
   R55        2.69041  -0.00098   0.00000  -0.00229  -0.00229   2.68812
   R56        2.04327  -0.00144   0.00000  -0.00393  -0.00393   2.03934
   R57        2.07296  -0.00116   0.00000  -0.00334  -0.00334   2.06963
   R58        2.05860  -0.00053   0.00000  -0.00150  -0.00150   2.05710
   R59        2.07219  -0.00089   0.00000  -0.00257  -0.00257   2.06962
    A1        2.03797   0.00051   0.00000   0.00291   0.00290   2.04086
    A2        2.14521  -0.00078   0.00000  -0.00351  -0.00351   2.14170
    A3        2.10001   0.00028   0.00000   0.00060   0.00060   2.10061
    A4        2.10395  -0.00106   0.00000  -0.00549  -0.00549   2.09845
    A5        2.08282   0.00322   0.00000   0.00929   0.00931   2.09213
    A6        2.09624  -0.00215   0.00000  -0.00364  -0.00369   2.09254
    A7        2.10093   0.00163   0.00000   0.00601   0.00602   2.10695
    A8        2.07104   0.00030   0.00000   0.00369   0.00363   2.07467
    A9        2.11118  -0.00192   0.00000  -0.00963  -0.00961   2.10157
   A10        2.10296  -0.00071   0.00000  -0.00263  -0.00264   2.10033
   A11        2.09911  -0.00111   0.00000  -0.00376  -0.00380   2.09531
   A12        2.08110   0.00181   0.00000   0.00642   0.00645   2.08755
   A13        2.03739   0.00001   0.00000   0.00022   0.00020   2.03759
   A14        2.12972  -0.00030   0.00000  -0.00128  -0.00127   2.12845
   A15        2.11607   0.00030   0.00000   0.00106   0.00107   2.11714
   A16        2.15098  -0.00412   0.00000  -0.01506  -0.01536   2.13562
   A17        2.04399   0.00511   0.00000   0.02669   0.02623   2.07022
   A18        2.08722  -0.00092   0.00000  -0.00943  -0.00988   2.07734
   A19        2.11101  -0.00245   0.00000  -0.01006  -0.01004   2.10096
   A20        2.04385   0.00459   0.00000   0.01933   0.01923   2.06308
   A21        2.12832  -0.00214   0.00000  -0.00920  -0.00928   2.11904
   A22        2.08678   0.00344   0.00000   0.01029   0.00997   2.09676
   A23        2.04738   0.00603   0.00000   0.02451   0.02402   2.07141
   A24        2.14662  -0.00939   0.00000  -0.03106  -0.03171   2.11491
   A25        2.04892   0.00505   0.00000   0.01648   0.01662   2.06553
   A26        2.00754   0.00760   0.00000   0.03134   0.03115   2.03870
   A27        2.22643  -0.01265   0.00000  -0.04729  -0.04747   2.17895
   A28        2.06022  -0.00213   0.00000  -0.00865  -0.00865   2.05157
   A29        2.17370  -0.00704   0.00000  -0.02699  -0.02708   2.14661
   A30        2.04919   0.00917   0.00000   0.03589   0.03580   2.08499
   A31        2.01621   0.00179   0.00000   0.00902   0.00878   2.02498
   A32        2.14188  -0.00203   0.00000  -0.00877  -0.00878   2.13309
   A33        2.12500   0.00025   0.00000   0.00008   0.00007   2.12507
   A34        2.10943  -0.00079   0.00000  -0.00290  -0.00303   2.10640
   A35        2.11468  -0.00273   0.00000  -0.01151  -0.01150   2.10318
   A36        2.05896   0.00353   0.00000   0.01462   0.01465   2.07361
   A37        2.11176  -0.00035   0.00000  -0.00176  -0.00180   2.10995
   A38        2.05670   0.00051   0.00000   0.00288   0.00289   2.05958
   A39        2.11471  -0.00015   0.00000  -0.00108  -0.00107   2.11365
   A40        2.08567   0.00153   0.00000   0.00766   0.00759   2.09326
   A41        2.07549  -0.00036   0.00000  -0.00135  -0.00135   2.07415
   A42        2.12199  -0.00117   0.00000  -0.00622  -0.00622   2.11577
   A43        2.20043  -0.00266   0.00000  -0.00851  -0.00860   2.19183
   A44        2.02023   0.00087   0.00000   0.00249   0.00253   2.02276
   A45        2.06252   0.00179   0.00000   0.00603   0.00607   2.06859
[...]
 Alpha  occ. eigenvalues --   -0.53912  -0.52156  -0.50669  -0.50294  -0.50140
 Alpha  occ. eigenvalues --   -0.49094  -0.49068  -0.48894  -0.48034  -0.47797
 Alpha  occ. eigenvalues --   -0.47648  -0.47459  -0.47045  -0.46662  -0.45565
 Alpha  occ. eigenvalues --   -0.45353  -0.45124  -0.44885  -0.44616  -0.44110
 Alpha  occ. eigenvalues --   -0.43099  -0.42886  -0.42517  -0.42027  -0.41819
 Alpha  occ. eigenvalues --   -0.41576  -0.41164  -0.41007  -0.40629  -0.40295
 Alpha  occ. eigenvalues --   -0.40039  -0.38848  -0.38094  -0.37875  -0.36821
 Alpha  occ. eigenvalues --   -0.35825  -0.35454  -0.33590  -0.33175  -0.33005
 Alpha  occ. eigenvalues --   -0.32822  -0.32742  -0.31457  -0.30553  -0.30078
 Alpha  occ. eigenvalues --   -0.29579  -0.29373  -0.28842  -0.28809  -0.27157
 Alpha  occ. eigenvalues --   -0.26859  -0.24083  -0.23708  -0.18534
 Alpha virt. eigenvalues --   -0.13612  -0.07325  -0.06194  -0.05140  -0.04338
 Alpha virt. eigenvalues --   -0.01155  -0.00016   0.00023   0.00252   0.00485
 Alpha virt. eigenvalues --    0.00642   0.00759   0.01051   0.01185   0.01704
 Alpha virt. eigenvalues --    0.02059   0.02156   0.02730   0.03115   0.03252
 Alpha virt. eigenvalues --    0.03494   0.03672   0.03924   0.04178   0.04534
 Alpha virt. eigenvalues --    0.04917   0.05106   0.05363   0.05560   0.05778
 Alpha virt. eigenvalues --    0.05929   0.06077   0.06154   0.06479   0.06815
 Alpha virt. eigenvalues --    0.07264   0.07458   0.07835   0.08002   0.08429
 Alpha virt. eigenvalues --    0.08578   0.08732   0.09077   0.09187   0.09332
 Alpha virt. eigenvalues --    0.09497   0.09573   0.09765   0.10334   0.10682
 Alpha virt. eigenvalues --    0.10788   0.11178   0.11384   0.11802   0.12125
 Alpha virt. eigenvalues --    0.12376   0.12601   0.13034   0.13204   0.13378
 Alpha virt. eigenvalues --    0.13464   0.13579   0.13732   0.14015   0.14211
 Alpha virt. eigenvalues --    0.14387   0.14676   0.14789   0.15066   0.15355
 Alpha virt. eigenvalues --    0.15570   0.15773   0.15864   0.16073   0.16145
 Alpha virt. eigenvalues --    0.16366   0.16828   0.16931   0.17199   0.17676
 Alpha virt. eigenvalues --    0.18054   0.18159   0.18269   0.18401   0.18616
 Alpha virt. eigenvalues --    0.18835   0.19151   0.19204   0.19361   0.19585
 Alpha virt. eigenvalues --    0.19790   0.20052   0.20100   0.20331   0.20382
 Alpha virt. eigenvalues --    0.20404   0.20626   0.20731   0.21063   0.21241
 Alpha virt. eigenvalues --    0.21481   0.21799   0.21989   0.22078   0.22343
 Alpha virt. eigenvalues --    0.22526   0.22680   0.22816   0.23050   0.23109
 Alpha virt. eigenvalues --    0.23453   0.23701   0.23742   0.24180   0.24465
 Alpha virt. eigenvalues --    0.24548   0.24660   0.24752   0.24926   0.25044
 Alpha virt. eigenvalues --    0.25282   0.25401   0.25574   0.25924   0.26209
 Alpha virt. eigenvalues --    0.26480   0.26553   0.26804   0.26944   0.27337
 Alpha virt. eigenvalues --    0.27555   0.27811   0.28027   0.28088   0.28185
 Alpha virt. eigenvalues --    0.28307   0.28671   0.28845   0.29112   0.29457
 Alpha virt. eigenvalues --    0.29532   0.29716   0.30087   0.30409   0.30440
 Alpha virt. eigenvalues --    0.30806   0.30991   0.31156   0.31407   0.31785
 Alpha virt. eigenvalues --    0.31961   0.32247   0.32651   0.32736   0.32848
 Alpha virt. eigenvalues --    0.33202   0.33395   0.33927   0.34087   0.34379
 Alpha virt. eigenvalues --    0.34636   0.34703   0.35229   0.35571   0.35819
 Alpha virt. eigenvalues --    0.36263   0.36534   0.36879   0.37635   0.37808
 Alpha virt. eigenvalues --    0.38184   0.38451   0.38730   0.39231   0.39583
 Alpha virt. eigenvalues --    0.39627   0.40281   0.41072   0.41573   0.41976
 Alpha virt. eigenvalues --    0.42084   0.42372   0.42740   0.43054   0.43891
 Alpha virt. eigenvalues --    0.44532   0.44675   0.44835   0.45183   0.45418
 Alpha virt. eigenvalues --    0.45537   0.45704   0.45914   0.46549   0.46676
 Alpha virt. eigenvalues --    0.47494   0.47984   0.48580   0.49312   0.49577
 Alpha virt. eigenvalues --    0.49988   0.50109   0.50466   0.51108   0.51756
 Alpha virt. eigenvalues --    0.52293   0.52509   0.53510   0.53614   0.54162
 Alpha virt. eigenvalues --    0.54527   0.54905   0.55529   0.55617   0.55995
 Alpha virt. eigenvalues --    0.56242   0.56760   0.56902   0.57373   0.57724
 Alpha virt. eigenvalues --    0.58335   0.58415   0.58876   0.58996   0.59491
 Alpha virt. eigenvalues --    0.60149   0.60475   0.60682   0.61264   0.61852
 Alpha virt. eigenvalues --    0.62114   0.62331   0.62951   0.63172   0.63598
 Alpha virt. eigenvalues --    0.63868   0.63967   0.64102   0.64955   0.65186
 Alpha virt. eigenvalues --    0.65506   0.65662   0.65957   0.66192   0.67133
 Alpha virt. eigenvalues --    0.67436   0.67737   0.68014   0.68422   0.68499
 Alpha virt. eigenvalues --    0.68778   0.69374   0.70284   0.70385   0.70558
 Alpha virt. eigenvalues --    0.70919   0.71266   0.71676   0.71972   0.72385
 Alpha virt. eigenvalues --    0.73341   0.73463   0.73639   0.74011   0.74306
 Alpha virt. eigenvalues --    0.74803   0.74990   0.75168   0.75359   0.75634
 Alpha virt. eigenvalues --    0.75926   0.76398   0.76721   0.76919   0.77231
 Alpha virt. eigenvalues --    0.77559   0.78199   0.78490   0.78767   0.79003
 Alpha virt. eigenvalues --    0.79984   0.80094   0.80641   0.81293   0.82954
 Alpha virt. eigenvalues --    0.83135   0.83395   0.84515   0.85356   0.85980
 Alpha virt. eigenvalues --    0.86675   0.87362   0.87473   0.87765   0.88454
 Alpha virt. eigenvalues --    0.88721   0.89370   0.89981   0.90477   0.90716
 Alpha virt. eigenvalues --    0.91669   0.91975   0.92811   0.93172   0.93299
 Alpha virt. eigenvalues --    0.93828   0.94287   0.94475   0.94568   0.95154
 Alpha virt. eigenvalues --    0.95595   0.95873   0.96387   0.97174   0.97694
 Alpha virt. eigenvalues --    0.98355   0.99549   0.99908   1.00046   1.00573
 Alpha virt. eigenvalues --    1.00805   1.00957   1.01396   1.01794   1.02655
 Alpha virt. eigenvalues --    1.03381   1.03744   1.04102   1.04437   1.04618
 Alpha virt. eigenvalues --    1.04867   1.05481   1.05743   1.06082   1.06377
 Alpha virt. eigenvalues --    1.06917   1.07601   1.07795   1.08167   1.08323
 Alpha virt. eigenvalues --    1.08764   1.09690   1.10520   1.11178   1.11437
 Alpha virt. eigenvalues --    1.11517   1.12619   1.13122   1.14201   1.14716
 Alpha virt. eigenvalues --    1.15362   1.15688   1.16639   1.17825   1.17932
 Alpha virt. eigenvalues --    1.18318   1.18549   1.19256   1.20294   1.21273
 Alpha virt. eigenvalues --    1.21806   1.22453   1.24260   1.24856   1.25776
 Alpha virt. eigenvalues --    1.26259   1.26316   1.26717   1.27154   1.27256
 Alpha virt. eigenvalues --    1.27991   1.28205   1.29290   1.29726   1.31990
 Alpha virt. eigenvalues --    1.32801   1.33523   1.33949   1.34224   1.35599
 Alpha virt. eigenvalues --    1.36295   1.36512   1.37143   1.38099   1.39995
 Alpha virt. eigenvalues --    1.40778   1.41435   1.41654   1.42642   1.42846
 Alpha virt. eigenvalues --    1.43048   1.43227   1.43656   1.43986   1.44425
 Alpha virt. eigenvalues --    1.44525   1.44845   1.45299   1.45726   1.45986
 Alpha virt. eigenvalues --    1.46452   1.46647   1.46930   1.48252   1.49916
 Alpha virt. eigenvalues --    1.50266   1.50518   1.51209   1.52062   1.52940
 Alpha virt. eigenvalues --    1.53259   1.53828   1.54273   1.54466   1.54650
 Alpha virt. eigenvalues --    1.54906   1.55271   1.55969   1.56460   1.57928
 Alpha virt. eigenvalues --    1.59066   1.59694   1.60243   1.60878   1.61788
 Alpha virt. eigenvalues --    1.61997   1.62993   1.63336   1.64026   1.64783
 Alpha virt. eigenvalues --    1.65118   1.65226   1.65883   1.66928   1.67083
 Alpha virt. eigenvalues --    1.67422   1.68406   1.69405   1.69506   1.69709
 Alpha virt. eigenvalues --    1.70200   1.70689   1.70862   1.71126   1.71839
 Alpha virt. eigenvalues --    1.73341   1.73757   1.74472   1.75023   1.75255
 Alpha virt. eigenvalues --    1.76624   1.76749   1.78192   1.78352   1.79261
 Alpha virt. eigenvalues --    1.79729   1.80935   1.81873   1.82205   1.82554
 Alpha virt. eigenvalues --    1.83685   1.84706   1.84972   1.85487   1.86218
 Alpha virt. eigenvalues --    1.86499   1.87059   1.87608   1.88328   1.89249
 Alpha virt. eigenvalues --    1.89938   1.90016   1.90625   1.91052   1.91358
 Alpha virt. eigenvalues --    1.92144   1.92950   1.93960   1.94648   1.95393
 Alpha virt. eigenvalues --    1.95590   1.96468   1.97041   1.98123   1.99067
 Alpha virt. eigenvalues --    1.99266   2.00799   2.01404   2.02189   2.02348
 Alpha virt. eigenvalues --    2.02717   2.03746   2.03991   2.04379   2.05552
 Alpha virt. eigenvalues --    2.06035   2.06611   2.07256   2.07746   2.08360
 Alpha virt. eigenvalues --    2.08977   2.10164   2.11462   2.11724   2.12119
 Alpha virt. eigenvalues --    2.12704   2.13087   2.14505   2.14936   2.15731
 Alpha virt. eigenvalues --    2.16072   2.16575   2.17243   2.18542   2.19070
 Alpha virt. eigenvalues --    2.19184   2.19994   2.20720   2.21583   2.22142
 Alpha virt. eigenvalues --    2.22940   2.25286   2.26035   2.26998   2.27987
 Alpha virt. eigenvalues --    2.31369   2.31917   2.33004   2.34156   2.36193
 Alpha virt. eigenvalues --    2.36984   2.39609   2.39892   2.41933   2.43404
 Alpha virt. eigenvalues --    2.43477   2.43777   2.45067   2.45771   2.46130
 Alpha virt. eigenvalues --    2.46815   2.46987   2.48752   2.48823   2.50226
 Alpha virt. eigenvalues --    2.50834   2.51579   2.51988   2.52376   2.52618
 Alpha virt. eigenvalues --    2.52979   2.53146   2.53635   2.55134   2.55997
 Alpha virt. eigenvalues --    2.57664   2.58033   2.58586   2.59144   2.59532
 Alpha virt. eigenvalues --    2.61142   2.62960   2.64047   2.64681   2.64972
 Alpha virt. eigenvalues --    2.66869   2.67777   2.68357   2.68709   2.68806
 Alpha virt. eigenvalues --    2.69070   2.69661   2.70035   2.71133   2.71601
 Alpha virt. eigenvalues --    2.71753   2.72450   2.73801   2.74840   2.75056
 Alpha virt. eigenvalues --    2.75528   2.76610   2.79059   2.80312   2.80593
 Alpha virt. eigenvalues --    2.81658   2.82948   2.83698   2.83849   2.84552
 Alpha virt. eigenvalues --    2.84626   2.85545   2.85663   2.86599   2.87050
 Alpha virt. eigenvalues --    2.87459   2.87838   2.87968   2.88962   2.90358
 Alpha virt. eigenvalues --    2.91746   2.92281   2.92650   2.93915   2.94394
 Alpha virt. eigenvalues --    2.94911   2.96491   2.97118   2.99384   2.99427
 Alpha virt. eigenvalues --    3.00879   3.01194   3.04211   3.04702   3.04963
 Alpha virt. eigenvalues --    3.05747   3.07061   3.08215   3.08815   3.10377
 Alpha virt. eigenvalues --    3.11009   3.13013   3.13633   3.14173   3.15603
 Alpha virt. eigenvalues --    3.16655   3.17256   3.19883   3.20799   3.22068
 Alpha virt. eigenvalues --    3.24226   3.24306   3.24750   3.25313   3.26824
 Alpha virt. eigenvalues --    3.29435   3.30306   3.31223   3.32842   3.34030
 Alpha virt. eigenvalues --    3.34589   3.34796   3.35542   3.36575   3.37114
 Alpha virt. eigenvalues --    3.38793   3.39305   3.41996   3.42726   3.44604
 Alpha virt. eigenvalues --    3.44920   3.46370   3.47035   3.48704   3.49866
 Alpha virt. eigenvalues --    3.51163   3.53982   3.56747   3.57655   3.59718
 Alpha virt. eigenvalues --    3.60387   3.61781   3.65261   3.65472   3.66493
 Alpha virt. eigenvalues --    3.69254   3.72053   3.72185   3.72865   3.77059
 Alpha virt. eigenvalues --    3.77193   3.77438   3.82097   3.82702   3.84963
 Alpha virt. eigenvalues --    3.85220   3.86015   3.89865   3.92072   3.92777
 Alpha virt. eigenvalues --    3.93351   3.93598   3.96761   4.01053   4.03569
 Alpha virt. eigenvalues --    4.04624   4.08867   4.11370   4.11885   4.15246
 Alpha virt. eigenvalues --    4.19249   4.23359   4.24703   4.27427   4.34832
 Alpha virt. eigenvalues --    4.37721   4.39815   4.50324   4.67071   4.83900
 Alpha virt. eigenvalues --    4.86403   4.87237   4.89684   5.02540   5.03310
 Alpha virt. eigenvalues --    5.03865   5.04790   5.05198   5.07352   5.10938
 Alpha virt. eigenvalues --    5.12649   5.24550   5.26334   5.28571   5.32370
 Alpha virt. eigenvalues --    5.42449   5.44199   5.75611   5.77441   5.80250
 Alpha virt. eigenvalues --    5.81090   5.81676   5.86695   8.03466   8.07540
 Alpha virt. eigenvalues --   17.30090  17.35462  17.50830  17.53706  17.58070
 Alpha virt. eigenvalues --   17.63676  23.48711  23.57058  23.73137  23.78916
 Alpha virt. eigenvalues --   23.82480  23.82743  23.83872  23.86456  23.87082
 Alpha virt. eigenvalues --   23.87851  23.88743  23.90959  23.91785  23.93327
 Alpha virt. eigenvalues --   23.94507  23.95801  23.96335  23.99701  24.01485
 Alpha virt. eigenvalues --   24.05140  24.05373  24.06152  24.11886  24.13681
 Alpha virt. eigenvalues --   24.16061  24.17228  35.55493  35.58648  49.97079
 Alpha virt. eigenvalues --   49.98089  50.01826  50.03726  50.05721  50.07285
 Alpha virt. eigenvalues --  189.20711 189.25985
          Condensed to atoms (all electrons):
 Mulliken charges:
               1
     1  C    0.388030
     2  C    0.056739
     3  C    0.219870
     4  C    0.207766
     5  C    0.264820
     6  C   -0.634874
     7  C    0.197635
     8  C   -0.037832
     9  C    0.508698
    10  C   -0.373378
    11  C    0.197818
    12  C    0.213889
    13  C   -0.523235
    14  C   -0.628084
    15  H    0.162364
    16  H    0.163362
    17  H    0.165627
    18  N   -0.167735
    19  N   -0.148043
    20  O   -0.265951
    21  O   -0.268506
    22  O   -0.267934
    23  O   -0.100773
    24  C   -0.217612
    25  H    0.179495
    26  H    0.175583
    27  H    0.183949
    28  C   -0.200864
    29  H    0.175404
    30  H    0.176335
    31  H    0.182626
    32  C    0.252513
    33  C   -0.479172
    34  S   -0.088179
    35  C   -0.100273
    36  H    0.110610
    37  C    0.179295
    38  O   -0.138644
    39  C    0.805700
    40  C   -0.228204
    41  C    0.053420
    42  S   -0.287959
    43  H    0.164370
    44  H    0.141738
    45  H    0.151622
    46  C   -0.540565
    47  O   -0.151461
    48  C   -0.327223
    49  H    0.127971
    50  C   -0.234120
    51  H    0.156021
    52  H    0.142682
    53  H    0.161962
    54  H    0.142704
 Sum of Mulliken charges =  -0.00000
 Mulliken charges with hydrogens summed into heavy atoms:
               1
     1  C    0.388030
     2  C    0.056739
     3  C    0.219870
     4  C    0.207766
     5  C    0.264820
     6  C   -0.469246
     7  C    0.197635
     8  C   -0.037832
     9  C    0.508698
    10  C   -0.373378
    11  C    0.197818
    12  C    0.213889
    13  C   -0.359873
    14  C   -0.465720
    18  N   -0.167735
    19  N   -0.148043
    20  O   -0.265951
    21  O   -0.268506
    22  O   -0.267934
    23  O   -0.100773
    24  C    0.321415
    28  C    0.333502
    32  C    0.252513
    33  C   -0.368563
    34  S   -0.088179
    35  C   -0.100273
    37  C    0.179295
    38  O   -0.138644
    39  C    0.805700
    40  C    0.229526
    41  C    0.053420
    42  S   -0.287959
    46  C   -0.412594
    47  O   -0.151461
    48  C   -0.171202
    50  C    0.213228
 Electronic spatial extent (au):  <R**2>=          22235.2653
 Charge=             -0.0000 electrons
 Dipole moment (field-independent basis, Debye):
    X=             -0.9845    Y=              0.1239    Z=              0.0552  Tot=              0.9938
 Quadrupole moment (field-independent basis, Debye-Ang):
   XX=           -221.8712   YY=           -233.8236   ZZ=           -196.5018
   XY=             -2.5383   XZ=              9.9763   YZ=              3.7247
 Traceless Quadrupole moment (field-independent basis, Debye-Ang):
   XX=             -4.4723   YY=            -16.4247   ZZ=             20.8971
   XY=             -2.5383   XZ=              9.9763   YZ=              3.7247
 Octapole moment (field-independent basis, Debye-Ang**2):
  XXX=           -251.9289  YYY=             -4.7966  ZZZ=              6.0814  XYY=            -13.0220
  XXY=            -32.7418  XXZ=            -47.8659  XZZ=            -90.8182  YZZ=             -7.7785
  YYZ=             -0.1742  XYZ=             -9.9407
 Hexadecapole moment (field-independent basis, Debye-Ang**3):
 XXXX=         -21511.6808 YYYY=          -6001.3716 ZZZZ=          -2214.6424 XXXY=            239.8203
 XXXZ=            468.0844 YYYX=           -519.4946 YYYZ=             78.0073 ZZZX=             60.3450
 ZZZY=             38.6950 XXYY=          -4786.7244 XXZZ=          -3663.1840 YYZZ=          -1402.2229
 XXYZ=             37.3469 YYXZ=             36.4139 ZZXY=              6.4409
 N-N= 4.089498844752D+03 E-N=-1.371912892272D+04  KE= 2.352044695362D+03
 Unable to Open any file for archive entry.
 1\1\GINC-CX3-5-18\FOpt\RB3LYP\6-311+G(d,p)\C26H18N2O6S2\NS5018\29-Nov-
 2020\0\\# opt=modredundant b3lyp/6-311+g(d,p)\\NDI_-95.pdb\\0,1\C,-2.6
 106420062,-3.0412981083,-0.455500781\C,-2.2712501247,-1.6072405957,-0.
 2536786256\C,-3.2931478545,-0.6562051915,-0.0457890665\C,-4.6510792825
 ,-1.0491843535,-0.0284962063\C,-5.0250853224,-2.4760252987,-0.23056383
 78\C,-0.9541724103,-1.2051138986,-0.280608516\C,-2.9420076224,0.708793
 7996,0.1389250606\C,-1.5755197767,1.1053031184,0.118467227\C,-0.577225
 6271,0.1487829311,-0.0952842328\C,-1.2494162068,2.5539198913,0.2963769
 518\C,-3.6766900685,3.0912944587,0.5240305147\C,-3.9824814196,1.649411
 3703,0.3372520174\C,-5.3049860177,1.2423596858,0.3539208303\C,-5.64299
 66697,-0.1072227577,0.1715823633\H,-6.6767619038,-0.4287582294,0.18117
 26625\H,-6.0722043833,1.9905023595,0.5083378561\H,-0.1831245,-1.947757
 315,-0.4420216854\N,-2.3251401553,3.4417607518,0.4849633433\N,-3.97035
 35277,-3.3789453273,-0.4376867809\O,-1.7652815557,-3.8991530421,-0.623
 6176815\O,-6.1835510511,-2.8462977587,-0.2200454308\O,-4.5499519321,3.
 9212456143,0.6991965464\O,-0.1184273434,2.9929613551,0.2914284116\C,-1
 .9630383141,4.8564204057,0.6614153451\H,-1.3179929381,4.9654751661,1.5
 333153644\H,-1.4190083062,5.2092050929,-0.2147839645\H,-2.8808735896,5
 .420346227,0.7932342876\C,-4.28988573,-4.8000980726,-0.6392674004\H,-3
 .8870184074,-5.1340056089,-1.5953962113\H,-3.8362550882,-5.3959260786,
 0.1531951295\H,-5.3699534894,-4.9052677047,-0.6222062641\C,0.876433649
 3,0.4373136596,-0.1384950911\C,1.6463503299,0.6777425513,-1.2424292943
 \S,1.8331464045,0.3704484473,1.3112302321\C,3.0228626009,0.8410879067,
 -0.9211665575\H,1.238125831,0.755641173,-2.2397138343\C,3.3158609454,0
 .7055530292,0.4255031747\O,4.0289040887,1.0944863279,-1.8050389996\C,4
 .6015798556,0.803954252,1.0724944547\C,3.6798241577,1.3516479681,-3.15
 97046934\C,4.891433869,0.6485824485,2.4195755758\S,6.0830351831,1.1674
 800548,0.19766651\H,4.6142474701,1.5734238029,-3.6726669449\H,3.213337
 1214,0.4754043436,-3.6227507401\H,3.0074960456,2.212442315,-3.23802073
 57\C,6.2668600758,0.8168722727,2.7456727967\O,3.883248231,0.363548691,
 3.2926508598\C,7.0237179997,1.0997780388,1.6436062875\H,6.6751833588,0
 .7323175844,3.7422529199\C,4.2188725636,0.1750389827,4.661630982\H,8.0
 87999774,1.2719671228,1.5986186469\H,4.6548994891,1.0830240489,5.09167
 17641\H,3.2836826845,-0.0516951403,5.1710761843\H,4.9134208959,-0.6623
 427672,4.7874692754\\Version=ES64L-G16RevC.01\State=1-A\HF=-2359.33419
 59\RMSD=6.499e-09\RMSF=2.225e-04\Dipole=0.3694112,0.1243963,0.0304301\
 Quadrupole=-5.8591199,-10.5868338,16.4459537,2.9942404,5.9371693,-3.79
 03242\PG=C01 [X(C26H18N2O6S2)]\\@
 The archive entry for this job was punched.


 THOSE WHO TRY TO PASS CHEMISTRY OFF AS A NEW SCIENCE
 SHOW HOW LITTLE KNOWLEDGE THEY HAVE OF THE CHARACTER
 AND LITERATURE OF THE ANCIENTS.
   -- NICOLAS LEFEVRE
 "COURS DE CHYMIE" J.-N.LELOUP, PARIS, 1751
 Job cpu time:       1 days  1 hours 59 minutes  3.9 seconds.
 Elapsed time:       0 days  3 hours 16 minutes 25.1 seconds.
 File lengths (MBytes):  RWF=    531 Int=      0 D2E=      0 Chk=     70 Scr=      1
 Normal termination of Gaussian 16 at Sun Nov 29 12:16:20 2020.
