 Entering Gaussian System, Link 0=g16
 Input=NDI_155.gjf
 Output=NDI_155.log
 Initial command:
 /apps/gaussian/g16-c01-avx/g16/l1.exe "/tmp/pbs.2625174[67].pbs/Gau-1499193.inp" -scrdir="/tmp/pbs.2625174[67].pbs/"
 Entering Link 1 = /apps/gaussian/g16-c01-avx/g16/l1.exe PID=   1499198.
  
 Copyright (c) 1988-2019, Gaussian, Inc.  All Rights Reserved.
  
 This is part of the Gaussian(R) 16 program.  It is based on
 the Gaussian(R) 09 system (copyright 2009, Gaussian, Inc.),
 the Gaussian(R) 03 system (copyright 2003, Gaussian, Inc.),
 the Gaussian(R) 98 system (copyright 1998, Gaussian, Inc.),
 the Gaussian(R) 94 system (copyright 1995, Gaussian, Inc.),
 the Gaussian 92(TM) system (copyright 1992, Gaussian, Inc.),
 the Gaussian 90(TM) system (copyright 1990, Gaussian, Inc.),
 the Gaussian 88(TM) system (copyright 1988, Gaussian, Inc.),
 the Gaussian 86(TM) system (copyright 1986, Carnegie Mellon
 University), and the Gaussian 82(TM) system (copyright 1983,
 Carnegie Mellon University). Gaussian is a federally registered
 trademark of Gaussian, Inc.
  
 This software contains proprietary and confidential information,
 including trade secrets, belonging to Gaussian, Inc.
  
 This software is provided under written license and may be
 used, copied, transmitted, or stored only in accord with that
 written license.
  
 The following legend is applicable only to US Government
 contracts under FAR:
  
                    RESTRICTED RIGHTS LEGEND
  
 Use, reproduction and disclosure by the US Government is
 subject to restrictions as set forth in subparagraphs (a)
 and (c) of the Commercial Computer Software - Restricted
 Rights clause in FAR 52.227-19.
  
 Gaussian, Inc.
 340 Quinnipiac St., Bldg. 40, Wallingford CT 06492
  
  
 ---------------------------------------------------------------
 Warning -- This program may not be used in any manner that
 competes with the business of Gaussian, Inc. or will provide
 assistance to any competitor of Gaussian, Inc.  The licensee
 of this program is prohibited from giving any competitor of
 Gaussian, Inc. access to this program.  By using this program,
 the user acknowledges that Gaussian, Inc. is engaged in the
 business of creating and licensing software in the field of
 computational chemistry and represents and warrants to the
 licensee that it is not a competitor of Gaussian, Inc. and that
 it will not use this program in any manner prohibited above.
 ---------------------------------------------------------------
  

 Cite this work as:
 Gaussian 16, Revision C.01,
 M. J. Frisch, G. W. Trucks, H. B. Schlegel, G. E. Scuseria, 
 M. A. Robb, J. R. Cheeseman, G. Scalmani, V. Barone, 
 G. A. Petersson, H. Nakatsuji, X. Li, M. Caricato, A. V. Marenich, 
 J. Bloino, B. G. Janesko, R. Gomperts, B. Mennucci, H. P. Hratchian, 
 J. V. Ortiz, A. F. Izmaylov, J. L. Sonnenberg, D. Williams-Young, 
 F. Ding, F. Lipparini, F. Egidi, J. Goings, B. Peng, A. Petrone, 
 T. Henderson, D. Ranasinghe, V. G. Zakrzewski, J. Gao, N. Rega, 
 G. Zheng, W. Liang, M. Hada, M. Ehara, K. Toyota, R. Fukuda, 
 J. Hasegawa, M. Ishida, T. Nakajima, Y. Honda, O. Kitao, H. Nakai, 
 T. Vreven, K. Throssell, J. A. Montgomery, Jr., J. E. Peralta, 
 F. Ogliaro, M. J. Bearpark, J. J. Heyd, E. N. Brothers, K. N. Kudin, 
 V. N. Staroverov, T. A. Keith, R. Kobayashi, J. Normand, 
 K. Raghavachari, A. P. Rendell, J. C. Burant, S. S. Iyengar, 
 J. Tomasi, M. Cossi, J. M. Millam, M. Klene, C. Adamo, R. Cammi, 
 J. W. Ochterski, R. L. Martin, K. Morokuma, O. Farkas, 
 J. B. Foresman, and D. J. Fox, Gaussian, Inc., Wallingford CT, 2019.
 
 ******************************************
 Gaussian 16:  ES64L-G16RevC.01  3-Jul-2019
                29-Nov-2020 
 ******************************************
 %mem=10GB
 %nprocshared=8
 Will use up to    8 processors via shared memory.
 -------------------------------------
 # opt=modredundant b3lyp/6-311+g(d,p)
 -------------------------------------
 1/18=120,19=15,26=3,38=1/1,3;
 2/9=110,12=2,17=6,18=5,40=1/2;
 3/5=4,6=6,7=111,11=2,25=1,30=1,71=1,74=-5/1,2,3;
 4//1;
 5/5=2,38=5/2;
 6/7=2,8=2,9=2,10=2,28=1/1;
 7//1,2,3,16;
 1/18=20,19=15,26=3/3(2);
 2/9=110/2;
 99//99;
 2/9=110/2;
 3/5=4,6=6,7=111,11=2,25=1,30=1,71=1,74=-5/1,2,3;
 4/5=5,16=3,69=1/1;
 5/5=2,38=5/2;
 7//1,2,3,16;
 1/18=20,19=15,26=3/3(-5);
 2/9=110/2;
 6/7=2,8=2,9=2,10=2,19=2,28=1/1;
 99/9=1/99;
 -----------
 NDI_155.pdb
 -----------
 Symbolic Z-matrix:
 Charge =  0 Multiplicity = 1
 C                    -2.563    -2.994    -0.409 
 C                    -2.257    -1.551    -0.224 
 C                    -3.301    -0.607    -0.083 
 C                    -4.65     -1.024    -0.115 
 C                    -4.992    -2.459    -0.304 
 C                    -0.949    -1.137    -0.215 
 C                    -2.962     0.764     0.102 
 C                    -1.595     1.188     0.123 
 C                    -0.561     0.232    -0.072 
 C                    -1.328     2.616     0.446 
 C                    -3.777     3.115     0.508 
 C                    -4.035     1.679     0.268 
 C                    -5.356     1.252     0.23 
 C                    -5.672    -0.098     0.036 
 H                    -6.699    -0.442     0.008 
 H                    -6.133     1.997     0.361 
 H                    -0.19     -1.895    -0.369 
 N                    -2.432     3.476     0.608 
 N                    -3.916    -3.353    -0.438 
 O                    -1.695    -3.847    -0.532 
 O                    -6.149    -2.85     -0.34 
 O                    -4.676     3.938     0.629 
 O                    -0.212     3.097     0.596 
 C                    -2.111     4.875     0.912 
 H                    -1.54      4.931     1.84 
 H                    -1.5       5.299     0.111 
 H                    -3.05      5.414     1.003 
 C                    -4.206    -4.779    -0.625 
 H                    -3.759    -5.126    -1.559 
 H                    -3.775    -5.355     0.196 
 H                    -5.286    -4.897    -0.649 
 C                     0.876     0.482    -0.178 
 C                     1.958    -0.337     0.083 
 S                     1.429     2.114    -0.555 
 C                     3.199     0.321    -0.021 
 H                     1.853    -1.38      0.332 
 C                     3.111     1.671    -0.373 
 O                     4.426    -0.229     0.184 
 C                     4.189     2.592    -0.597 
 C                     4.487    -1.637     0.4 
 C                     4.099     3.944    -0.925 
 S                     5.886     2.131    -0.486 
 H                     5.547    -1.885     0.46 
 H                     3.996    -1.916     1.34 
 H                     4.025    -2.185    -0.429 
 C                     5.357     4.591    -1.083 
 O                     2.873     4.512    -1.066 
 C                     6.403     3.732    -0.875 
 H                     5.481     5.635    -1.336 
 C                     2.812     5.902    -1.367 
 H                     7.459     3.957    -0.928 
 H                     3.288     6.122    -2.331 
 H                     1.753     6.152    -1.421 
 H                     3.289     6.5      -0.581 
 
 The following ModRedundant input section has been read:
 D       8       9      32      33 F                                           
 D      33      35      38      40 F                                           
 D      46      41      47      50 F                                           
 D      10      18      24      25 F                                           
 D       1      19      28      30 F                                           
 D       9       8      10      23 F                                           
 D      20       1       2       6 F                                           
 

 GradGradGradGradGradGradGradGradGradGradGradGradGradGradGradGradGradGrad
 Berny optimization.
 Initialization pass.
                           ----------------------------
                           !    Initial Parameters    !
                           ! (Angstroms and Degrees)  !
 --------------------------                            --------------------------
 ! Name  Definition              Value          Derivative Info.                !
 --------------------------------------------------------------------------------
 ! R1    R(1,2)                  1.4866         estimate D2E/DX2                !
 ! R2    R(1,19)                 1.4001         estimate D2E/DX2                !
 ! R3    R(1,20)                 1.2232         estimate D2E/DX2                !
 ! R4    R(2,3)                  1.4146         estimate D2E/DX2                !
 ! R5    R(2,6)                  1.372          estimate D2E/DX2                !
 ! R6    R(3,4)                  1.4123         estimate D2E/DX2                !
 ! R7    R(3,7)                  1.4244         estimate D2E/DX2                !
 ! R8    R(4,5)                  1.4872         estimate D2E/DX2                !
 ! R9    R(4,14)                 1.3874         estimate D2E/DX2                !
 ! R10   R(5,19)                 1.4053         estimate D2E/DX2                !
 ! R11   R(5,21)                 1.2218         estimate D2E/DX2                !
 ! R12   R(6,9)                  1.4301         estimate D2E/DX2                !
 ! R13   R(6,17)                 1.0837         estimate D2E/DX2                !
 ! R14   R(7,8)                  1.4314         estimate D2E/DX2                !
 ! R15   R(7,12)                 1.4199         estimate D2E/DX2                !
 ! R16   R(8,9)                  1.4217         estimate D2E/DX2                !
 ! R17   R(8,10)                 1.4882         estimate D2E/DX2                !
 ! R18   R(9,32)                 1.4624         estimate D2E/DX2                !
 ! R19   R(10,18)                1.4088         estimate D2E/DX2                !
 ! R20   R(10,23)                1.2245         estimate D2E/DX2                !
 ! R21   R(11,12)                1.4786         estimate D2E/DX2                !
 ! R22   R(11,18)                1.3962         estimate D2E/DX2                !
 ! R23   R(11,22)                1.2248         estimate D2E/DX2                !
 ! R24   R(12,13)                1.3888         estimate D2E/DX2                !
 ! R25   R(13,14)                1.4            estimate D2E/DX2                !
 ! R26   R(13,16)                1.0844         estimate D2E/DX2                !
 ! R27   R(14,15)                1.0834         estimate D2E/DX2                !
 ! R28   R(18,24)                1.4672         estimate D2E/DX2                !
 ! R29   R(19,28)                1.4672         estimate D2E/DX2                !
 ! R30   R(24,25)                1.091          estimate D2E/DX2                !
 ! R31   R(24,26)                1.093          estimate D2E/DX2                !
 ! R32   R(24,27)                1.0865         estimate D2E/DX2                !
 ! R33   R(28,29)                1.0921         estimate D2E/DX2                !
 ! R34   R(28,30)                1.0916         estimate D2E/DX2                !
 ! R35   R(28,31)                1.0867         estimate D2E/DX2                !
 ! R36   R(32,33)                1.3819         estimate D2E/DX2                !
 ! R37   R(32,34)                1.7639         estimate D2E/DX2                !
 ! R38   R(33,35)                1.4085         estimate D2E/DX2                !
 ! R39   R(33,36)                1.0774         estimate D2E/DX2                !
 ! R40   R(34,37)                1.7489         estimate D2E/DX2                !
 ! R41   R(35,37)                1.3979         estimate D2E/DX2                !
 ! R42   R(35,38)                1.3602         estimate D2E/DX2                !
 ! R43   R(37,39)                1.4354         estimate D2E/DX2                !
 ! R44   R(38,40)                1.4258         estimate D2E/DX2                !
 ! R45   R(39,41)                1.3941         estimate D2E/DX2                !
 ! R46   R(39,42)                1.762          estimate D2E/DX2                !
 ! R47   R(40,43)                1.0903         estimate D2E/DX2                !
 ! R48   R(40,44)                1.0966         estimate D2E/DX2                !
 ! R49   R(40,45)                1.0959         estimate D2E/DX2                !
 ! R50   R(41,46)                1.4234         estimate D2E/DX2                !
 ! R51   R(41,47)                1.3585         estimate D2E/DX2                !
 ! R52   R(42,48)                1.7268         estimate D2E/DX2                !
 ! R53   R(46,48)                1.3694         estimate D2E/DX2                !
 ! R54   R(46,49)                1.0814         estimate D2E/DX2                !
 ! R55   R(47,50)                1.4235         estimate D2E/DX2                !
 ! R56   R(48,51)                1.081          estimate D2E/DX2                !
 ! R57   R(50,52)                1.0974         estimate D2E/DX2                !
 ! R58   R(50,53)                1.0894         estimate D2E/DX2                !
 ! R59   R(50,54)                1.0968         estimate D2E/DX2                !
 ! A1    A(2,1,19)             116.767          estimate D2E/DX2                !
 ! A2    A(2,1,20)             122.9113         estimate D2E/DX2                !
 ! A3    A(19,1,20)            120.3217         estimate D2E/DX2                !
 ! A4    A(1,2,3)              120.5473         estimate D2E/DX2                !
 ! A5    A(1,2,6)              119.3369         estimate D2E/DX2                !
 ! A6    A(3,2,6)              120.1056         estimate D2E/DX2                !
 ! A7    A(2,3,4)              120.3743         estimate D2E/DX2                !
 ! A8    A(2,3,7)              118.662          estimate D2E/DX2                !
 ! A9    A(4,3,7)              120.9617         estimate D2E/DX2                !
 ! A10   A(3,4,5)              120.4909         estimate D2E/DX2                !
 ! A11   A(3,4,14)             120.2702         estimate D2E/DX2                !
 ! A12   A(5,4,14)             119.2382         estimate D2E/DX2                !
 ! A13   A(4,5,19)             116.7341         estimate D2E/DX2                !
 ! A14   A(4,5,21)             122.024          estimate D2E/DX2                !
 ! A15   A(19,5,21)            121.2418         estimate D2E/DX2                !
 ! A16   A(2,6,9)              123.2421         estimate D2E/DX2                !
 ! A17   A(2,6,17)             117.1119         estimate D2E/DX2                !
 ! A18   A(9,6,17)             119.589          estimate D2E/DX2                !
 ! A19   A(3,7,8)              120.9519         estimate D2E/DX2                !
 ! A20   A(3,7,12)             117.1037         estimate D2E/DX2                !
 ! A21   A(8,7,12)             121.944          estimate D2E/DX2                !
 ! A22   A(7,8,9)              119.5639         estimate D2E/DX2                !
 ! A23   A(7,8,10)             117.3064         estimate D2E/DX2                !
 ! A24   A(9,8,10)             122.9922         estimate D2E/DX2                !
 ! A25   A(6,9,8)              117.3944         estimate D2E/DX2                !
 ! A26   A(6,9,32)             115.0236         estimate D2E/DX2                !
 ! A27   A(8,9,32)             127.5648         estimate D2E/DX2                !
 ! A28   A(8,10,18)            118.042          estimate D2E/DX2                !
 ! A29   A(8,10,23)            124.5436         estimate D2E/DX2                !
 ! A30   A(18,10,23)           117.4097         estimate D2E/DX2                !
 ! A31   A(12,11,18)           115.5202         estimate D2E/DX2                !
 ! A32   A(12,11,22)           122.7205         estimate D2E/DX2                !
 ! A33   A(18,11,22)           121.7534         estimate D2E/DX2                !
 ! A34   A(7,12,11)            120.8614         estimate D2E/DX2                !
 ! A35   A(7,12,13)            121.162          estimate D2E/DX2                !
 ! A36   A(11,12,13)           117.9699         estimate D2E/DX2                !
 ! A37   A(12,13,14)           120.9948         estimate D2E/DX2                !
 ! A38   A(12,13,16)           117.8401         estimate D2E/DX2                !
 ! A39   A(14,13,16)           121.1642         estimate D2E/DX2                !
 ! A40   A(4,14,13)            119.5003         estimate D2E/DX2                !
 ! A41   A(4,14,15)            118.9169         estimate D2E/DX2                !
 ! A42   A(13,14,15)           121.5811         estimate D2E/DX2                !
 ! A43   A(10,18,11)           126.0753         estimate D2E/DX2                !
 ! A44   A(10,18,24)           115.7508         estimate D2E/DX2                !
 ! A45   A(11,18,24)           118.1737         estimate D2E/DX2                !
 ! A46   A(1,19,5)             125.0856         estimate D2E/DX2                !
 ! A47   A(1,19,28)            116.2868         estimate D2E/DX2                !
 ! A48   A(5,19,28)            118.6276         estimate D2E/DX2                !
 ! A49   A(18,24,25)           109.8574         estimate D2E/DX2                !
 ! A50   A(18,24,26)           109.8979         estimate D2E/DX2                !
 ! A51   A(18,24,27)           107.5355         estimate D2E/DX2                !
 ! A52   A(25,24,26)           108.1108         estimate D2E/DX2                !
 ! A53   A(25,24,27)           110.8301         estimate D2E/DX2                !
 ! A54   A(26,24,27)           110.6124         estimate D2E/DX2                !
 ! A55   A(19,28,29)           109.6906         estimate D2E/DX2                !
 ! A56   A(19,28,30)           109.8136         estimate D2E/DX2                !
 ! A57   A(19,28,31)           107.7461         estimate D2E/DX2                !
 ! A58   A(29,28,30)           108.2991         estimate D2E/DX2                !
 ! A59   A(29,28,31)           110.6959         estimate D2E/DX2                !
 ! A60   A(30,28,31)           110.5924         estimate D2E/DX2                !
 ! A61   A(9,32,33)            130.8717         estimate D2E/DX2                !
 ! A62   A(9,32,34)            118.7974         estimate D2E/DX2                !
 ! A63   A(33,32,34)           110.0746         estimate D2E/DX2                !
 ! A64   A(32,33,35)           113.5192         estimate D2E/DX2                !
 ! A65   A(32,33,36)           122.7564         estimate D2E/DX2                !
 ! A66   A(35,33,36)           123.7218         estimate D2E/DX2                !
 ! A67   A(32,34,37)            92.5743         estimate D2E/DX2                !
 ! A68   A(33,35,37)           114.4741         estimate D2E/DX2                !
 ! A69   A(33,35,38)           126.4975         estimate D2E/DX2                !
 ! A70   A(37,35,38)           119.0284         estimate D2E/DX2                !
 ! A71   A(34,37,35)           109.3524         estimate D2E/DX2                !
 ! A72   A(34,37,39)           122.923          estimate D2E/DX2                !
 ! A73   A(35,37,39)           127.7084         estimate D2E/DX2                !
 ! A74   A(35,38,40)           117.4354         estimate D2E/DX2                !
 ! A75   A(37,39,41)           127.6227         estimate D2E/DX2                !
 ! A76   A(37,39,42)           123.0646         estimate D2E/DX2                !
 ! A77   A(41,39,42)           109.3128         estimate D2E/DX2                !
 ! A78   A(38,40,43)           105.9359         estimate D2E/DX2                !
 ! A79   A(38,40,44)           111.2205         estimate D2E/DX2                !
 ! A80   A(38,40,45)           111.1724         estimate D2E/DX2                !
 ! A81   A(43,40,44)           109.2851         estimate D2E/DX2                !
 ! A82   A(43,40,45)           109.7399         estimate D2E/DX2                !
 ! A83   A(44,40,45)           109.4177         estimate D2E/DX2                !
 ! A84   A(39,41,46)           114.1963         estimate D2E/DX2                !
 ! A85   A(39,41,47)           119.2188         estimate D2E/DX2                !
 ! A86   A(46,41,47)           126.5846         estimate D2E/DX2                !
 ! A87   A(39,42,48)            91.8101         estimate D2E/DX2                !
 ! A88   A(41,46,48)           111.906          estimate D2E/DX2                !
 ! A89   A(41,46,49)           124.4823         estimate D2E/DX2                !
 ! A90   A(48,46,49)           123.6117         estimate D2E/DX2                !
 ! A91   A(41,47,50)           117.9611         estimate D2E/DX2                !
 ! A92   A(42,48,46)           112.7748         estimate D2E/DX2                !
 ! A93   A(42,48,51)           119.7684         estimate D2E/DX2                !
 ! A94   A(46,48,51)           127.4566         estimate D2E/DX2                !
 ! A95   A(47,50,52)           111.2791         estimate D2E/DX2                !
 ! A96   A(47,50,53)           106.0338         estimate D2E/DX2                !
 ! A97   A(47,50,54)           111.2368         estimate D2E/DX2                !
 ! A98   A(52,50,53)           109.3955         estimate D2E/DX2                !
 ! A99   A(52,50,54)           109.3648         estimate D2E/DX2                !
 ! A100  A(53,50,54)           109.4606         estimate D2E/DX2                !
 ! D1    D(19,1,2,3)             0.1578         estimate D2E/DX2                !
 ! D2    D(19,1,2,6)          -178.6792         estimate D2E/DX2                !
 ! D3    D(20,1,2,3)          -179.8231         estimate D2E/DX2                !
 ! D4    D(20,1,2,6)             1.3399         Frozen                          !
 ! D5    D(2,1,19,5)            -0.124          estimate D2E/DX2                !
 ! D6    D(2,1,19,28)          179.8267         estimate D2E/DX2                !
 ! D7    D(20,1,19,5)          179.8575         estimate D2E/DX2                !
 ! D8    D(20,1,19,28)          -0.1919         estimate D2E/DX2                !
 ! D9    D(1,2,3,4)              0.0571         estimate D2E/DX2                !
 ! D10   D(1,2,3,7)            179.5453         estimate D2E/DX2                !
 ! D11   D(6,2,3,4)            178.8851         estimate D2E/DX2                !
 ! D12   D(6,2,3,7)             -1.6266         estimate D2E/DX2                !
 ! D13   D(1,2,6,9)            178.625          estimate D2E/DX2                !
 ! D14   D(1,2,6,17)             1.3881         estimate D2E/DX2                !
 ! D15   D(3,2,6,9)             -0.2173         estimate D2E/DX2                !
 ! D16   D(3,2,6,17)          -177.4541         estimate D2E/DX2                !
 ! D17   D(2,3,4,5)             -0.3074         estimate D2E/DX2                !
 ! D18   D(2,3,4,14)           179.3968         estimate D2E/DX2                !
 ! D19   D(7,3,4,5)           -179.7837         estimate D2E/DX2                !
 ! D20   D(7,3,4,14)            -0.0795         estimate D2E/DX2                !
 ! D21   D(2,3,7,8)              1.0523         estimate D2E/DX2                !
 ! D22   D(2,3,7,12)          -178.712          estimate D2E/DX2                !
 ! D23   D(4,3,7,8)           -179.4626         estimate D2E/DX2                !
 ! D24   D(4,3,7,12)             0.7731         estimate D2E/DX2                !
 ! D25   D(3,4,5,19)             0.3343         estimate D2E/DX2                !
 ! D26   D(3,4,5,21)          -179.7799         estimate D2E/DX2                !
 ! D27   D(14,4,5,19)         -179.3729         estimate D2E/DX2                !
 ! D28   D(14,4,5,21)            0.5129         estimate D2E/DX2                !
 ! D29   D(3,4,14,13)           -0.4559         estimate D2E/DX2                !
 ! D30   D(3,4,14,15)         -179.9937         estimate D2E/DX2                !
 ! D31   D(5,4,14,13)          179.252          estimate D2E/DX2                !
 ! D32   D(5,4,14,15)           -0.2858         estimate D2E/DX2                !
 ! D33   D(4,5,19,1)            -0.1141         estimate D2E/DX2                !
 ! D34   D(4,5,19,28)          179.9364         estimate D2E/DX2                !
 ! D35   D(21,5,19,1)          179.9992         estimate D2E/DX2                !
 ! D36   D(21,5,19,28)           0.0496         estimate D2E/DX2                !
 ! D37   D(2,6,9,8)              2.5984         estimate D2E/DX2                !
 ! D38   D(2,6,9,32)          -176.0103         estimate D2E/DX2                !
 ! D39   D(17,6,9,8)           179.77           estimate D2E/DX2                !
 ! D40   D(17,6,9,32)            1.1613         estimate D2E/DX2                !
 ! D41   D(3,7,8,9)              1.3551         estimate D2E/DX2                !
 ! D42   D(3,7,8,10)          -174.5099         estimate D2E/DX2                !
 ! D43   D(12,7,8,9)          -178.8921         estimate D2E/DX2                !
 ! D44   D(12,7,8,10)            5.2428         estimate D2E/DX2                !
 ! D45   D(3,7,12,11)          178.0768         estimate D2E/DX2                !
 ! D46   D(3,7,12,13)           -0.9621         estimate D2E/DX2                !
 ! D47   D(8,7,12,11)           -1.685          estimate D2E/DX2                !
 ! D48   D(8,7,12,13)          179.2761         estimate D2E/DX2                !
 ! D49   D(7,8,9,6)             -3.0809         estimate D2E/DX2                !
 ! D50   D(7,8,9,32)           175.3285         estimate D2E/DX2                !
 ! D51   D(10,8,9,6)           172.5381         estimate D2E/DX2                !
 ! D52   D(10,8,9,32)           -9.0525         estimate D2E/DX2                !
 ! D53   D(7,8,10,18)           -4.7549         estimate D2E/DX2                !
 ! D54   D(7,8,10,23)          174.4235         estimate D2E/DX2                !
 ! D55   D(9,8,10,18)          179.5335         estimate D2E/DX2                !
 ! D56   D(9,8,10,23)           -1.2882         Frozen                          !
 ! D57   D(6,9,32,33)          -26.5717         estimate D2E/DX2                !
 ! D58   D(6,9,32,34)          159.8824         estimate D2E/DX2                !
 ! D59   D(8,9,32,33)          154.9868         Frozen                          !
 ! D60   D(8,9,32,34)          -18.5591         estimate D2E/DX2                !
 ! D61   D(8,10,18,11)           0.7189         estimate D2E/DX2                !
 ! D62   D(8,10,18,24)        -179.4089         estimate D2E/DX2                !
 ! D63   D(23,10,18,11)       -178.5188         estimate D2E/DX2                !
 ! D64   D(23,10,18,24)          1.3535         estimate D2E/DX2                !
 ! D65   D(18,11,12,7)          -2.3856         estimate D2E/DX2                !
 ! D66   D(18,11,12,13)        176.6833         estimate D2E/DX2                !
 ! D67   D(22,11,12,7)         178.4862         estimate D2E/DX2                !
 ! D68   D(22,11,12,13)         -2.445          estimate D2E/DX2                !
 ! D69   D(12,11,18,10)          2.8444         estimate D2E/DX2                !
 ! D70   D(12,11,18,24)       -177.0251         estimate D2E/DX2                !
 ! D71   D(22,11,18,10)       -178.0181         estimate D2E/DX2                !
 ! D72   D(22,11,18,24)          2.1124         estimate D2E/DX2                !
 ! D73   D(7,12,13,14)           0.461          estimate D2E/DX2                !
 ! D74   D(7,12,13,16)        -179.8781         estimate D2E/DX2                !
 ! D75   D(11,12,13,14)       -178.6049         estimate D2E/DX2                !
 ! D76   D(11,12,13,16)          1.056          estimate D2E/DX2                !
 ! D77   D(12,13,14,4)           0.2708         estimate D2E/DX2                !
 ! D78   D(12,13,14,15)        179.7958         estimate D2E/DX2                !
 ! D79   D(16,13,14,4)        -179.3788         estimate D2E/DX2                !
 ! D80   D(16,13,14,15)          0.1463         estimate D2E/DX2                !
 ! D81   D(10,18,24,25)        -59.609          Frozen                          !
 ! D82   D(10,18,24,26)         59.2209         estimate D2E/DX2                !
 ! D83   D(10,18,24,27)        179.6858         estimate D2E/DX2                !
 ! D84   D(11,18,24,25)        120.2739         estimate D2E/DX2                !
 ! D85   D(11,18,24,26)       -120.8962         estimate D2E/DX2                !
 ! D86   D(11,18,24,27)         -0.4313         estimate D2E/DX2                !
 ! D87   D(1,19,28,29)         -58.1407         estimate D2E/DX2                !
 ! D88   D(1,19,28,30)          60.7668         Frozen                          !
 ! D89   D(1,19,28,31)        -178.7139         estimate D2E/DX2                !
 ! D90   D(5,19,28,29)         121.8132         estimate D2E/DX2                !
 ! D91   D(5,19,28,30)        -119.2792         estimate D2E/DX2                !
 ! D92   D(5,19,28,31)           1.2401         estimate D2E/DX2                !
 ! D93   D(9,32,33,35)        -174.228          estimate D2E/DX2                !
 ! D94   D(9,32,33,36)           6.3301         estimate D2E/DX2                !
 ! D95   D(34,32,33,35)         -0.2481         estimate D2E/DX2                !
 ! D96   D(34,32,33,36)       -179.69           estimate D2E/DX2                !
 ! D97   D(9,32,34,37)         175.3514         estimate D2E/DX2                !
 ! D98   D(33,32,34,37)          0.5436         estimate D2E/DX2                !
 ! D99   D(32,33,35,37)         -0.2921         estimate D2E/DX2                !
 ! D100  D(32,33,35,38)        179.7633         estimate D2E/DX2                !
 ! D101  D(36,33,35,37)        179.1436         estimate D2E/DX2                !
 ! D102  D(36,33,35,38)         -0.801          estimate D2E/DX2                !
 ! D103  D(32,34,37,35)         -0.6924         estimate D2E/DX2                !
 ! D104  D(32,34,37,39)        177.9442         estimate D2E/DX2                !
 ! D105  D(33,35,37,34)          0.6887         estimate D2E/DX2                !
 ! D106  D(33,35,37,39)       -177.8646         estimate D2E/DX2                !
 ! D107  D(38,35,37,34)       -179.3622         estimate D2E/DX2                !
 ! D108  D(38,35,37,39)          2.0844         estimate D2E/DX2                !
 ! D109  D(33,35,38,40)          6.5052         Frozen                          !
 ! D110  D(37,35,38,40)       -173.4371         estimate D2E/DX2                !
 ! D111  D(34,37,39,41)          2.8589         estimate D2E/DX2                !
 ! D112  D(34,37,39,42)       -177.1404         estimate D2E/DX2                !
 ! D113  D(35,37,39,41)       -178.7672         estimate D2E/DX2                !
 ! D114  D(35,37,39,42)          1.2335         estimate D2E/DX2                !
 ! D115  D(35,38,40,43)        175.5179         estimate D2E/DX2                !
 ! D116  D(35,38,40,44)        -65.841          estimate D2E/DX2                !
 ! D117  D(35,38,40,45)         56.3566         estimate D2E/DX2                !
 ! D118  D(37,39,41,46)       -179.9831         estimate D2E/DX2                !
 ! D119  D(37,39,41,47)         -0.1779         estimate D2E/DX2                !
 ! D120  D(42,39,41,46)          0.0163         estimate D2E/DX2                !
 ! D121  D(42,39,41,47)        179.8215         estimate D2E/DX2                !
 ! D122  D(37,39,42,48)        179.9905         estimate D2E/DX2                !
 ! D123  D(41,39,42,48)         -0.0089         estimate D2E/DX2                !
 ! D124  D(39,41,46,48)         -0.0171         estimate D2E/DX2                !
 ! D125  D(39,41,46,49)       -179.973          estimate D2E/DX2                !
 ! D126  D(47,41,46,48)       -179.8055         estimate D2E/DX2                !
 ! D127  D(47,41,46,49)          0.2387         estimate D2E/DX2                !
 ! D128  D(39,41,47,50)        178.3996         estimate D2E/DX2                !
 ! D129  D(46,41,47,50)         -1.8216         Frozen                          !
 ! D130  D(39,42,48,46)         -0.0005         estimate D2E/DX2                !
 ! D131  D(39,42,48,51)        179.869          estimate D2E/DX2                !
 ! D132  D(41,46,48,42)          0.0097         estimate D2E/DX2                !
 ! D133  D(41,46,48,51)       -179.8476         estimate D2E/DX2                !
 ! D134  D(49,46,48,42)        179.9661         estimate D2E/DX2                !
 ! D135  D(49,46,48,51)          0.1088         estimate D2E/DX2                !
 ! D136  D(41,47,50,52)         61.9833         estimate D2E/DX2                !
 ! D137  D(41,47,50,53)       -179.1526         estimate D2E/DX2                !
 ! D138  D(41,47,50,54)        -60.2331         estimate D2E/DX2                !
 --------------------------------------------------------------------------------
 Trust Radius=3.00D-01 FncErr=1.00D-07 GrdErr=1.00D-06 EigMax=2.50D+02 EigMin=1.00D-04
 Number of steps in this run=    307 maximum allowed number of steps=    324.
 GradGradGradGradGradGradGradGradGradGradGradGradGradGradGradGradGradGrad

 Stoichiometry    C26H18N2O6S2
 Framework group  C1[X(C26H18N2O6S2)]
 Deg. of freedom   156
 Full point group                 C1      NOp   1
 Largest Abelian subgroup         C1      NOp   1
 Largest concise Abelian subgroup C1      NOp   1
                         Standard orientation:                         
 ---------------------------------------------------------------------
 Center     Atomic      Atomic             Coordinates (Angstroms)
 Number     Number       Type             X           Y           Z
 ---------------------------------------------------------------------
      1          6           0       -3.858819   -2.548844   -0.247990
      2          6           0       -2.963018   -1.372351   -0.094643
      3          6           0       -3.495685   -0.062281   -0.064065
      4          6           0       -4.888044    0.145349   -0.177817
      5          6           0       -5.812499   -1.008610   -0.338039
      6          6           0       -1.607678   -1.566396   -0.006659
      7          6           0       -2.601670    1.035189    0.094309
      8          6           0       -1.189547    0.825342    0.198138
      9          6           0       -0.668465   -0.494666    0.113457
     10          6           0       -0.342068    2.014152    0.486774
     11          6           0       -2.327331    3.527917    0.353749
     12          6           0       -3.174270    2.333369    0.148784
     13          6           0       -4.545547    2.519490    0.031436
     14          6           0       -5.409294    1.430351   -0.135024
     15          1           0       -6.480710    1.564332   -0.224274
     16          1           0       -4.924738    3.534332    0.078609
     17          1           0       -1.249210   -2.586608   -0.077575
     18          7           0       -0.966332    3.276066    0.537051
     19          7           0       -5.229599   -2.287149   -0.361175
     20          8           0       -3.445416   -3.699686   -0.276658
     21          8           0       -7.020828   -0.861063   -0.442901
     22          8           0       -2.781582    4.665095    0.379294
     23          8           0        0.863151    1.972629    0.698996
     24          6           0       -0.082074    4.414183    0.811708
     25          1           0        0.410022    4.276963    1.775748
     26          1           0        0.691028    4.478898    0.041758
     27          1           0       -0.694774    5.311463    0.814919
     28          6           0       -6.103507   -3.455422   -0.515988
     29          1           0       -5.807819   -4.021296   -1.401950
     30          1           0       -6.007855   -4.107002    0.354570
     31          1           0       -7.124072   -3.095058   -0.613386
     32          6           0        0.736784   -0.899452    0.102147
     33          6           0        1.338528   -2.087689    0.470389
     34         16           0        1.964427    0.303654   -0.293820
     35          6           0        2.745713   -2.040652    0.431938
     36          1           0        0.776724   -2.963710    0.749384
     37          6           0        3.273184   -0.811674    0.025078
     38          8           0        3.597885   -3.053521    0.744914
     39          6           0        4.654609   -0.465329   -0.154401
     40          6           0        3.027479   -4.331711    1.016408
     41          6           0        5.179984    0.767862   -0.537558
     42         16           0        5.972450   -1.607918    0.095473
     43          1           0        3.868543   -5.010094    1.161714
     44          1           0        2.418692   -4.309113    1.928214
     45          1           0        2.413689   -4.677609    0.177001
     46          6           0        6.600276    0.794160   -0.628202
     47          8           0        4.333443    1.800607   -0.787333
     48          6           0        7.154805   -0.417854   -0.313908
     49          1           0        7.179780    1.662589   -0.909852
     50          6           0        4.900141    3.057133   -1.142887
     51          1           0        8.204280   -0.676599   -0.298924
     52          1           0        5.470869    2.986449   -2.077524
     53          1           0        4.060557    3.737267   -1.282214
     54          1           0        5.551334    3.438704   -0.347097
 ---------------------------------------------------------------------
 Rotational constants (GHZ):           0.1740716           0.0582484           0.0445943
 Standard basis: 6-311+G(d,p) (5D, 7F)
 There are   952 symmetry adapted cartesian basis functions of A   symmetry.
 There are   916 symmetry adapted basis functions of A   symmetry.
   916 basis functions,  1468 primitive gaussians,   952 cartesian basis functions
   134 alpha electrons      134 beta electrons
       nuclear repulsion energy      4123.9850838123 Hartrees.
 NAtoms=   54 NActive=   54 NUniq=   54 SFac= 1.00D+00 NAtFMM=   60 NAOKFM=F Big=F
 Integral buffers will be    131072 words long.
 Raffenetti 2 integral format.
 Two-electron integral symmetry is turned on.
 One-electron integrals computed using PRISM.
 NBasis=   916 RedAO= T EigKep=  1.30D-06  NBF=   916
 NBsUse=   901 1.00D-06 EigRej=  7.91D-07 NBFU=   901
 ExpMin= 4.05D-02 ExpMax= 9.34D+04 ExpMxC= 3.17D+03 IAcc=3 IRadAn=         5 AccDes= 0.00D+00
 Harris functional with IExCor=  402 and IRadAn=       5 diagonalized for initial guess.
 HarFok:  IExCor=  402 AccDes= 0.00D+00 IRadAn=         5 IDoV= 1 UseB2=F ITyADJ=14
 ICtDFT=  3500011 ScaDFX=  1.000000  1.000000  1.000000  1.000000
 FoFCou: FMM=F IPFlag=           0 FMFlag=      100000 FMFlg1=           0
         NFxFlg=           0 DoJE=T BraDBF=F KetDBF=T FulRan=T
         wScrn=  0.000000 ICntrl=       500 IOpCl=  0 I1Cent=   200000004 NGrid=           0
         NMat0=    1 NMatS0=      1 NMatT0=    0 NMatD0=    1 NMtDS0=    0 NMtDT0=    0
 Petite list used in FoFCou.
 Requested convergence on RMS density matrix=1.00D-08 within 128 cycles.
 Requested convergence on MAX density matrix=1.00D-06.
 Requested convergence on             energy=1.00D-06.
 No special actions if energy rises.
 SCF Done:  E(RB3LYP) =  -2359.30885998     A.U. after   18 cycles
            NFock= 18  Conv=0.37D-08     -V/T= 2.0031

 **********************************************************************

            Population analysis using the SCF Density.

 **********************************************************************

 Orbital symmetries:
       Occupied  (A) (A) (A) (A) (A) (A) (A) (A) (A) (A) (A) (A)
                 (A) (A) (A) (A) (A) (A) (A) (A) (A) (A) (A) (A)
                 (A) (A) (A) (A) (A) (A) (A) (A) (A) (A) (A) (A)
                 (A) (A) (A) (A) (A) (A) (A) (A) (A) (A) (A) (A)
                 (A) (A) (A) (A) (A) (A) (A) (A) (A) (A) (A) (A)
                 (A) (A) (A) (A) (A) (A) (A) (A) (A) (A) (A) (A)
                 (A) (A) (A) (A) (A) (A) (A) (A) (A) (A) (A) (A)
                 (A) (A) (A) (A) (A) (A) (A) (A) (A) (A) (A) (A)
                 (A) (A) (A) (A) (A) (A) (A) (A) (A) (A) (A) (A)
                 (A) (A) (A) (A) (A) (A) (A) (A) (A) (A) (A) (A)
                 (A) (A) (A) (A) (A) (A) (A) (A) (A) (A) (A) (A)
                 (A) (A)
       Virtual   (A) (A) (A) (A) (A) (A) (A) (A) (A) (A) (A) (A)
                 (A) (A) (A) (A) (A) (A) (A) (A) (A) (A) (A) (A)
                 (A) (A) (A) (A) (A) (A) (A) (A) (A) (A) (A) (A)
                 (A) (A) (A) (A) (A) (A) (A) (A) (A) (A) (A) (A)
                 (A) (A) (A) (A) (A) (A) (A) (A) (A) (A) (A) (A)
                 (A) (A) (A) (A) (A) (A) (A) (A) (A) (A) (A) (A)
                 (A) (A) (A) (A) (A) (A) (A) (A) (A) (A) (A) (A)
                 (A) (A) (A) (A) (A) (A) (A) (A) (A) (A) (A) (A)
                 (A) (A) (A) (A) (A) (A) (A) (A) (A) (A) (A) (A)
                 (A) (A) (A) (A) (A) (A) (A) (A) (A) (A) (A) (A)
                 (A) (A) (A) (A) (A) (A) (A) (A) (A) (A) (A) (A)
                 (A) (A) (A) (A) (A) (A) (A) (A) (A) (A) (A) (A)
                 (A) (A) (A) (A) (A) (A) (A) (A) (A) (A) (A) (A)
                 (A) (A) (A) (A) (A) (A) (A) (A) (A) (A) (A) (A)
                 (A) (A) (A) (A) (A) (A) (A) (A) (A) (A) (A) (A)
                 (A) (A) (A) (A) (A) (A) (A) (A) (A) (A) (A) (A)
                 (A) (A) (A) (A) (A) (A) (A) (A) (A) (A) (A) (A)
                 (A) (A) (A) (A) (A) (A) (A) (A) (A) (A) (A) (A)
                 (A) (A) (A) (A) (A) (A) (A) (A) (A) (A) (A) (A)
                 (A) (A) (A) (A) (A) (A) (A) (A) (A) (A) (A) (A)
                 (A) (A) (A) (A) (A) (A) (A) (A) (A) (A) (A) (A)
                 (A) (A) (A) (A) (A) (A) (A) (A) (A) (A) (A) (A)
                 (A) (A) (A) (A) (A) (A) (A) (A) (A) (A) (A) (A)
                 (A) (A) (A) (A) (A) (A) (A) (A) (A) (A) (A) (A)
                 (A) (A) (A) (A) (A) (A) (A) (A) (A) (A) (A) (A)
                 (A) (A) (A) (A) (A) (A) (A) (A) (A) (A) (A) (A)
                 (A) (A) (A) (A) (A) (A) (A) (A) (A) (A) (A) (A)
                 (A) (A) (A) (A) (A) (A) (A) (A) (A) (A) (A) (A)
                 (A) (A) (A) (A) (A) (A) (A) (A) (A) (A) (A) (A)
                 (A) (A) (A) (A) (A) (A) (A) (A) (A) (A) (A) (A)
                 (A) (A) (A) (A) (A) (A) (A) (A) (A) (A) (A) (A)
                 (A) (A) (A) (A) (A) (A) (A) (A) (A) (A) (A) (A)
                 (A) (A) (A) (A) (A) (A) (A) (A) (A) (A) (A) (A)
                 (A) (A) (A) (A) (A) (A) (A) (A) (A) (A) (A) (A)
                 (A) (A) (A) (A) (A) (A) (A) (A) (A) (A) (A) (A)
                 (A) (A) (A) (A) (A) (A) (A) (A) (A) (A) (A) (A)
                 (A) (A) (A) (A) (A) (A) (A) (A) (A) (A) (A) (A)
                 (A) (A) (A) (A) (A) (A) (A) (A) (A) (A) (A) (A)
                 (A) (A) (A) (A) (A) (A) (A) (A) (A) (A) (A) (A)
                 (A) (A) (A) (A) (A) (A) (A) (A) (A) (A) (A) (A)
                 (A) (A) (A) (A) (A) (A) (A) (A) (A) (A) (A) (A)
                 (A) (A) (A) (A) (A) (A) (A) (A) (A) (A) (A) (A)
                 (A) (A) (A) (A) (A) (A) (A) (A) (A) (A) (A) (A)
                 (A) (A) (A) (A) (A) (A) (A) (A) (A) (A) (A) (A)
                 (A) (A) (A) (A) (A) (A) (A) (A) (A) (A) (A) (A)
                 (A) (A) (A) (A) (A) (A) (A) (A) (A) (A) (A) (A)
                 (A) (A) (A) (A) (A) (A) (A) (A) (A) (A) (A) (A)
                 (A) (A) (A) (A) (A) (A) (A) (A) (A) (A) (A) (A)
                 (A) (A) (A) (A) (A) (A) (A) (A) (A) (A) (A) (A)
                 (A) (A) (A) (A) (A) (A) (A) (A) (A) (A) (A) (A)
                 (A) (A) (A) (A) (A) (A) (A) (A) (A) (A) (A) (A)
                 (A) (A) (A) (A) (A) (A) (A) (A) (A) (A) (A) (A)
                 (A) (A) (A) (A) (A) (A) (A) (A) (A) (A) (A) (A)
                 (A) (A) (A) (A) (A) (A) (A) (A) (A) (A) (A) (A)
                 (A) (A) (A) (A) (A) (A) (A) (A) (A) (A) (A) (A)
                 (A) (A) (A) (A) (A) (A) (A) (A) (A) (A) (A) (A)
                 (A) (A) (A) (A) (A) (A) (A) (A) (A) (A) (A) (A)
                 (A) (A) (A) (A) (A) (A) (A) (A) (A) (A) (A) (A)
                 (A) (A) (A) (A) (A) (A) (A) (A) (A) (A) (A) (A)
                 (A) (A) (A) (A) (A) (A) (A) (A) (A) (A) (A) (A)
                 (A) (A) (A) (A) (A) (A) (A) (A) (A) (A) (A) (A)
                 (A) (A) (A) (A) (A) (A) (A) (A) (A) (A) (A) (A)
                 (A) (A) (A) (A) (A) (A) (A) (A) (A) (A) (A) (A)
                 (A) (A) (A) (A) (A) (A) (A) (A) (A) (A) (A)
 The electronic state is 1-A.
 Alpha  occ. eigenvalues --  -88.88539 -88.87591 -19.17285 -19.16823 -19.12286
 Alpha  occ. eigenvalues --  -19.12225 -19.12060 -19.11506 -14.38511 -14.38204
 Alpha  occ. eigenvalues --  -10.30870 -10.30865 -10.30807 -10.30143 -10.25106
 Alpha  occ. eigenvalues --  -10.24371 -10.24010 -10.23886 -10.23699 -10.22731
 Alpha  occ. eigenvalues --  -10.22289 -10.22202 -10.22087 -10.21956 -10.21950
 Alpha  occ. eigenvalues --  -10.21919 -10.21850 -10.21581 -10.21441 -10.21338
 Alpha  occ. eigenvalues --  -10.20901 -10.20754 -10.20718 -10.20575 -10.19213
 Alpha  occ. eigenvalues --  -10.19194  -7.97083  -7.96125  -5.93391  -5.93004
 Alpha  occ. eigenvalues --   -5.92654  -5.92426  -5.91999  -5.91703  -1.08822
 Alpha  occ. eigenvalues --   -1.08565  -1.08364  -1.08270  -1.06389  -1.06204
 Alpha  occ. eigenvalues --   -0.96054  -0.95754  -0.92041  -0.90112  -0.88645
 Alpha  occ. eigenvalues --   -0.86302  -0.83933  -0.80261  -0.78139  -0.77598
 Alpha  occ. eigenvalues --   -0.76421  -0.75299  -0.75008  -0.73214  -0.72404
 Alpha  occ. eigenvalues --   -0.71562  -0.70515  -0.68813  -0.66955  -0.65737
 Alpha  occ. eigenvalues --   -0.65267  -0.64800  -0.60816  -0.59917  -0.58559
 Alpha  occ. eigenvalues --   -0.57372  -0.56721  -0.56373  -0.55165  -0.54667
 Alpha  occ. eigenvalues --   -0.53641  -0.51446  -0.50166  -0.49910  -0.49588
 Alpha  occ. eigenvalues --   -0.49532  -0.48883  -0.48718  -0.48415  -0.48373
 Alpha  occ. eigenvalues --   -0.48110  -0.47598  -0.46582  -0.46113  -0.46017
 Alpha  occ. eigenvalues --   -0.45628  -0.45092  -0.44466  -0.44119  -0.43680
 Alpha  occ. eigenvalues --   -0.42804  -0.42498  -0.42186  -0.41804  -0.41645
 Alpha  occ. eigenvalues --   -0.41552  -0.41450  -0.41060  -0.40539  -0.39977
 Alpha  occ. eigenvalues --   -0.39326  -0.39078  -0.38569  -0.37405  -0.37213
 Alpha  occ. eigenvalues --   -0.36278  -0.36126  -0.34328  -0.34101  -0.33550
 Alpha  occ. eigenvalues --   -0.33194  -0.31836  -0.30596  -0.30220  -0.29754
 Alpha  occ. eigenvalues --   -0.29189  -0.28784  -0.28525  -0.28092  -0.27183
 Alpha  occ. eigenvalues --   -0.25959  -0.24854  -0.22251  -0.19396
 Alpha virt. eigenvalues --   -0.12933  -0.07521  -0.06326  -0.04522  -0.03635
 Alpha virt. eigenvalues --   -0.00916  -0.00373  -0.00253  -0.00080   0.00443
 Alpha virt. eigenvalues --    0.00920   0.00975   0.01345   0.01859   0.01942
 Alpha virt. eigenvalues --    0.02235   0.02453   0.02600   0.02862   0.03375
 Alpha virt. eigenvalues --    0.03570   0.03707   0.03875   0.04335   0.04641
 Alpha virt. eigenvalues --    0.04781   0.04873   0.05211   0.05605   0.05969
 Alpha virt. eigenvalues --    0.06065   0.06259   0.06650   0.06987   0.07034
 Alpha virt. eigenvalues --    0.07272   0.07390   0.07766   0.08130   0.08183
 Alpha virt. eigenvalues --    0.08658   0.08807   0.08997   0.09368   0.09617
 Alpha virt. eigenvalues --    0.09898   0.09992   0.10258   0.10302   0.10849
 Alpha virt. eigenvalues --    0.10994   0.11324   0.11596   0.11858   0.12293
 Alpha virt. eigenvalues --    0.12414   0.12761   0.13086   0.13264   0.13379
 Alpha virt. eigenvalues --    0.13648   0.13770   0.14107   0.14311   0.14408
 Alpha virt. eigenvalues --    0.14753   0.14912   0.14977   0.15053   0.15401
 Alpha virt. eigenvalues --    0.15593   0.15894   0.15952   0.16145   0.16741
 Alpha virt. eigenvalues --    0.16883   0.17027   0.17356   0.17412   0.17841
 Alpha virt. eigenvalues --    0.17985   0.18112   0.18347   0.18423   0.18635
 Alpha virt. eigenvalues --    0.18962   0.19237   0.19447   0.19510   0.19648
 Alpha virt. eigenvalues --    0.19793   0.20000   0.20286   0.20497   0.20721
 Alpha virt. eigenvalues --    0.20809   0.20861   0.21105   0.21308   0.21416
 Alpha virt. eigenvalues --    0.21754   0.21852   0.22294   0.22410   0.22588
 Alpha virt. eigenvalues --    0.22881   0.23056   0.23180   0.23314   0.23691
 Alpha virt. eigenvalues --    0.23786   0.24141   0.24256   0.24356   0.24773
 Alpha virt. eigenvalues --    0.24822   0.24914   0.24981   0.25205   0.25565
 Alpha virt. eigenvalues --    0.25690   0.25874   0.26103   0.26336   0.26524
 Alpha virt. eigenvalues --    0.26739   0.26784   0.26984   0.27132   0.27303
 Alpha virt. eigenvalues --    0.27620   0.27707   0.28191   0.28334   0.28581
 Alpha virt. eigenvalues --    0.28647   0.28938   0.29235   0.29464   0.29644
 Alpha virt. eigenvalues --    0.29936   0.30195   0.30466   0.30887   0.31083
 Alpha virt. eigenvalues --    0.31407   0.31635   0.31793   0.31906   0.32054
 Alpha virt. eigenvalues --    0.32437   0.32670   0.32890   0.32970   0.33348
 Alpha virt. eigenvalues --    0.33991   0.34087   0.34346   0.34727   0.34994
 Alpha virt. eigenvalues --    0.35124   0.35274   0.35856   0.36038   0.36442
 Alpha virt. eigenvalues --    0.36640   0.37454   0.37573   0.37792   0.38021
 Alpha virt. eigenvalues --    0.38232   0.38799   0.39263   0.39382   0.39555
 Alpha virt. eigenvalues --    0.40083   0.40653   0.41055   0.41571   0.41889
 Alpha virt. eigenvalues --    0.42616   0.43064   0.43250   0.43676   0.43793
 Alpha virt. eigenvalues --    0.44241   0.44826   0.44960   0.45184   0.45385
 Alpha virt. eigenvalues --    0.45644   0.45909   0.46337   0.46815   0.47239
 Alpha virt. eigenvalues --    0.47522   0.48198   0.48302   0.48825   0.49431
 Alpha virt. eigenvalues --    0.49687   0.50027   0.50177   0.51178   0.51310
 Alpha virt. eigenvalues --    0.52337   0.53011   0.53391   0.53749   0.54182
 Alpha virt. eigenvalues --    0.54596   0.54787   0.54929   0.55417   0.55863
 Alpha virt. eigenvalues --    0.56167   0.56528   0.56787   0.56883   0.57352
 Alpha virt. eigenvalues --    0.57877   0.58315   0.59038   0.59240   0.59596
 Alpha virt. eigenvalues --    0.59880   0.60306   0.60751   0.61299   0.61490
 Alpha virt. eigenvalues --    0.61744   0.62199   0.62541   0.62918   0.63194
 Alpha virt. eigenvalues --    0.63597   0.63980   0.64425   0.64600   0.65197
 Alpha virt. eigenvalues --    0.65559   0.65693   0.65769   0.66207   0.66321
 Alpha virt. eigenvalues --    0.66688   0.67126   0.67741   0.68064   0.68459
 Alpha virt. eigenvalues --    0.69020   0.69275   0.69763   0.70150   0.70531
 Alpha virt. eigenvalues --    0.70884   0.71211   0.71607   0.71883   0.72458
 Alpha virt. eigenvalues --    0.72773   0.73298   0.73353   0.73516   0.73758
 Alpha virt. eigenvalues --    0.74371   0.74514   0.74736   0.75100   0.75586
 Alpha virt. eigenvalues --    0.75952   0.76292   0.76417   0.76777   0.77709
 Alpha virt. eigenvalues --    0.77767   0.78408   0.78608   0.79486   0.79763
 Alpha virt. eigenvalues --    0.80047   0.80920   0.81160   0.82294   0.82445
 Alpha virt. eigenvalues --    0.83094   0.83704   0.83841   0.84778   0.85175
 Alpha virt. eigenvalues --    0.86084   0.87106   0.87712   0.87867   0.89016
 Alpha virt. eigenvalues --    0.89431   0.89879   0.90232   0.90939   0.91634
 Alpha virt. eigenvalues --    0.92109   0.92501   0.92725   0.93101   0.93470
 Alpha virt. eigenvalues --    0.93872   0.94130   0.94522   0.95026   0.95148
 Alpha virt. eigenvalues --    0.95844   0.96171   0.96607   0.96793   0.97323
 Alpha virt. eigenvalues --    0.98207   0.99089   0.99302   0.99361   1.00260
 Alpha virt. eigenvalues --    1.01005   1.01210   1.01453   1.01815   1.02490
 Alpha virt. eigenvalues --    1.02742   1.03523   1.03808   1.04349   1.04735
 Alpha virt. eigenvalues --    1.04933   1.05208   1.05426   1.06396   1.06721
 Alpha virt. eigenvalues --    1.07130   1.07326   1.08006   1.08301   1.08559
 Alpha virt. eigenvalues --    1.09036   1.10010   1.10210   1.10651   1.11043
 Alpha virt. eigenvalues --    1.12013   1.12457   1.13605   1.14059   1.15372
 Alpha virt. eigenvalues --    1.16229   1.16966   1.17108   1.18043   1.18377
 Alpha virt. eigenvalues --    1.18516   1.19605   1.20149   1.20885   1.21062
 Alpha virt. eigenvalues --    1.22544   1.22735   1.24731   1.24924   1.25708
 Alpha virt. eigenvalues --    1.25863   1.26941   1.27029   1.27329   1.28300
 Alpha virt. eigenvalues --    1.28554   1.29311   1.30101   1.30957   1.31059
 Alpha virt. eigenvalues --    1.32428   1.32907   1.33316   1.34840   1.35328
 Alpha virt. eigenvalues --    1.35487   1.37538   1.37618   1.38932   1.39266
 Alpha virt. eigenvalues --    1.40146   1.40779   1.42027   1.42153   1.42407
 Alpha virt. eigenvalues --    1.42907   1.42996   1.43414   1.44015   1.44686
 Alpha virt. eigenvalues --    1.44957   1.45144   1.45652   1.45944   1.46211
 Alpha virt. eigenvalues --    1.47175   1.47410   1.48031   1.48378   1.49462
 Alpha virt. eigenvalues --    1.50012   1.50909   1.51353   1.51782   1.52615
 Alpha virt. eigenvalues --    1.53745   1.53857   1.54285   1.54512   1.54881
 Alpha virt. eigenvalues --    1.55322   1.55649   1.55994   1.56450   1.56956
 Alpha virt. eigenvalues --    1.57332   1.58639   1.59379   1.60625   1.61028
 Alpha virt. eigenvalues --    1.62195   1.62574   1.63123   1.63721   1.64202
 Alpha virt. eigenvalues --    1.65200   1.66130   1.66380   1.66946   1.67366
 Alpha virt. eigenvalues --    1.67718   1.68055   1.68710   1.69007   1.69556
 Alpha virt. eigenvalues --    1.69987   1.70240   1.70957   1.71224   1.71965
 Alpha virt. eigenvalues --    1.73294   1.73703   1.74964   1.75418   1.75751
 Alpha virt. eigenvalues --    1.76376   1.76752   1.77237   1.77951   1.79042
 Alpha virt. eigenvalues --    1.79323   1.80017   1.80161   1.81413   1.82957
 Alpha virt. eigenvalues --    1.83419   1.83970   1.85348   1.86220   1.86602
 Alpha virt. eigenvalues --    1.86778   1.87118   1.87304   1.88090   1.88659
 Alpha virt. eigenvalues --    1.89274   1.89856   1.90812   1.91202   1.91635
 Alpha virt. eigenvalues --    1.92574   1.93021   1.93810   1.94060   1.95257
 Alpha virt. eigenvalues --    1.95822   1.96318   1.97115   1.98691   1.99058
 Alpha virt. eigenvalues --    1.99888   2.00747   2.01131   2.01569   2.02185
 Alpha virt. eigenvalues --    2.03283   2.03349   2.03960   2.04198   2.04829
 Alpha virt. eigenvalues --    2.05393   2.06459   2.06987   2.07711   2.08532
 Alpha virt. eigenvalues --    2.09103   2.09503   2.09950   2.11537   2.12055
 Alpha virt. eigenvalues --    2.12172   2.13569   2.13975   2.14423   2.14991
 Alpha virt. eigenvalues --    2.15863   2.17111   2.17761   2.18021   2.19474
 Alpha virt. eigenvalues --    2.19842   2.20286   2.20697   2.21964   2.22098
 Alpha virt. eigenvalues --    2.23446   2.26028   2.26319   2.26720   2.28803
 Alpha virt. eigenvalues --    2.32539   2.33051   2.34106   2.35304   2.36306
 Alpha virt. eigenvalues --    2.37812   2.39320   2.40125   2.41146   2.42430
 Alpha virt. eigenvalues --    2.42899   2.43279   2.44223   2.45467   2.46049
 Alpha virt. eigenvalues --    2.46328   2.47184   2.47997   2.48219   2.49201
 Alpha virt. eigenvalues --    2.50048   2.51740   2.52029   2.52449   2.53041
 Alpha virt. eigenvalues --    2.53402   2.53551   2.53734   2.54386   2.56582
 Alpha virt. eigenvalues --    2.56694   2.58103   2.58960   2.59100   2.60761
 Alpha virt. eigenvalues --    2.63208   2.63387   2.63835   2.65337   2.66951
 Alpha virt. eigenvalues --    2.67400   2.67639   2.67872   2.68186   2.68503
 Alpha virt. eigenvalues --    2.69106   2.69817   2.70810   2.71190   2.71444
 Alpha virt. eigenvalues --    2.72705   2.72971   2.73199   2.73973   2.75167
 Alpha virt. eigenvalues --    2.76395   2.76865   2.77674   2.78488   2.80375
 Alpha virt. eigenvalues --    2.81282   2.81844   2.82427   2.83486   2.83748
 Alpha virt. eigenvalues --    2.84019   2.84539   2.85461   2.86111   2.87134
 Alpha virt. eigenvalues --    2.87248   2.88414   2.88919   2.89365   2.89990
 Alpha virt. eigenvalues --    2.91320   2.92452   2.92947   2.93679   2.94524
 Alpha virt. eigenvalues --    2.94926   2.95394   2.96945   2.97214   2.98517
 Alpha virt. eigenvalues --    2.99854   3.02021   3.02705   3.03368   3.04376
 Alpha virt. eigenvalues --    3.05339   3.06276   3.08229   3.09137   3.10211
 Alpha virt. eigenvalues --    3.11455   3.12839   3.14221   3.14534   3.15194
 Alpha virt. eigenvalues --    3.16306   3.17897   3.18834   3.20085   3.21725
 Alpha virt. eigenvalues --    3.22941   3.23242   3.23723   3.24905   3.27435
 Alpha virt. eigenvalues --    3.28753   3.29885   3.31319   3.31773   3.34084
 Alpha virt. eigenvalues --    3.34332   3.34751   3.34971   3.35068   3.37917
 Alpha virt. eigenvalues --    3.38571   3.40179   3.41630   3.42395   3.42827
 Alpha virt. eigenvalues --    3.44726   3.45584   3.45837   3.48966   3.49449
 Alpha virt. eigenvalues --    3.50822   3.53946   3.54982   3.57980   3.59826
 Alpha virt. eigenvalues --    3.60405   3.61866   3.65064   3.66317   3.66476
 Alpha virt. eigenvalues --    3.70189   3.70372   3.72180   3.72726   3.75484
 Alpha virt. eigenvalues --    3.75796   3.76297   3.80340   3.82558   3.84239
 Alpha virt. eigenvalues --    3.85545   3.86499   3.89693   3.91006   3.92956
 Alpha virt. eigenvalues --    3.93243   3.94872   3.97014   4.01654   4.03016
 Alpha virt. eigenvalues --    4.04870   4.08190   4.10341   4.13186   4.14064
 Alpha virt. eigenvalues --    4.20533   4.24145   4.25560   4.27201   4.35514
 Alpha virt. eigenvalues --    4.39904   4.40916   4.52643   4.70568   4.84472
 Alpha virt. eigenvalues --    4.86033   4.87609   4.90590   5.01729   5.02595
 Alpha virt. eigenvalues --    5.04076   5.05543   5.06293   5.08979   5.11380
 Alpha virt. eigenvalues --    5.13253   5.25085   5.27098   5.29528   5.33623
 Alpha virt. eigenvalues --    5.42233   5.43128   5.75824   5.76458   5.80042
 Alpha virt. eigenvalues --    5.80573   5.82061   5.85450   8.02686   8.08260
 Alpha virt. eigenvalues --   17.28982  17.35956  17.49834  17.52672  17.59633
 Alpha virt. eigenvalues --   17.65303  23.49035  23.56884  23.71299  23.78619
 Alpha virt. eigenvalues --   23.82111  23.82494  23.84606  23.86756  23.86864
 Alpha virt. eigenvalues --   23.88122  23.88907  23.89845  23.90856  23.93167
 Alpha virt. eigenvalues --   23.94690  23.95308  23.96208  23.98297  24.00793
 Alpha virt. eigenvalues --   24.01629  24.02363  24.05279  24.11813  24.13187
 Alpha virt. eigenvalues --   24.13889  24.14341  35.56200  35.59094  49.95912
 Alpha virt. eigenvalues --   49.97706  50.02145  50.04159  50.05758  50.07330
 Alpha virt. eigenvalues --  189.20040 189.26499
          Condensed to atoms (all electrons):
 Mulliken charges:
               1
     1  C    0.358281
     2  C   -0.095869
     3  C    0.194801
     4  C    0.236279
     5  C    0.248035
     6  C   -0.021177
     7  C    0.174436
     8  C    0.286922
     9  C    0.174775
    10  C   -0.353899
    11  C    0.227329
    12  C    0.196428
    13  C   -0.491184
    14  C   -0.594298
    15  H    0.158244
    16  H    0.160895
    17  H    0.159492
    18  N   -0.114787
    19  N   -0.132142
    20  O   -0.289010
    21  O   -0.270714
    22  O   -0.279476
    23  O   -0.133312
    24  C   -0.192706
    25  H    0.177873
    26  H    0.169976
    27  H    0.185619
    28  C   -0.201262
    29  H    0.173571
    30  H    0.173409
    31  H    0.182506
    32  C    0.303127
    33  C   -0.605874
    34  S   -0.697513
    35  C   -0.391911
    36  H    0.131607
    37  C    0.667348
    38  O   -0.139299
    39  C    0.854229
    40  C   -0.234874
    41  C   -0.086272
    42  S   -0.285728
    43  H    0.166232
    44  H    0.144967
    45  H    0.152604
    46  C   -0.536499
    47  O   -0.106351
    48  C   -0.303870
    49  H    0.132880
    50  C   -0.254173
    51  H    0.162103
    52  H    0.144439
    53  H    0.167110
    54  H    0.146682
 Sum of Mulliken charges =  -0.00000
 Mulliken charges with hydrogens summed into heavy atoms:
               1
     1  C    0.358281
     2  C   -0.095869
     3  C    0.194801
     4  C    0.236279
     5  C    0.248035
     6  C    0.138316
     7  C    0.174436
     8  C    0.286922
     9  C    0.174775
    10  C   -0.353899
    11  C    0.227329
    12  C    0.196428
    13  C   -0.330289
    14  C   -0.436054
    18  N   -0.114787
    19  N   -0.132142
    20  O   -0.289010
    21  O   -0.270714
    22  O   -0.279476
    23  O   -0.133312
    24  C    0.340763
    28  C    0.328224
    32  C    0.303127
    33  C   -0.474267
    34  S   -0.697513
    35  C   -0.391911
    37  C    0.667348
    38  O   -0.139299
    39  C    0.854229
    40  C    0.228928
    41  C   -0.086272
    42  S   -0.285728
    46  C   -0.403619
    47  O   -0.106351
    48  C   -0.141767
    50  C    0.204059
 Electronic spatial extent (au):  <R**2>=          22138.2832
 Charge=              0.0000 electrons
 Dipole moment (field-independent basis, Debye):
    X=              5.0644    Y=             -0.4215    Z=             -0.1684  Tot=              5.0847
 Quadrupole moment (field-independent basis, Debye-Ang):
   XX=           -214.0044   YY=           -214.5335   ZZ=           -221.9574
   XY=             13.2633   XZ=             -5.2032   YZ=             -7.4726
 Traceless Quadrupole moment (field-independent basis, Debye-Ang):
   XX=              2.8274   YY=              2.2983   ZZ=             -5.1256
   XY=             13.2633   XZ=             -5.2032   YZ=             -7.4726
 Octapole moment (field-independent basis, Debye-Ang**2):
  XXX=            373.7747  YYY=            -65.8993  ZZZ=              3.0163  XYY=            125.8140
  XXY=             28.6896  XXZ=            -24.4373  XZZ=             -7.3756  YZZ=              1.9615
  YYZ=              7.6498  XYZ=            -26.3034
 Hexadecapole moment (field-independent basis, Debye-Ang**3):
 XXXX=         -21655.3116 YYYY=          -7484.8268 ZZZZ=           -574.5752 XXXY=            429.1478
 XXXZ=           -290.4852 YYYX=            314.6511 YYYZ=           -123.9582 ZZZX=             22.1606
 ZZZY=              0.4722 XXYY=          -4529.1420 XXZZ=          -3859.7098 YYZZ=          -1274.3815
 XXYZ=           -131.4495 YYXZ=             37.3440 ZZXY=             67.8762
 N-N= 4.123985083812D+03 E-N=-1.378818042453D+04  KE= 2.352018604380D+03
 Calling FoFJK, ICntrl=      2127 FMM=F ISym2X=0 I1Cent= 0 IOpClX= 0 NMat=1 NMatS=1 NMatT=0.
 ***** Axes restored to original set *****
 -------------------------------------------------------------------
 Center     Atomic                   Forces (Hartrees/Bohr)
 Number     Number              X              Y              Z
 -------------------------------------------------------------------
      1        6           0.003660793   -0.004805419   -0.000649975
      2        6           0.004727521    0.000165731   -0.000126680
      3        6          -0.002768956    0.000621264    0.000088230
      4        6           0.002433673    0.001376718    0.000224322
      5        6          -0.005986100   -0.001195219    0.000013255
      6        6          -0.001018873   -0.001149965   -0.000633374
      7        6          -0.000643188    0.000589208   -0.000009815
      8        6          -0.000773643    0.003629469    0.001219901
      9        6           0.009294987   -0.007575331   -0.001883669
     10        6          -0.012927552   -0.002461685    0.001919727
     11        6          -0.005572834    0.002616173    0.000035426
     12        6           0.001283201    0.000408277    0.000392234
     13        6          -0.001341092   -0.002458450   -0.000352685
     14        6           0.000089073    0.002170980    0.000302823
     15        1           0.000648685    0.000795274    0.000044298
     16        1           0.000575093   -0.001163330   -0.000205903
     17        1          -0.000291264    0.001269160    0.000520319
     18        7           0.002441983   -0.001985310   -0.000668207
     19        7           0.001454895    0.001061999    0.000018082
     20        8          -0.005424594    0.005636526    0.000898498
     21        8           0.007489955    0.001929863    0.000099580
     22        8           0.006159336   -0.004744420   -0.000663450
     23        8          -0.034348800    0.011828157    0.018228096
     24        6           0.000876555    0.002255446   -0.000325345
     25        1          -0.000614689    0.000017548   -0.000337095
     26        1          -0.001311255   -0.000573845    0.001111394
     27        1           0.000937885   -0.000005281    0.000048342
     28        6          -0.000437841   -0.001942949   -0.000677660
     29        1          -0.000693988    0.000372429    0.000986122
     30        1          -0.000467662    0.000375816   -0.000496455
     31        1           0.000938041   -0.000354782   -0.000011684
     32        6          -0.014396894    0.033752958    0.002978897
     33        6           0.008968599   -0.006207814   -0.002508837
     34       16           0.043550859   -0.018306029   -0.013427015
     35        6          -0.003488184   -0.008012162    0.001168344
     36        1           0.000616941   -0.001739555    0.002258658
     37        6          -0.005861518   -0.003318434   -0.012182272
     38        8           0.000712636   -0.003685392    0.001590908
     39        6           0.000220306   -0.000220824    0.000503115
     40        6           0.001369313    0.000294976    0.001269756
     41        6          -0.001058732   -0.000583467   -0.000184722
     42       16           0.000289692    0.001919294    0.000015500
     43        1          -0.001168006    0.000050244   -0.000202509
     44        1           0.000320922    0.000636105   -0.000611376
     45        1           0.000669496    0.000696640    0.000080554
     46        6          -0.000439938   -0.000860330    0.000521271
     47        8           0.003247443    0.000147623   -0.000682988
     48        6          -0.000804987   -0.000060735   -0.000096707
     49        1           0.000162295   -0.000911535    0.000241181
     50        6           0.000793799    0.002275806   -0.000586046
     51        1          -0.001114274   -0.000401822   -0.000032415
     52        1          -0.000861076   -0.000809014    0.001105030
     53        1           0.000728988   -0.000432100    0.000160046
     54        1          -0.000847025   -0.000928483   -0.000487027
 -------------------------------------------------------------------
 Cartesian Forces:  Max     0.043550859 RMS     0.006386620

 GradGradGradGradGradGradGradGradGradGradGradGradGradGradGradGradGradGrad
 Berny optimization.
 FormGI is forming the generalized inverse of G from B-inverse, IUseBI=4.
 Internal  Forces:  Max     0.136545281 RMS     0.016208347
 Search for a local minimum.
 Step number   1 out of a maximum of  307
 All quantities printed in internal units (Hartrees-Bohrs-Radians)
 Mixed Optimization -- RFO/linear search
 Second derivative matrix not updated -- first step.
 ITU=  0
     Eigenvalues ---    0.01155   0.01172   0.01239   0.01297   0.01351
     Eigenvalues ---    0.01381   0.01397   0.01410   0.01451   0.01469
     Eigenvalues ---    0.01512   0.01543   0.01567   0.01586   0.01620
     Eigenvalues ---    0.01651   0.01679   0.01692   0.01715   0.01719
     Eigenvalues ---    0.01721   0.01763   0.01799   0.01845   0.01975
     Eigenvalues ---    0.02039   0.02050   0.02073   0.02089   0.02096
     Eigenvalues ---    0.02133   0.02149   0.02162   0.02177   0.02197
     Eigenvalues ---    0.02244   0.04601   0.04620   0.07665   0.07667
     Eigenvalues ---    0.10063   0.10064   0.10632   0.10634   0.15983
     Eigenvalues ---    0.15999   0.15999   0.16000   0.16000   0.16000
     Eigenvalues ---    0.16000   0.16000   0.16000   0.16000   0.16000
     Eigenvalues ---    0.16000   0.16000   0.16000   0.16000   0.16000
     Eigenvalues ---    0.16000   0.16000   0.22530   0.22583   0.23517
     Eigenvalues ---    0.23582   0.24513   0.24747   0.24865   0.24906
     Eigenvalues ---    0.24952   0.24985   0.24986   0.24988   0.24991
     Eigenvalues ---    0.24994   0.24996   0.24997   0.24998   0.24998
     Eigenvalues ---    0.25000   0.25000   0.25000   0.25000   0.25000
     Eigenvalues ---    0.25000   0.25000   0.25000   0.25000   0.25000
     Eigenvalues ---    0.28822   0.28861   0.30056   0.32097   0.32582
     Eigenvalues ---    0.32774   0.33104   0.33787   0.33972   0.34041
     Eigenvalues ---    0.34061   0.34140   0.34353   0.34466   0.34577
     Eigenvalues ---    0.34629   0.34693   0.34781   0.34877   0.35198
     Eigenvalues ---    0.35218   0.35468   0.35553   0.35582   0.35832
     Eigenvalues ---    0.35873   0.36078   0.36083   0.36306   0.36393
     Eigenvalues ---    0.36662   0.39348   0.40194   0.40217   0.40651
     Eigenvalues ---    0.40762   0.41524   0.41602   0.41934   0.42300
     Eigenvalues ---    0.42768   0.43455   0.43971   0.44092   0.44536
     Eigenvalues ---    0.44594   0.45014   0.45405   0.46251   0.47305
     Eigenvalues ---    0.47539   0.49309   0.49481   0.52914   0.53247
     Eigenvalues ---    0.93281   0.93432   0.93989   0.945851000.00000
     Eigenvalues --- 1000.000001000.000001000.000001000.000001000.00000
     Eigenvalues --- 1000.000001000.000001000.000001000.000001000.00000
     Eigenvalues --- 1000.000001000.000001000.000001000.000001000.00000
     Eigenvalues --- 1000.000001000.000001000.000001000.000001000.00000
     Eigenvalues --- 1000.000001000.000001000.000001000.000001000.00000
     Eigenvalues --- 1000.000001000.000001000.000001000.000001000.00000
     Eigenvalues --- 1000.000001000.000001000.000001000.000001000.00000
     Eigenvalues --- 1000.000001000.000001000.000001000.000001000.00000
     Eigenvalues --- 1000.000001000.000001000.000001000.000001000.00000
     Eigenvalues --- 1000.000001000.000001000.000001000.000001000.00000
     Eigenvalues --- 1000.000001000.000001000.000001000.000001000.00000
     Eigenvalues --- 1000.000001000.000001000.000001000.000001000.00000
     Eigenvalues --- 1000.000001000.000001000.000001000.000001000.00000
     Eigenvalues --- 1000.000001000.000001000.000001000.000001000.00000
     Eigenvalues --- 1000.000001000.000001000.000001000.000001000.00000
     Eigenvalues --- 1000.000001000.000001000.000001000.000001000.00000
     Eigenvalues --- 1000.000001000.000001000.000001000.000001000.00000
     Eigenvalues --- 1000.000001000.000001000.000001000.000001000.00000
     Eigenvalues --- 1000.000001000.000001000.000001000.000001000.00000
     Eigenvalues --- 1000.000001000.000001000.000001000.000001000.00000
     Eigenvalues --- 1000.000001000.000001000.000001000.000001000.00000
     Eigenvalues --- 1000.000001000.000001000.000001000.000001000.00000
     Eigenvalues --- 1000.000001000.000001000.000001000.000001000.00000
     Eigenvalues --- 1000.000001000.000001000.000001000.000001000.00000
     Eigenvalues --- 1000.000001000.000001000.000001000.000001000.00000
     Eigenvalues --- 1000.000001000.000001000.000001000.000001000.00000
     Eigenvalues --- 1000.000001000.000001000.000001000.000001000.00000
     Eigenvalues --- 1000.000001000.000001000.000001000.000001000.00000
     Eigenvalues --- 1000.000001000.000001000.000001000.000001000.00000
     Eigenvalues --- 1000.000001000.00000
 RFO step:  Lambda=-1.83423912D-01 EMin= 1.15532237D-02
 Linear search not attempted -- first point.
 Maximum step size (   0.300) exceeded in Quadratic search.
    -- Step size scaled by   0.492
 Iteration  1 RMS(Cart)=  0.33466347 RMS(Int)=  0.00850852
 Iteration  2 RMS(Cart)=  0.12153187 RMS(Int)=  0.00097715
 Iteration  3 RMS(Cart)=  0.00339797 RMS(Int)=  0.00039162
 Iteration  4 RMS(Cart)=  0.00000217 RMS(Int)=  0.00039162
 Iteration  5 RMS(Cart)=  0.00000000 RMS(Int)=  0.00039162
 Iteration  1 RMS(Cart)=  0.00014952 RMS(Int)=  0.00002688
 Iteration  2 RMS(Cart)=  0.00008036 RMS(Int)=  0.00002999
 Iteration  3 RMS(Cart)=  0.00004367 RMS(Int)=  0.00003391
 Iteration  4 RMS(Cart)=  0.00002390 RMS(Int)=  0.00003658
 Iteration  5 RMS(Cart)=  0.00001315 RMS(Int)=  0.00003820
 Iteration  6 RMS(Cart)=  0.00000726 RMS(Int)=  0.00003914
 Iteration  7 RMS(Cart)=  0.00000401 RMS(Int)=  0.00003969
 Iteration  8 RMS(Cart)=  0.00000222 RMS(Int)=  0.00004000
 Iteration  9 RMS(Cart)=  0.00000123 RMS(Int)=  0.00004018
 Iteration 10 RMS(Cart)=  0.00000068 RMS(Int)=  0.00004029
 Variable       Old X    -DE/DX   Delta X   Delta X   Delta X     New X
                                 (Linear)    (Quad)   (Total)
    R1        2.80935  -0.00032   0.00000  -0.00063  -0.00063   2.80872
    R2        2.64584  -0.00547   0.00000  -0.00434  -0.00432   2.64152
    R3        2.31147  -0.00787   0.00000  -0.00345  -0.00345   2.30802
    R4        2.67311  -0.01300   0.00000  -0.01213  -0.01222   2.66089
    R5        2.59267  -0.01926   0.00000  -0.01570  -0.01570   2.57697
    R6        2.66894   0.00186   0.00000   0.00157   0.00155   2.67049
    R7        2.69164   0.00466   0.00000   0.00521   0.00517   2.69681
    R8        2.81049  -0.00076   0.00000  -0.00039  -0.00039   2.81010
    R9        2.62173  -0.00780   0.00000  -0.00657  -0.00658   2.61514
   R10        2.65570  -0.00461   0.00000  -0.00347  -0.00346   2.65224
   R11        2.30889  -0.00771   0.00000  -0.00336  -0.00336   2.30553
   R12        2.70248  -0.00038   0.00000  -0.00104  -0.00097   2.70150
   R13        2.04786  -0.00117   0.00000  -0.00106  -0.00106   2.04679
   R14        2.70495   0.03075   0.00000   0.02948   0.02953   2.73449
   R15        2.68322   0.00873   0.00000   0.00870   0.00871   2.69193
   R16        2.68655   0.06114   0.00000   0.05136   0.05141   2.73796
   R17        2.81233   0.01880   0.00000   0.01852   0.01861   2.83094
   R18        2.76359   0.03130   0.00000   0.02802   0.02802   2.79161
   R19        2.66221  -0.00690   0.00000  -0.00630  -0.00629   2.65592
   R20        2.31391  -0.02443   0.00000  -0.01076  -0.01076   2.30314
   R21        2.79415  -0.01578   0.00000  -0.01543  -0.01549   2.77866
   R22        2.63842  -0.01763   0.00000  -0.01483  -0.01490   2.62352
   R23        2.31456  -0.00777   0.00000  -0.00343  -0.00343   2.31113
   R24        2.62448  -0.00140   0.00000  -0.00102  -0.00102   2.62347
   R25        2.64561  -0.01240   0.00000  -0.01029  -0.01030   2.63531
   R26        2.04921  -0.00124   0.00000  -0.00113  -0.00113   2.04808
   R27        2.04741  -0.00087   0.00000  -0.00079  -0.00079   2.04662
   R28        2.77259   0.00169   0.00000   0.00153   0.00153   2.77413
   R29        2.77252   0.00166   0.00000   0.00150   0.00150   2.77403
   R30        2.06176  -0.00061   0.00000  -0.00056  -0.00056   2.06120
   R31        2.06551  -0.00177   0.00000  -0.00165  -0.00165   2.06386
   R32        2.05322  -0.00081   0.00000  -0.00074  -0.00074   2.05248
   R33        2.06368  -0.00125   0.00000  -0.00116  -0.00116   2.06252
   R34        2.06281  -0.00076   0.00000  -0.00070  -0.00070   2.06211
   R35        2.05355  -0.00089   0.00000  -0.00082  -0.00082   2.05273
   R36        2.61138   0.01825   0.00000   0.01355   0.01364   2.62503
   R37        3.33330   0.00320   0.00000   0.00379   0.00389   3.33718
   R38        2.66167  -0.01229   0.00000  -0.00990  -0.00992   2.65175
   R39        2.03606   0.00215   0.00000   0.00193   0.00193   2.03800
   R40        3.30486  -0.00361   0.00000  -0.00367  -0.00373   3.30113
   R41        2.64166  -0.00556   0.00000  -0.00461  -0.00473   2.63693
   R42        2.57034   0.00285   0.00000   0.00197   0.00197   2.57231
   R43        2.71260  -0.00039   0.00000  -0.00033  -0.00033   2.71227
   R44        2.69433  -0.00153   0.00000  -0.00125  -0.00125   2.69308
   R45        2.63452  -0.00051   0.00000  -0.00035  -0.00035   2.63416
   R46        3.32970  -0.00033   0.00000  -0.00026  -0.00026   3.32944
   R47        2.06032  -0.00116   0.00000  -0.00107  -0.00107   2.05925
   R48        2.07227  -0.00083   0.00000  -0.00078  -0.00078   2.07149
   R49        2.07094  -0.00069   0.00000  -0.00065  -0.00065   2.07030
   R50        2.68988  -0.00150   0.00000  -0.00126  -0.00126   2.68862
   R51        2.56723  -0.00261   0.00000  -0.00179  -0.00179   2.56544
   R52        3.26316  -0.00211   0.00000  -0.00204  -0.00204   3.26112
   R53        2.58779  -0.00198   0.00000  -0.00146  -0.00146   2.58634
   R54        2.04346  -0.00092   0.00000  -0.00083  -0.00083   2.04262
   R55        2.69007   0.00007   0.00000   0.00006   0.00006   2.69013
   R56        2.04280  -0.00117   0.00000  -0.00106  -0.00106   2.04174
   R57        2.07377  -0.00151   0.00000  -0.00142  -0.00142   2.07235
   R58        2.05876  -0.00082   0.00000  -0.00075  -0.00075   2.05800
   R59        2.07262  -0.00122   0.00000  -0.00115  -0.00115   2.07147
    A1        2.03797   0.00123   0.00000   0.00049   0.00048   2.03844
    A2        2.14521  -0.00087   0.00000  -0.00054  -0.00054   2.14467
    A3        2.10001  -0.00035   0.00000   0.00006   0.00006   2.10007
    A4        2.10395   0.00644   0.00000   0.00868   0.00869   2.11264
    A5        2.08282  -0.00785   0.00000  -0.00617  -0.00610   2.07672
    A6        2.09624   0.00138   0.00000  -0.00255  -0.00264   2.09360
    A7        2.10093  -0.00817   0.00000  -0.01027  -0.01023   2.09069
    A8        2.07104  -0.00021   0.00000  -0.00174  -0.00184   2.06920
    A9        2.11118   0.00836   0.00000   0.01198   0.01204   2.12322
   A10        2.10296   0.00411   0.00000   0.00515   0.00512   2.10809
   A11        2.09911   0.00306   0.00000   0.00297   0.00294   2.10205
   A12        2.08110  -0.00716   0.00000  -0.00813  -0.00807   2.07303
   A13        2.03739   0.00039   0.00000   0.00078   0.00076   2.03815
   A14        2.12972   0.00047   0.00000   0.00037   0.00038   2.13010
   A15        2.11607  -0.00087   0.00000  -0.00116  -0.00114   2.11492
   A16        2.15098   0.02698   0.00000   0.02954   0.02957   2.18055
   A17        2.04399  -0.01297   0.00000  -0.01412  -0.01413   2.02986
   A18        2.08722  -0.01418   0.00000  -0.01584  -0.01589   2.07133
   A19        2.11101   0.01085   0.00000   0.01312   0.01308   2.12409
   A20        2.04385  -0.02062   0.00000  -0.02501  -0.02499   2.01886
   A21        2.12832   0.00977   0.00000   0.01188   0.01190   2.14022
   A22        2.08678  -0.02161   0.00000  -0.02117  -0.02117   2.06562
   A23        2.04738  -0.03870   0.00000  -0.04299  -0.04285   2.00453
   A24        2.14662   0.06003   0.00000   0.06295   0.06269   2.20931
   A25        2.04892  -0.01779   0.00000  -0.01787  -0.01777   2.03115
   A26        2.00754  -0.11882   0.00000  -0.13630  -0.13631   1.87123
   A27        2.22643   0.13655   0.00000   0.15389   0.15377   2.38019
   A28        2.06022   0.01967   0.00000   0.02318   0.02327   2.08349
   A29        2.17370   0.02254   0.00000   0.02514   0.02510   2.19880
   A30        2.04919  -0.04228   0.00000  -0.04835  -0.04841   2.00078
   A31        2.01621  -0.00567   0.00000  -0.00844  -0.00864   2.00756
   A32        2.14188   0.00357   0.00000   0.00504   0.00512   2.14700
   A33        2.12500   0.00203   0.00000   0.00328   0.00336   2.12836
   A34        2.10943   0.00730   0.00000   0.00873   0.00861   2.11804
   A35        2.11468   0.01034   0.00000   0.01311   0.01315   2.12783
   A36        2.05896  -0.01765   0.00000  -0.02188  -0.02180   2.03716
   A37        2.11176   0.00267   0.00000   0.00308   0.00303   2.11479
   A38        2.05670  -0.00088   0.00000  -0.00088  -0.00086   2.05584
   A39        2.11471  -0.00180   0.00000  -0.00221  -0.00219   2.11253
   A40        2.08567  -0.00384   0.00000  -0.00622  -0.00628   2.07939
   A41        2.07549   0.00248   0.00000   0.00390   0.00393   2.07942
   A42        2.12199   0.00135   0.00000   0.00229   0.00232   2.12431
[...]
 Alpha  occ. eigenvalues --   -0.65369  -0.64702  -0.60994  -0.60038  -0.58560
 Alpha  occ. eigenvalues --   -0.57337  -0.56742  -0.56486  -0.55172  -0.54797
 Alpha  occ. eigenvalues --   -0.53674  -0.51475  -0.50156  -0.49916  -0.49507
 Alpha  occ. eigenvalues --   -0.49285  -0.48959  -0.48660  -0.48623  -0.48342
 Alpha  occ. eigenvalues --   -0.48186  -0.46946  -0.46540  -0.46188  -0.45895
 Alpha  occ. eigenvalues --   -0.45643  -0.44837  -0.44463  -0.44174  -0.43665
 Alpha  occ. eigenvalues --   -0.42948  -0.42394  -0.42216  -0.41943  -0.41814
 Alpha  occ. eigenvalues --   -0.41685  -0.41160  -0.41029  -0.40445  -0.39808
 Alpha  occ. eigenvalues --   -0.39386  -0.39159  -0.38832  -0.37743  -0.37308
 Alpha  occ. eigenvalues --   -0.36594  -0.36068  -0.34424  -0.34200  -0.33599
 Alpha  occ. eigenvalues --   -0.33495  -0.31845  -0.30798  -0.30255  -0.29671
 Alpha  occ. eigenvalues --   -0.29241  -0.28677  -0.28538  -0.27835  -0.27369
 Alpha  occ. eigenvalues --   -0.25955  -0.24990  -0.24324  -0.19503
 Alpha virt. eigenvalues --   -0.12890  -0.07474  -0.06261  -0.04441  -0.03735
 Alpha virt. eigenvalues --   -0.00836  -0.00534  -0.00346  -0.00038   0.00345
 Alpha virt. eigenvalues --    0.00844   0.01095   0.01468   0.01737   0.01966
 Alpha virt. eigenvalues --    0.02072   0.02326   0.02514   0.02693   0.03093
 Alpha virt. eigenvalues --    0.03592   0.03643   0.03911   0.04175   0.04452
 Alpha virt. eigenvalues --    0.04596   0.04898   0.05166   0.05582   0.05861
 Alpha virt. eigenvalues --    0.06070   0.06179   0.06431   0.06771   0.07097
 Alpha virt. eigenvalues --    0.07165   0.07450   0.07785   0.08040   0.08118
 Alpha virt. eigenvalues --    0.08338   0.08624   0.08811   0.09002   0.09474
 Alpha virt. eigenvalues --    0.09668   0.09869   0.10153   0.10477   0.10558
 Alpha virt. eigenvalues --    0.11165   0.11204   0.11599   0.11727   0.11793
 Alpha virt. eigenvalues --    0.12295   0.12736   0.12885   0.13139   0.13347
 Alpha virt. eigenvalues --    0.13490   0.13754   0.14155   0.14241   0.14433
 Alpha virt. eigenvalues --    0.14739   0.14894   0.14983   0.15022   0.15304
 Alpha virt. eigenvalues --    0.15466   0.15698   0.16051   0.16259   0.16588
 Alpha virt. eigenvalues --    0.16716   0.16983   0.17202   0.17392   0.17543
 Alpha virt. eigenvalues --    0.17880   0.17949   0.18191   0.18432   0.18618
 Alpha virt. eigenvalues --    0.18813   0.19156   0.19224   0.19469   0.19720
 Alpha virt. eigenvalues --    0.19852   0.19995   0.20144   0.20322   0.20585
 Alpha virt. eigenvalues --    0.20716   0.20927   0.21025   0.21246   0.21600
 Alpha virt. eigenvalues --    0.21664   0.21771   0.22165   0.22263   0.22446
 Alpha virt. eigenvalues --    0.22971   0.23050   0.23087   0.23273   0.23368
 Alpha virt. eigenvalues --    0.23569   0.23970   0.24040   0.24223   0.24431
 Alpha virt. eigenvalues --    0.24746   0.24847   0.25145   0.25310   0.25552
 Alpha virt. eigenvalues --    0.25722   0.26021   0.26218   0.26239   0.26400
 Alpha virt. eigenvalues --    0.26699   0.26734   0.26863   0.26915   0.27244
 Alpha virt. eigenvalues --    0.27545   0.27653   0.27976   0.28304   0.28504
 Alpha virt. eigenvalues --    0.28802   0.28959   0.29370   0.29511   0.29767
 Alpha virt. eigenvalues --    0.30137   0.30339   0.30418   0.30635   0.30983
 Alpha virt. eigenvalues --    0.31217   0.31311   0.31378   0.31703   0.31869
 Alpha virt. eigenvalues --    0.32175   0.32502   0.32706   0.32738   0.33209
 Alpha virt. eigenvalues --    0.33511   0.33848   0.34082   0.34537   0.34743
 Alpha virt. eigenvalues --    0.34838   0.35195   0.35618   0.35839   0.36047
 Alpha virt. eigenvalues --    0.36479   0.36805   0.37240   0.37630   0.37784
 Alpha virt. eigenvalues --    0.38143   0.38587   0.38736   0.39181   0.39456
 Alpha virt. eigenvalues --    0.39973   0.40108   0.40788   0.41408   0.41510
 Alpha virt. eigenvalues --    0.41716   0.42541   0.42939   0.43168   0.43418
 Alpha virt. eigenvalues --    0.43499   0.43849   0.44513   0.44864   0.45150
 Alpha virt. eigenvalues --    0.45522   0.45634   0.45980   0.46156   0.47353
 Alpha virt. eigenvalues --    0.47801   0.47961   0.48238   0.48793   0.49171
 Alpha virt. eigenvalues --    0.49576   0.49642   0.49997   0.50816   0.51224
 Alpha virt. eigenvalues --    0.52111   0.53077   0.53183   0.53580   0.54029
 Alpha virt. eigenvalues --    0.54734   0.54780   0.54864   0.55200   0.55602
 Alpha virt. eigenvalues --    0.55953   0.56503   0.56586   0.57253   0.57425
 Alpha virt. eigenvalues --    0.57829   0.58479   0.58701   0.58857   0.59565
 Alpha virt. eigenvalues --    0.60169   0.60366   0.60780   0.60837   0.61433
 Alpha virt. eigenvalues --    0.61558   0.61746   0.62383   0.62822   0.63448
 Alpha virt. eigenvalues --    0.63716   0.64052   0.64137   0.64385   0.64928
 Alpha virt. eigenvalues --    0.65262   0.65765   0.65831   0.66492   0.66721
 Alpha virt. eigenvalues --    0.66914   0.67273   0.67808   0.68002   0.68484
 Alpha virt. eigenvalues --    0.68966   0.69561   0.69757   0.70217   0.70588
 Alpha virt. eigenvalues --    0.71057   0.71520   0.71782   0.72297   0.72465
 Alpha virt. eigenvalues --    0.72764   0.72989   0.73132   0.73444   0.73866
 Alpha virt. eigenvalues --    0.74250   0.74363   0.74692   0.74846   0.75224
 Alpha virt. eigenvalues --    0.75773   0.76004   0.76457   0.76877   0.77385
 Alpha virt. eigenvalues --    0.77501   0.77854   0.78100   0.79002   0.79169
 Alpha virt. eigenvalues --    0.79533   0.80279   0.80896   0.81215   0.81612
 Alpha virt. eigenvalues --    0.82104   0.83213   0.84004   0.84222   0.85448
 Alpha virt. eigenvalues --    0.85879   0.86995   0.87623   0.87926   0.88474
 Alpha virt. eigenvalues --    0.88783   0.89700   0.90251   0.90539   0.91102
 Alpha virt. eigenvalues --    0.91999   0.92148   0.92739   0.93045   0.93305
 Alpha virt. eigenvalues --    0.93444   0.93848   0.94527   0.95040   0.95627
 Alpha virt. eigenvalues --    0.95928   0.96289   0.96884   0.96938   0.97286
 Alpha virt. eigenvalues --    0.97437   0.97634   0.99150   0.99501   1.00268
 Alpha virt. eigenvalues --    1.01028   1.01367   1.01458   1.01843   1.02341
 Alpha virt. eigenvalues --    1.02637   1.02957   1.03363   1.03910   1.04696
 Alpha virt. eigenvalues --    1.05013   1.05219   1.05745   1.06021   1.06251
 Alpha virt. eigenvalues --    1.06592   1.06827   1.07650   1.08187   1.08789
 Alpha virt. eigenvalues --    1.09036   1.09259   1.09796   1.10345   1.10938
 Alpha virt. eigenvalues --    1.11561   1.12289   1.12943   1.14606   1.14864
 Alpha virt. eigenvalues --    1.15755   1.15840   1.17539   1.17797   1.18294
 Alpha virt. eigenvalues --    1.18586   1.19394   1.19909   1.20907   1.21499
 Alpha virt. eigenvalues --    1.22449   1.22708   1.23517   1.24278   1.24900
 Alpha virt. eigenvalues --    1.25398   1.25586   1.26558   1.26976   1.27583
 Alpha virt. eigenvalues --    1.28089   1.28277   1.30093   1.30587   1.31468
 Alpha virt. eigenvalues --    1.32308   1.32945   1.33425   1.33950   1.34936
 Alpha virt. eigenvalues --    1.35176   1.36592   1.36985   1.37807   1.39555
 Alpha virt. eigenvalues --    1.40257   1.41076   1.42038   1.42159   1.42277
 Alpha virt. eigenvalues --    1.42789   1.43082   1.43341   1.44028   1.44453
 Alpha virt. eigenvalues --    1.44602   1.45331   1.45606   1.45796   1.46009
 Alpha virt. eigenvalues --    1.46389   1.47015   1.47862   1.48786   1.49761
 Alpha virt. eigenvalues --    1.50678   1.50801   1.51305   1.51696   1.52454
 Alpha virt. eigenvalues --    1.53308   1.53515   1.54076   1.54280   1.54762
 Alpha virt. eigenvalues --    1.54936   1.55321   1.55934   1.56263   1.57256
 Alpha virt. eigenvalues --    1.58148   1.58564   1.59315   1.60996   1.61376
 Alpha virt. eigenvalues --    1.62342   1.62536   1.63119   1.63637   1.63798
 Alpha virt. eigenvalues --    1.65018   1.65774   1.66392   1.66530   1.67180
 Alpha virt. eigenvalues --    1.67932   1.68743   1.68828   1.69054   1.69737
 Alpha virt. eigenvalues --    1.70206   1.70478   1.70769   1.71419   1.71962
 Alpha virt. eigenvalues --    1.72902   1.73974   1.74062   1.74999   1.75686
 Alpha virt. eigenvalues --    1.76178   1.76811   1.77384   1.77842   1.78958
 Alpha virt. eigenvalues --    1.79218   1.79634   1.80013   1.80390   1.82004
 Alpha virt. eigenvalues --    1.82892   1.83976   1.85758   1.86280   1.86651
 Alpha virt. eigenvalues --    1.86874   1.87071   1.87410   1.88273   1.88518
 Alpha virt. eigenvalues --    1.88787   1.89783   1.90360   1.90888   1.91569
 Alpha virt. eigenvalues --    1.91620   1.92310   1.93748   1.94099   1.95584
 Alpha virt. eigenvalues --    1.95989   1.96842   1.97334   1.98962   1.99240
 Alpha virt. eigenvalues --    1.99852   2.00362   2.00981   2.01015   2.02277
 Alpha virt. eigenvalues --    2.02835   2.03085   2.03729   2.04045   2.04833
 Alpha virt. eigenvalues --    2.05213   2.05932   2.06826   2.07965   2.08197
 Alpha virt. eigenvalues --    2.08476   2.09968   2.10364   2.11167   2.11377
 Alpha virt. eigenvalues --    2.11755   2.12363   2.13673   2.14488   2.15119
 Alpha virt. eigenvalues --    2.15285   2.17172   2.17926   2.18661   2.19299
 Alpha virt. eigenvalues --    2.19683   2.20645   2.21321   2.21514   2.22659
 Alpha virt. eigenvalues --    2.23161   2.26182   2.26386   2.27765   2.28436
 Alpha virt. eigenvalues --    2.32446   2.32720   2.33669   2.35031   2.36645
 Alpha virt. eigenvalues --    2.37963   2.39611   2.40257   2.41336   2.42733
 Alpha virt. eigenvalues --    2.43174   2.43335   2.44313   2.45426   2.46245
 Alpha virt. eigenvalues --    2.46473   2.47261   2.47887   2.48531   2.49337
 Alpha virt. eigenvalues --    2.50543   2.51423   2.51946   2.52484   2.52571
 Alpha virt. eigenvalues --    2.53067   2.53429   2.54048   2.54389   2.56095
 Alpha virt. eigenvalues --    2.56448   2.57778   2.58684   2.59123   2.60631
 Alpha virt. eigenvalues --    2.63208   2.63316   2.63802   2.65305   2.66885
 Alpha virt. eigenvalues --    2.67027   2.67660   2.67724   2.68312   2.68885
 Alpha virt. eigenvalues --    2.69441   2.70247   2.70900   2.71323   2.71657
 Alpha virt. eigenvalues --    2.71942   2.72431   2.73087   2.73797   2.75388
 Alpha virt. eigenvalues --    2.76389   2.76759   2.77669   2.78198   2.80555
 Alpha virt. eigenvalues --    2.81687   2.82628   2.82968   2.83312   2.84131
 Alpha virt. eigenvalues --    2.84272   2.84839   2.86157   2.86879   2.87586
 Alpha virt. eigenvalues --    2.87942   2.88877   2.89094   2.89683   2.89984
 Alpha virt. eigenvalues --    2.91443   2.92517   2.92949   2.93550   2.94763
 Alpha virt. eigenvalues --    2.95208   2.95810   2.96204   2.96724   2.99516
 Alpha virt. eigenvalues --    3.00291   3.02412   3.02959   3.03479   3.04168
 Alpha virt. eigenvalues --    3.06404   3.06619   3.07958   3.09156   3.10226
 Alpha virt. eigenvalues --    3.11013   3.12791   3.14304   3.14675   3.15145
 Alpha virt. eigenvalues --    3.16918   3.17688   3.18985   3.21171   3.21599
 Alpha virt. eigenvalues --    3.22994   3.23336   3.23689   3.25110   3.27421
 Alpha virt. eigenvalues --    3.29205   3.29824   3.30999   3.32011   3.34617
 Alpha virt. eigenvalues --    3.34848   3.35277   3.35610   3.36620   3.37651
 Alpha virt. eigenvalues --    3.38662   3.40036   3.40949   3.43053   3.43870
 Alpha virt. eigenvalues --    3.44945   3.45715   3.46592   3.49545   3.49735
 Alpha virt. eigenvalues --    3.51402   3.53939   3.55659   3.58411   3.60401
 Alpha virt. eigenvalues --    3.61068   3.62739   3.65529   3.66268   3.66905
 Alpha virt. eigenvalues --    3.70032   3.71156   3.72613   3.73746   3.75125
 Alpha virt. eigenvalues --    3.76426   3.76689   3.81214   3.82508   3.84405
 Alpha virt. eigenvalues --    3.85620   3.86470   3.89801   3.91198   3.93166
 Alpha virt. eigenvalues --    3.93379   3.95229   3.96960   4.01450   4.02863
 Alpha virt. eigenvalues --    4.04399   4.07986   4.10167   4.12835   4.14026
 Alpha virt. eigenvalues --    4.19708   4.23970   4.25433   4.27244   4.35493
 Alpha virt. eigenvalues --    4.39303   4.40841   4.51741   4.68076   4.84750
 Alpha virt. eigenvalues --    4.85667   4.87295   4.90328   5.01295   5.02490
 Alpha virt. eigenvalues --    5.04127   5.05586   5.06157   5.09373   5.11527
 Alpha virt. eigenvalues --    5.12950   5.25131   5.27022   5.28917   5.30388
 Alpha virt. eigenvalues --    5.41771   5.42870   5.76107   5.76407   5.80167
 Alpha virt. eigenvalues --    5.80416   5.82286   5.85051   8.02369   8.05607
 Alpha virt. eigenvalues --   17.28862  17.32892  17.49368  17.52373  17.57714
 Alpha virt. eigenvalues --   17.63247  23.48836  23.56099  23.71734  23.79396
 Alpha virt. eigenvalues --   23.82331  23.83184  23.85342  23.87353  23.87447
 Alpha virt. eigenvalues --   23.88206  23.88856  23.90075  23.91157  23.93561
 Alpha virt. eigenvalues --   23.94998  23.96184  23.96464  23.99582  24.01530
 Alpha virt. eigenvalues --   24.01614  24.02816  24.05631  24.10409  24.13827
 Alpha virt. eigenvalues --   24.14675  24.14799  35.55992  35.58612  49.95887
 Alpha virt. eigenvalues --   49.97403  50.02417  50.04262  50.06216  50.07633
 Alpha virt. eigenvalues --  189.19598 189.23327
          Condensed to atoms (all electrons):
 Mulliken charges:
               1
     1  C    0.294987
     2  C    0.014155
     3  C    0.200904
     4  C    0.245445
     5  C    0.205892
     6  C    0.048478
     7  C    0.170716
     8  C    0.152946
     9  C    0.247321
    10  C   -0.397230
    11  C    0.297566
    12  C    0.100051
    13  C   -0.476014
    14  C   -0.609934
    15  H    0.158402
    16  H    0.160778
    17  H    0.160504
    18  N   -0.098954
    19  N   -0.143070
    20  O   -0.284344
    21  O   -0.268948
    22  O   -0.280462
    23  O   -0.221557
    24  C   -0.181026
    25  H    0.177780
    26  H    0.174438
    27  H    0.181975
    28  C   -0.193911
    29  H    0.173894
    30  H    0.173132
    31  H    0.182088
    32  C   -0.023706
    33  C   -0.706821
    34  S   -0.619484
    35  C   -0.142114
    36  H    0.134538
    37  C    0.770159
    38  O   -0.137567
    39  C    0.874311
    40  C   -0.226483
    41  C   -0.017461
    42  S   -0.251871
    43  H    0.166950
    44  H    0.145945
    45  H    0.153953
    46  C   -0.596333
    47  O   -0.127197
    48  C   -0.275047
    49  H    0.132341
    50  C   -0.242197
    51  H    0.161812
    52  H    0.145399
    53  H    0.167265
    54  H    0.147609
 Sum of Mulliken charges =  -0.00000
 Mulliken charges with hydrogens summed into heavy atoms:
               1
     1  C    0.294987
     2  C    0.014155
     3  C    0.200904
     4  C    0.245445
     5  C    0.205892
     6  C    0.208981
     7  C    0.170716
     8  C    0.152946
     9  C    0.247321
    10  C   -0.397230
    11  C    0.297566
    12  C    0.100051
    13  C   -0.315236
    14  C   -0.451531
    18  N   -0.098954
    19  N   -0.143070
    20  O   -0.284344
    21  O   -0.268948
    22  O   -0.280462
    23  O   -0.221557
    24  C    0.353166
    28  C    0.335202
    32  C   -0.023706
    33  C   -0.572284
    34  S   -0.619484
    35  C   -0.142114
    37  C    0.770159
    38  O   -0.137567
    39  C    0.874311
    40  C    0.240365
    41  C   -0.017461
    42  S   -0.251871
    46  C   -0.463992
    47  O   -0.127197
    48  C   -0.113235
    50  C    0.218076
 Electronic spatial extent (au):  <R**2>=          22190.8060
 Charge=             -0.0000 electrons
 Dipole moment (field-independent basis, Debye):
    X=              4.7281    Y=             -0.7599    Z=             -0.5552  Tot=              4.8208
 Quadrupole moment (field-independent basis, Debye-Ang):
   XX=           -213.0083   YY=           -217.2865   ZZ=           -217.3306
   XY=             10.3524   XZ=            -11.4642   YZ=            -12.3387
 Traceless Quadrupole moment (field-independent basis, Debye-Ang):
   XX=              2.8668   YY=             -1.4113   ZZ=             -1.4555
   XY=             10.3524   XZ=            -11.4642   YZ=            -12.3387
 Octapole moment (field-independent basis, Debye-Ang**2):
  XXX=            361.2992  YYY=            -47.5593  ZZZ=              0.4199  XYY=            107.6297
  XXY=             18.0101  XXZ=            -42.6113  XZZ=             16.9721  YZZ=             -0.4209
  YYZ=             11.9289  XYZ=            -47.6740
 Hexadecapole moment (field-independent basis, Debye-Ang**3):
 XXXX=         -21015.9596 YYYY=          -7369.9311 ZZZZ=          -1209.6011 XXXY=            178.3037
 XXXZ=           -622.0529 YYYX=            434.3559 YYYZ=            -88.4656 ZZZX=             -5.4902
 ZZZY=            -38.8996 XXYY=          -4596.9064 XXZZ=          -3789.0449 YYZZ=          -1294.3998
 XXYZ=           -261.6631 YYXZ=             43.6406 ZZXY=             62.8707
 N-N= 4.099249546338D+03 E-N=-1.373862490236D+04  KE= 2.352056544365D+03
 Unable to Open any file for archive entry.
 1\1\GINC-CX3-5-27\FOpt\RB3LYP\6-311+G(d,p)\C26H18N2O6S2\NS5018\29-Nov-
 2020\0\\# opt=modredundant b3lyp/6-311+g(d,p)\\NDI_155.pdb\\0,1\C,-2.3
 24668703,-2.8068793315,-0.6060314877\C,-2.1449707094,-1.3767146861,-0.
 2428130293\C,-3.2643489817,-0.5207316395,-0.1285013845\C,-4.5666176372
 ,-1.0077735686,-0.3585776342\C,-4.7821084899,-2.4306879993,-0.73382498
 15\C,-0.8810474342,-0.8859468704,-0.0458302697\C,-3.0488889101,0.83482
 10085,0.2424205243\C,-1.7286236312,1.3318129696,0.459430805\C,-0.61440
 0937,0.4784178933,0.2776987583\C,-1.5970303359,2.6947969006,1.03548200
 57\C,-4.0537844283,3.071207027,0.8249321619\C,-4.190158888,1.662839624
 7,0.3884613619\C,-5.46383421,1.1680754763,0.1474122476\C,-5.6590682463
 ,-0.164553076,-0.2288285707\H,-6.6513434173,-0.556129451,-0.4119211856
 \H,-6.3035918495,1.8410138459,0.2664707801\H,-0.0546858461,-1.56493324
 49,-0.2016976256\N,-2.7604693922,3.4775257382,1.1555873779\N,-3.636206
 5968,-3.240564891,-0.826660209\O,-1.391892157,-3.5822186257,-0.7162640
 748\O,-5.8908593995,-2.8826600154,-0.9487484936\O,-5.0072875192,3.8253
 967613,0.9158412314\O,-0.540821803,3.1698385989,1.4121854164\C,-2.5689
 618373,4.8329380157,1.6908694731\H,-2.1331859477,4.7772620164,2.688412
 2853\H,-1.8858182498,5.3906627773,1.0498397522\H,-3.5402624512,5.31623
 14445,1.7230208455\C,-3.8024631884,-4.6549901577,-1.1905435421\H,-3.23
 67095,-4.8700522707,-2.0971540296\H,-3.4229269042,-5.2889182254,-0.388
 6760623\H,-4.8606668617,-4.8365865823,-1.3491257912\C,0.8074434998,0.8
 283758322,0.279198235\C,1.8320121376,-0.0572787597,0.5873159566\S,1.46
 35436812,2.2881159103,-0.4156805039\C,3.1126758002,0.4368079317,0.2882
 899052\H,1.6558587901,-1.0215255718,1.0407135827\C,3.1067391569,1.7001
 755747,-0.3059100932\O,4.3008173314,-0.1812330652,0.5262602104\C,4.239
 0546566,2.4614602534,-0.7525764171\C,4.2713405546,-1.5203558039,1.0106
 594796\C,4.23723303,3.718548234,-1.3500911445\S,5.8975055068,1.8875435
 819,-0.6101196356\H,5.3110533047,-1.832489045,1.0901830301\H,3.8006166
 254,-1.5722417884,1.9978772246\H,3.7436308896,-2.1797601025,0.31396326
 95\C,5.530244715,4.2080151633,-1.6810416586\O,3.0564349421,4.351903304
 4,-1.5633709084\C,6.5146156756,3.3226492899,-1.3387999578\H,5.72361868
 26,5.1624998167,-2.1481424476\C,3.0842580277,5.6534258878,-2.142209359
 9\H,7.5790802094,3.4369737627,-1.4755235204\H,3.5229233652,5.629012398
 6,-3.144868551\H,2.0456425685,5.9717507638,-2.2086386249\H,3.640361312
 3,6.3531269682,-1.510354726\\Version=ES64L-G16RevC.01\State=1-A\HF=-23
 59.3357929\RMSD=4.755e-09\RMSF=5.826e-04\Dipole=1.8036998,0.4620617,-0
 .3612086\Quadrupole=-4.5739013,6.9767367,-2.4028354,5.7406546,-3.55951
 87,-11.6678332\PG=C01 [X(C26H18N2O6S2)]\\@
 The archive entry for this job was punched.


 QED = W**5 (WHICH WAS WHAT WE WANTED)
 Job cpu time:       2 days  8 hours 56 minutes  6.7 seconds.
 Elapsed time:       0 days  7 hours 12 minutes  3.8 seconds.
 File lengths (MBytes):  RWF=    496 Int=      0 D2E=      0 Chk=     61 Scr=      1
 Normal termination of Gaussian 16 at Sun Nov 29 18:44:45 2020.
