 Entering Gaussian System, Link 0=g16
 Input=NDI_-15.gjf
 Output=NDI_-15.log
 Initial command:
 /apps/gaussian/g16-c01-avx/g16/l1.exe "/tmp/pbs.2625174[33].pbs/Gau-1148507.inp" -scrdir="/tmp/pbs.2625174[33].pbs/"
 Entering Link 1 = /apps/gaussian/g16-c01-avx/g16/l1.exe PID=   1148509.
  
 Copyright (c) 1988-2019, Gaussian, Inc.  All Rights Reserved.
  
 This is part of the Gaussian(R) 16 program.  It is based on
 the Gaussian(R) 09 system (copyright 2009, Gaussian, Inc.),
 the Gaussian(R) 03 system (copyright 2003, Gaussian, Inc.),
 the Gaussian(R) 98 system (copyright 1998, Gaussian, Inc.),
 the Gaussian(R) 94 system (copyright 1995, Gaussian, Inc.),
 the Gaussian 92(TM) system (copyright 1992, Gaussian, Inc.),
 the Gaussian 90(TM) system (copyright 1990, Gaussian, Inc.),
 the Gaussian 88(TM) system (copyright 1988, Gaussian, Inc.),
 the Gaussian 86(TM) system (copyright 1986, Carnegie Mellon
 University), and the Gaussian 82(TM) system (copyright 1983,
 Carnegie Mellon University). Gaussian is a federally registered
 trademark of Gaussian, Inc.
  
 This software contains proprietary and confidential information,
 including trade secrets, belonging to Gaussian, Inc.
  
 This software is provided under written license and may be
 used, copied, transmitted, or stored only in accord with that
 written license.
  
 The following legend is applicable only to US Government
 contracts under FAR:
  
                    RESTRICTED RIGHTS LEGEND
  
 Use, reproduction and disclosure by the US Government is
 subject to restrictions as set forth in subparagraphs (a)
 and (c) of the Commercial Computer Software - Restricted
 Rights clause in FAR 52.227-19.
  
 Gaussian, Inc.
 340 Quinnipiac St., Bldg. 40, Wallingford CT 06492
  
  
 ---------------------------------------------------------------
 Warning -- This program may not be used in any manner that
 competes with the business of Gaussian, Inc. or will provide
 assistance to any competitor of Gaussian, Inc.  The licensee
 of this program is prohibited from giving any competitor of
 Gaussian, Inc. access to this program.  By using this program,
 the user acknowledges that Gaussian, Inc. is engaged in the
 business of creating and licensing software in the field of
 computational chemistry and represents and warrants to the
 licensee that it is not a competitor of Gaussian, Inc. and that
 it will not use this program in any manner prohibited above.
 ---------------------------------------------------------------
  

 Cite this work as:
 Gaussian 16, Revision C.01,
 M. J. Frisch, G. W. Trucks, H. B. Schlegel, G. E. Scuseria, 
 M. A. Robb, J. R. Cheeseman, G. Scalmani, V. Barone, 
 G. A. Petersson, H. Nakatsuji, X. Li, M. Caricato, A. V. Marenich, 
 J. Bloino, B. G. Janesko, R. Gomperts, B. Mennucci, H. P. Hratchian, 
 J. V. Ortiz, A. F. Izmaylov, J. L. Sonnenberg, D. Williams-Young, 
 F. Ding, F. Lipparini, F. Egidi, J. Goings, B. Peng, A. Petrone, 
 T. Henderson, D. Ranasinghe, V. G. Zakrzewski, J. Gao, N. Rega, 
 G. Zheng, W. Liang, M. Hada, M. Ehara, K. Toyota, R. Fukuda, 
 J. Hasegawa, M. Ishida, T. Nakajima, Y. Honda, O. Kitao, H. Nakai, 
 T. Vreven, K. Throssell, J. A. Montgomery, Jr., J. E. Peralta, 
 F. Ogliaro, M. J. Bearpark, J. J. Heyd, E. N. Brothers, K. N. Kudin, 
 V. N. Staroverov, T. A. Keith, R. Kobayashi, J. Normand, 
 K. Raghavachari, A. P. Rendell, J. C. Burant, S. S. Iyengar, 
 J. Tomasi, M. Cossi, J. M. Millam, M. Klene, C. Adamo, R. Cammi, 
 J. W. Ochterski, R. L. Martin, K. Morokuma, O. Farkas, 
 J. B. Foresman, and D. J. Fox, Gaussian, Inc., Wallingford CT, 2019.
 
 ******************************************
 Gaussian 16:  ES64L-G16RevC.01  3-Jul-2019
                29-Nov-2020 
 ******************************************
 %mem=10GB
 %nprocshared=8
 Will use up to    8 processors via shared memory.
 -------------------------------------
 # opt=modredundant b3lyp/6-311+g(d,p)
 -------------------------------------
 1/18=120,19=15,26=3,38=1/1,3;
 2/9=110,12=2,17=6,18=5,40=1/2;
 3/5=4,6=6,7=111,11=2,25=1,30=1,71=1,74=-5/1,2,3;
 4//1;
 5/5=2,38=5/2;
 6/7=2,8=2,9=2,10=2,28=1/1;
 7//1,2,3,16;
 1/18=20,19=15,26=3/3(2);
 2/9=110/2;
 99//99;
 2/9=110/2;
 3/5=4,6=6,7=111,11=2,25=1,30=1,71=1,74=-5/1,2,3;
 4/5=5,16=3,69=1/1;
 5/5=2,38=5/2;
 7//1,2,3,16;
 1/18=20,19=15,26=3/3(-5);
 2/9=110/2;
 6/7=2,8=2,9=2,10=2,19=2,28=1/1;
 99/9=1/99;
 -----------
 NDI_-15.pdb
 -----------
 Symbolic Z-matrix:
 Charge =  0 Multiplicity = 1
 C                    -2.563    -2.994    -0.409 
 C                    -2.257    -1.551    -0.224 
 C                    -3.301    -0.607    -0.083 
 C                    -4.65     -1.024    -0.115 
 C                    -4.992    -2.459    -0.304 
 C                    -0.949    -1.137    -0.215 
 C                    -2.962     0.764     0.102 
 C                    -1.595     1.188     0.123 
 C                    -0.561     0.232    -0.072 
 C                    -1.328     2.616     0.446 
 C                    -3.777     3.115     0.508 
 C                    -4.035     1.679     0.268 
 C                    -5.356     1.252     0.23 
 C                    -5.672    -0.098     0.036 
 H                    -6.699    -0.442     0.008 
 H                    -6.133     1.997     0.361 
 H                    -0.19     -1.895    -0.369 
 N                    -2.432     3.476     0.608 
 N                    -3.916    -3.353    -0.438 
 O                    -1.695    -3.847    -0.532 
 O                    -6.149    -2.85     -0.34 
 O                    -4.676     3.938     0.629 
 O                    -0.212     3.097     0.596 
 C                    -2.111     4.875     0.912 
 H                    -1.54      4.931     1.84 
 H                    -1.5       5.299     0.111 
 H                    -3.05      5.414     1.003 
 C                    -4.206    -4.779    -0.625 
 H                    -3.759    -5.126    -1.559 
 H                    -3.775    -5.355     0.196 
 H                    -5.286    -4.897    -0.649 
 C                     0.876     0.482    -0.178 
 C                     1.576     1.653    -0.393 
 S                     1.979    -0.894    -0.191 
 C                     2.962     1.458    -0.559 
 H                     1.102     2.621    -0.42 
 C                     3.373     0.125    -0.47 
 O                     3.893     2.422    -0.788 
 C                     4.711    -0.389    -0.552 
 C                     3.462     3.779    -0.731 
 C                     5.117    -1.72     -0.486 
 S                     6.125     0.642    -0.76 
 H                     4.359     4.385    -0.859 
 H                     2.753     4.005    -1.537 
 H                     2.997     4.007     0.236 
 C                     6.523    -1.908    -0.599 
 O                     4.181    -2.692    -0.322 
 C                     7.186    -0.72     -0.751 
 H                     7.017    -2.869    -0.57 
 C                     4.622    -4.045    -0.294 
 H                     8.252    -0.571    -0.861 
 H                     5.3      -4.225     0.549 
 H                     3.725    -4.651    -0.172 
 H                     5.123    -4.32     -1.23 
 
 The following ModRedundant input section has been read:
 D       8       9      32      33 F                                           
 D      33      35      38      40 F                                           
 D      46      41      47      50 F                                           
 D      10      18      24      25 F                                           
 D       1      19      28      30 F                                           
 D       9       8      10      23 F                                           
 D      20       1       2       6 F                                           
 

 GradGradGradGradGradGradGradGradGradGradGradGradGradGradGradGradGradGrad
 Berny optimization.
 Initialization pass.
                           ----------------------------
                           !    Initial Parameters    !
                           ! (Angstroms and Degrees)  !
 --------------------------                            --------------------------
 ! Name  Definition              Value          Derivative Info.                !
 --------------------------------------------------------------------------------
 ! R1    R(1,2)                  1.4866         estimate D2E/DX2                !
 ! R2    R(1,19)                 1.4001         estimate D2E/DX2                !
 ! R3    R(1,20)                 1.2232         estimate D2E/DX2                !
 ! R4    R(2,3)                  1.4146         estimate D2E/DX2                !
 ! R5    R(2,6)                  1.372          estimate D2E/DX2                !
 ! R6    R(3,4)                  1.4123         estimate D2E/DX2                !
 ! R7    R(3,7)                  1.4244         estimate D2E/DX2                !
 ! R8    R(4,5)                  1.4872         estimate D2E/DX2                !
 ! R9    R(4,14)                 1.3874         estimate D2E/DX2                !
 ! R10   R(5,19)                 1.4053         estimate D2E/DX2                !
 ! R11   R(5,21)                 1.2218         estimate D2E/DX2                !
 ! R12   R(6,9)                  1.4301         estimate D2E/DX2                !
 ! R13   R(6,17)                 1.0837         estimate D2E/DX2                !
 ! R14   R(7,8)                  1.4314         estimate D2E/DX2                !
 ! R15   R(7,12)                 1.4199         estimate D2E/DX2                !
 ! R16   R(8,9)                  1.4217         estimate D2E/DX2                !
 ! R17   R(8,10)                 1.4882         estimate D2E/DX2                !
 ! R18   R(9,32)                 1.4624         estimate D2E/DX2                !
 ! R19   R(10,18)                1.4088         estimate D2E/DX2                !
 ! R20   R(10,23)                1.2245         estimate D2E/DX2                !
 ! R21   R(11,12)                1.4786         estimate D2E/DX2                !
 ! R22   R(11,18)                1.3962         estimate D2E/DX2                !
 ! R23   R(11,22)                1.2248         estimate D2E/DX2                !
 ! R24   R(12,13)                1.3888         estimate D2E/DX2                !
 ! R25   R(13,14)                1.4            estimate D2E/DX2                !
 ! R26   R(13,16)                1.0844         estimate D2E/DX2                !
 ! R27   R(14,15)                1.0834         estimate D2E/DX2                !
 ! R28   R(18,24)                1.4672         estimate D2E/DX2                !
 ! R29   R(19,28)                1.4672         estimate D2E/DX2                !
 ! R30   R(24,25)                1.091          estimate D2E/DX2                !
 ! R31   R(24,26)                1.093          estimate D2E/DX2                !
 ! R32   R(24,27)                1.0865         estimate D2E/DX2                !
 ! R33   R(28,29)                1.0921         estimate D2E/DX2                !
 ! R34   R(28,30)                1.0916         estimate D2E/DX2                !
 ! R35   R(28,31)                1.0867         estimate D2E/DX2                !
 ! R36   R(32,33)                1.3811         estimate D2E/DX2                !
 ! R37   R(32,34)                1.7636         estimate D2E/DX2                !
 ! R38   R(33,35)                1.4095         estimate D2E/DX2                !
 ! R39   R(33,36)                1.0782         estimate D2E/DX2                !
 ! R40   R(34,37)                1.7491         estimate D2E/DX2                !
 ! R41   R(35,37)                1.3978         estimate D2E/DX2                !
 ! R42   R(35,38)                1.3596         estimate D2E/DX2                !
 ! R43   R(37,39)                1.4357         estimate D2E/DX2                !
 ! R44   R(38,40)                1.4249         estimate D2E/DX2                !
 ! R45   R(39,41)                1.3931         estimate D2E/DX2                !
 ! R46   R(39,42)                1.7623         estimate D2E/DX2                !
 ! R47   R(40,43)                1.0901         estimate D2E/DX2                !
 ! R48   R(40,44)                1.097          estimate D2E/DX2                !
 ! R49   R(40,45)                1.0969         estimate D2E/DX2                !
 ! R50   R(41,46)                1.423          estimate D2E/DX2                !
 ! R51   R(41,47)                1.3593         estimate D2E/DX2                !
 ! R52   R(42,48)                1.7265         estimate D2E/DX2                !
 ! R53   R(46,48)                1.3689         estimate D2E/DX2                !
 ! R54   R(46,49)                1.0809         estimate D2E/DX2                !
 ! R55   R(47,50)                1.4233         estimate D2E/DX2                !
 ! R56   R(48,51)                1.082          estimate D2E/DX2                !
 ! R57   R(50,52)                1.0967         estimate D2E/DX2                !
 ! R58   R(50,53)                1.0894         estimate D2E/DX2                !
 ! R59   R(50,54)                1.0967         estimate D2E/DX2                !
 ! A1    A(2,1,19)             116.767          estimate D2E/DX2                !
 ! A2    A(2,1,20)             122.9113         estimate D2E/DX2                !
 ! A3    A(19,1,20)            120.3217         estimate D2E/DX2                !
 ! A4    A(1,2,3)              120.5473         estimate D2E/DX2                !
 ! A5    A(1,2,6)              119.3369         estimate D2E/DX2                !
 ! A6    A(3,2,6)              120.1056         estimate D2E/DX2                !
 ! A7    A(2,3,4)              120.3743         estimate D2E/DX2                !
 ! A8    A(2,3,7)              118.662          estimate D2E/DX2                !
 ! A9    A(4,3,7)              120.9617         estimate D2E/DX2                !
 ! A10   A(3,4,5)              120.4909         estimate D2E/DX2                !
 ! A11   A(3,4,14)             120.2702         estimate D2E/DX2                !
 ! A12   A(5,4,14)             119.2382         estimate D2E/DX2                !
 ! A13   A(4,5,19)             116.7341         estimate D2E/DX2                !
 ! A14   A(4,5,21)             122.024          estimate D2E/DX2                !
 ! A15   A(19,5,21)            121.2418         estimate D2E/DX2                !
 ! A16   A(2,6,9)              123.2421         estimate D2E/DX2                !
 ! A17   A(2,6,17)             117.1119         estimate D2E/DX2                !
 ! A18   A(9,6,17)             119.589          estimate D2E/DX2                !
 ! A19   A(3,7,8)              120.9519         estimate D2E/DX2                !
 ! A20   A(3,7,12)             117.1037         estimate D2E/DX2                !
 ! A21   A(8,7,12)             121.944          estimate D2E/DX2                !
 ! A22   A(7,8,9)              119.5639         estimate D2E/DX2                !
 ! A23   A(7,8,10)             117.3064         estimate D2E/DX2                !
 ! A24   A(9,8,10)             122.9922         estimate D2E/DX2                !
 ! A25   A(6,9,8)              117.3944         estimate D2E/DX2                !
 ! A26   A(6,9,32)             115.0236         estimate D2E/DX2                !
 ! A27   A(8,9,32)             127.5648         estimate D2E/DX2                !
 ! A28   A(8,10,18)            118.042          estimate D2E/DX2                !
 ! A29   A(8,10,23)            124.5436         estimate D2E/DX2                !
 ! A30   A(18,10,23)           117.4097         estimate D2E/DX2                !
 ! A31   A(12,11,18)           115.5202         estimate D2E/DX2                !
 ! A32   A(12,11,22)           122.7205         estimate D2E/DX2                !
 ! A33   A(18,11,22)           121.7534         estimate D2E/DX2                !
 ! A34   A(7,12,11)            120.8614         estimate D2E/DX2                !
 ! A35   A(7,12,13)            121.162          estimate D2E/DX2                !
 ! A36   A(11,12,13)           117.9699         estimate D2E/DX2                !
 ! A37   A(12,13,14)           120.9948         estimate D2E/DX2                !
 ! A38   A(12,13,16)           117.8401         estimate D2E/DX2                !
 ! A39   A(14,13,16)           121.1642         estimate D2E/DX2                !
 ! A40   A(4,14,13)            119.5003         estimate D2E/DX2                !
 ! A41   A(4,14,15)            118.9169         estimate D2E/DX2                !
 ! A42   A(13,14,15)           121.5811         estimate D2E/DX2                !
 ! A43   A(10,18,11)           126.0753         estimate D2E/DX2                !
 ! A44   A(10,18,24)           115.7508         estimate D2E/DX2                !
 ! A45   A(11,18,24)           118.1737         estimate D2E/DX2                !
 ! A46   A(1,19,5)             125.0856         estimate D2E/DX2                !
 ! A47   A(1,19,28)            116.2868         estimate D2E/DX2                !
 ! A48   A(5,19,28)            118.6276         estimate D2E/DX2                !
 ! A49   A(18,24,25)           109.8574         estimate D2E/DX2                !
 ! A50   A(18,24,26)           109.8979         estimate D2E/DX2                !
 ! A51   A(18,24,27)           107.5355         estimate D2E/DX2                !
 ! A52   A(25,24,26)           108.1108         estimate D2E/DX2                !
 ! A53   A(25,24,27)           110.8301         estimate D2E/DX2                !
 ! A54   A(26,24,27)           110.6124         estimate D2E/DX2                !
 ! A55   A(19,28,29)           109.6906         estimate D2E/DX2                !
 ! A56   A(19,28,30)           109.8136         estimate D2E/DX2                !
 ! A57   A(19,28,31)           107.7461         estimate D2E/DX2                !
 ! A58   A(29,28,30)           108.2991         estimate D2E/DX2                !
 ! A59   A(29,28,31)           110.6959         estimate D2E/DX2                !
 ! A60   A(30,28,31)           110.5924         estimate D2E/DX2                !
 ! A61   A(9,32,33)            130.8628         estimate D2E/DX2                !
 ! A62   A(9,32,34)            118.7975         estimate D2E/DX2                !
 ! A63   A(33,32,34)           110.0839         estimate D2E/DX2                !
 ! A64   A(32,33,35)           113.5428         estimate D2E/DX2                !
 ! A65   A(32,33,36)           122.8411         estimate D2E/DX2                !
 ! A66   A(35,33,36)           123.6134         estimate D2E/DX2                !
 ! A67   A(32,34,37)            92.5839         estimate D2E/DX2                !
 ! A68   A(33,35,37)           114.4305         estimate D2E/DX2                !
 ! A69   A(33,35,38)           126.5203         estimate D2E/DX2                !
 ! A70   A(37,35,38)           119.0492         estimate D2E/DX2                !
 ! A71   A(34,37,35)           109.3537         estimate D2E/DX2                !
 ! A72   A(34,37,39)           122.9075         estimate D2E/DX2                !
 ! A73   A(35,37,39)           127.7221         estimate D2E/DX2                !
 ! A74   A(35,38,40)           117.4756         estimate D2E/DX2                !
 ! A75   A(37,39,41)           127.6589         estimate D2E/DX2                !
 ! A76   A(37,39,42)           123.0293         estimate D2E/DX2                !
 ! A77   A(41,39,42)           109.3118         estimate D2E/DX2                !
 ! A78   A(38,40,43)           106.0115         estimate D2E/DX2                !
 ! A79   A(38,40,44)           111.2411         estimate D2E/DX2                !
 ! A80   A(38,40,45)           111.1874         estimate D2E/DX2                !
 ! A81   A(43,40,44)           109.3317         estimate D2E/DX2                !
 ! A82   A(43,40,45)           109.6814         estimate D2E/DX2                !
 ! A83   A(44,40,45)           109.3235         estimate D2E/DX2                !
 ! A84   A(39,41,46)           114.2308         estimate D2E/DX2                !
 ! A85   A(39,41,47)           119.2237         estimate D2E/DX2                !
 ! A86   A(46,41,47)           126.5452         estimate D2E/DX2                !
 ! A87   A(39,42,48)            91.7734         estimate D2E/DX2                !
 ! A88   A(41,46,48)           111.8817         estimate D2E/DX2                !
 ! A89   A(41,46,49)           124.533          estimate D2E/DX2                !
 ! A90   A(48,46,49)           123.5853         estimate D2E/DX2                !
 ! A91   A(41,47,50)           117.9534         estimate D2E/DX2                !
 ! A92   A(42,48,46)           112.8023         estimate D2E/DX2                !
 ! A93   A(42,48,51)           119.7553         estimate D2E/DX2                !
 ! A94   A(46,48,51)           127.4424         estimate D2E/DX2                !
 ! A95   A(47,50,52)           111.2654         estimate D2E/DX2                !
 ! A96   A(47,50,53)           106.0143         estimate D2E/DX2                !
 ! A97   A(47,50,54)           111.2918         estimate D2E/DX2                !
 ! A98   A(52,50,53)           109.3698         estimate D2E/DX2                !
 ! A99   A(52,50,54)           109.4187         estimate D2E/DX2                !
 ! A100  A(53,50,54)           109.4054         estimate D2E/DX2                !
 ! D1    D(19,1,2,3)             0.1578         estimate D2E/DX2                !
 ! D2    D(19,1,2,6)          -178.6792         estimate D2E/DX2                !
 ! D3    D(20,1,2,3)          -179.8231         estimate D2E/DX2                !
 ! D4    D(20,1,2,6)             1.3399         Frozen                          !
 ! D5    D(2,1,19,5)            -0.124          estimate D2E/DX2                !
 ! D6    D(2,1,19,28)          179.8267         estimate D2E/DX2                !
 ! D7    D(20,1,19,5)          179.8575         estimate D2E/DX2                !
 ! D8    D(20,1,19,28)          -0.1919         estimate D2E/DX2                !
 ! D9    D(1,2,3,4)              0.0571         estimate D2E/DX2                !
 ! D10   D(1,2,3,7)            179.5453         estimate D2E/DX2                !
 ! D11   D(6,2,3,4)            178.8851         estimate D2E/DX2                !
 ! D12   D(6,2,3,7)             -1.6266         estimate D2E/DX2                !
 ! D13   D(1,2,6,9)            178.625          estimate D2E/DX2                !
 ! D14   D(1,2,6,17)             1.3881         estimate D2E/DX2                !
 ! D15   D(3,2,6,9)             -0.2173         estimate D2E/DX2                !
 ! D16   D(3,2,6,17)          -177.4541         estimate D2E/DX2                !
 ! D17   D(2,3,4,5)             -0.3074         estimate D2E/DX2                !
 ! D18   D(2,3,4,14)           179.3968         estimate D2E/DX2                !
 ! D19   D(7,3,4,5)           -179.7837         estimate D2E/DX2                !
 ! D20   D(7,3,4,14)            -0.0795         estimate D2E/DX2                !
 ! D21   D(2,3,7,8)              1.0523         estimate D2E/DX2                !
 ! D22   D(2,3,7,12)          -178.712          estimate D2E/DX2                !
 ! D23   D(4,3,7,8)           -179.4626         estimate D2E/DX2                !
 ! D24   D(4,3,7,12)             0.7731         estimate D2E/DX2                !
 ! D25   D(3,4,5,19)             0.3343         estimate D2E/DX2                !
 ! D26   D(3,4,5,21)          -179.7799         estimate D2E/DX2                !
 ! D27   D(14,4,5,19)         -179.3729         estimate D2E/DX2                !
 ! D28   D(14,4,5,21)            0.5129         estimate D2E/DX2                !
 ! D29   D(3,4,14,13)           -0.4559         estimate D2E/DX2                !
 ! D30   D(3,4,14,15)         -179.9937         estimate D2E/DX2                !
 ! D31   D(5,4,14,13)          179.252          estimate D2E/DX2                !
 ! D32   D(5,4,14,15)           -0.2858         estimate D2E/DX2                !
 ! D33   D(4,5,19,1)            -0.1141         estimate D2E/DX2                !
 ! D34   D(4,5,19,28)          179.9364         estimate D2E/DX2                !
 ! D35   D(21,5,19,1)          179.9992         estimate D2E/DX2                !
 ! D36   D(21,5,19,28)           0.0496         estimate D2E/DX2                !
 ! D37   D(2,6,9,8)              2.5984         estimate D2E/DX2                !
 ! D38   D(2,6,9,32)          -176.0103         estimate D2E/DX2                !
 ! D39   D(17,6,9,8)           179.77           estimate D2E/DX2                !
 ! D40   D(17,6,9,32)            1.1613         estimate D2E/DX2                !
 ! D41   D(3,7,8,9)              1.3551         estimate D2E/DX2                !
 ! D42   D(3,7,8,10)          -174.5099         estimate D2E/DX2                !
 ! D43   D(12,7,8,9)          -178.8921         estimate D2E/DX2                !
 ! D44   D(12,7,8,10)            5.2428         estimate D2E/DX2                !
 ! D45   D(3,7,12,11)          178.0768         estimate D2E/DX2                !
 ! D46   D(3,7,12,13)           -0.9621         estimate D2E/DX2                !
 ! D47   D(8,7,12,11)           -1.685          estimate D2E/DX2                !
 ! D48   D(8,7,12,13)          179.2761         estimate D2E/DX2                !
 ! D49   D(7,8,9,6)             -3.0809         estimate D2E/DX2                !
 ! D50   D(7,8,9,32)           175.3285         estimate D2E/DX2                !
 ! D51   D(10,8,9,6)           172.5381         estimate D2E/DX2                !
 ! D52   D(10,8,9,32)           -9.0525         estimate D2E/DX2                !
 ! D53   D(7,8,10,18)           -4.7549         estimate D2E/DX2                !
 ! D54   D(7,8,10,23)          174.4235         estimate D2E/DX2                !
 ! D55   D(9,8,10,18)          179.5335         estimate D2E/DX2                !
 ! D56   D(9,8,10,23)           -1.2882         Frozen                          !
 ! D57   D(6,9,32,33)          163.4366         estimate D2E/DX2                !
 ! D58   D(6,9,32,34)          -10.1182         estimate D2E/DX2                !
 ! D59   D(8,9,32,33)          -15.005          Frozen                          !
 ! D60   D(8,9,32,34)          171.4403         estimate D2E/DX2                !
 ! D61   D(8,10,18,11)           0.7189         estimate D2E/DX2                !
 ! D62   D(8,10,18,24)        -179.4089         estimate D2E/DX2                !
 ! D63   D(23,10,18,11)       -178.5188         estimate D2E/DX2                !
 ! D64   D(23,10,18,24)          1.3535         estimate D2E/DX2                !
 ! D65   D(18,11,12,7)          -2.3856         estimate D2E/DX2                !
 ! D66   D(18,11,12,13)        176.6833         estimate D2E/DX2                !
 ! D67   D(22,11,12,7)         178.4862         estimate D2E/DX2                !
 ! D68   D(22,11,12,13)         -2.445          estimate D2E/DX2                !
 ! D69   D(12,11,18,10)          2.8444         estimate D2E/DX2                !
 ! D70   D(12,11,18,24)       -177.0251         estimate D2E/DX2                !
 ! D71   D(22,11,18,10)       -178.0181         estimate D2E/DX2                !
 ! D72   D(22,11,18,24)          2.1124         estimate D2E/DX2                !
 ! D73   D(7,12,13,14)           0.461          estimate D2E/DX2                !
 ! D74   D(7,12,13,16)        -179.8781         estimate D2E/DX2                !
 ! D75   D(11,12,13,14)       -178.6049         estimate D2E/DX2                !
 ! D76   D(11,12,13,16)          1.056          estimate D2E/DX2                !
 ! D77   D(12,13,14,4)           0.2708         estimate D2E/DX2                !
 ! D78   D(12,13,14,15)        179.7958         estimate D2E/DX2                !
 ! D79   D(16,13,14,4)        -179.3788         estimate D2E/DX2                !
 ! D80   D(16,13,14,15)          0.1463         estimate D2E/DX2                !
 ! D81   D(10,18,24,25)        -59.609          Frozen                          !
 ! D82   D(10,18,24,26)         59.2209         estimate D2E/DX2                !
 ! D83   D(10,18,24,27)        179.6858         estimate D2E/DX2                !
 ! D84   D(11,18,24,25)        120.2739         estimate D2E/DX2                !
 ! D85   D(11,18,24,26)       -120.8962         estimate D2E/DX2                !
 ! D86   D(11,18,24,27)         -0.4313         estimate D2E/DX2                !
 ! D87   D(1,19,28,29)         -58.1407         estimate D2E/DX2                !
 ! D88   D(1,19,28,30)          60.7668         Frozen                          !
 ! D89   D(1,19,28,31)        -178.7139         estimate D2E/DX2                !
 ! D90   D(5,19,28,29)         121.8132         estimate D2E/DX2                !
 ! D91   D(5,19,28,30)        -119.2792         estimate D2E/DX2                !
 ! D92   D(5,19,28,31)           1.2401         estimate D2E/DX2                !
 ! D93   D(9,32,33,35)        -174.2275         estimate D2E/DX2                !
 ! D94   D(9,32,33,36)           6.3557         estimate D2E/DX2                !
 ! D95   D(34,32,33,35)         -0.2397         estimate D2E/DX2                !
 ! D96   D(34,32,33,36)       -179.6565         estimate D2E/DX2                !
 ! D97   D(9,32,34,37)         175.3429         estimate D2E/DX2                !
 ! D98   D(33,32,34,37)          0.529          estimate D2E/DX2                !
 ! D99   D(32,33,35,37)         -0.2874         estimate D2E/DX2                !
 ! D100  D(32,33,35,38)        179.7745         estimate D2E/DX2                !
 ! D101  D(36,33,35,37)        179.1242         estimate D2E/DX2                !
 ! D102  D(36,33,35,38)         -0.8139         estimate D2E/DX2                !
 ! D103  D(32,34,37,35)         -0.6756         estimate D2E/DX2                !
 ! D104  D(32,34,37,39)        177.9468         estimate D2E/DX2                !
 ! D105  D(33,35,37,34)          0.6731         estimate D2E/DX2                !
 ! D106  D(33,35,37,39)       -177.8647         estimate D2E/DX2                !
 ! D107  D(38,35,37,34)       -179.3838         estimate D2E/DX2                !
 ! D108  D(38,35,37,39)          2.0783         estimate D2E/DX2                !
 ! D109  D(33,35,38,40)          6.4667         Frozen                          !
 ! D110  D(37,35,38,40)       -173.4688         estimate D2E/DX2                !
 ! D111  D(34,37,39,41)          2.8423         estimate D2E/DX2                !
 ! D112  D(34,37,39,42)       -177.1418         estimate D2E/DX2                !
 ! D113  D(35,37,39,41)       -178.8009         estimate D2E/DX2                !
 ! D114  D(35,37,39,42)          1.2149         estimate D2E/DX2                !
 ! D115  D(35,38,40,43)        175.5161         estimate D2E/DX2                !
 ! D116  D(35,38,40,44)        -65.7304         estimate D2E/DX2                !
 ! D117  D(35,38,40,45)         56.3715         estimate D2E/DX2                !
 ! D118  D(37,39,41,46)       -179.9824         estimate D2E/DX2                !
 ! D119  D(37,39,41,47)         -0.1749         estimate D2E/DX2                !
 ! D120  D(42,39,41,46)          0.0035         estimate D2E/DX2                !
 ! D121  D(42,39,41,47)        179.811          estimate D2E/DX2                !
 ! D122  D(37,39,42,48)        179.985          estimate D2E/DX2                !
 ! D123  D(41,39,42,48)         -0.0017         estimate D2E/DX2                !
 ! D124  D(39,41,46,48)         -0.004          estimate D2E/DX2                !
 ! D125  D(39,41,46,49)       -179.9722         estimate D2E/DX2                !
 ! D126  D(47,41,46,48)       -179.7948         estimate D2E/DX2                !
 ! D127  D(47,41,46,49)          0.237          estimate D2E/DX2                !
 ! D128  D(39,41,47,50)        178.3517         estimate D2E/DX2                !
 ! D129  D(46,41,47,50)         -1.8668         Frozen                          !
 ! D130  D(39,42,48,46)         -0.0005         estimate D2E/DX2                !
 ! D131  D(39,42,48,51)        179.8938         estimate D2E/DX2                !
 ! D132  D(41,46,48,42)          0.0026         estimate D2E/DX2                !
 ! D133  D(41,46,48,51)       -179.8819         estimate D2E/DX2                !
 ! D134  D(49,46,48,42)        179.9711         estimate D2E/DX2                !
 ! D135  D(49,46,48,51)          0.0867         estimate D2E/DX2                !
 ! D136  D(41,47,50,52)         62.0677         estimate D2E/DX2                !
 ! D137  D(41,47,50,53)       -179.1183         estimate D2E/DX2                !
 ! D138  D(41,47,50,54)        -60.2471         estimate D2E/DX2                !
 --------------------------------------------------------------------------------
 Trust Radius=3.00D-01 FncErr=1.00D-07 GrdErr=1.00D-06 EigMax=2.50D+02 EigMin=1.00D-04
 Number of steps in this run=    307 maximum allowed number of steps=    324.
 GradGradGradGradGradGradGradGradGradGradGradGradGradGradGradGradGradGrad

 Stoichiometry    C26H18N2O6S2
 Framework group  C1[X(C26H18N2O6S2)]
 Deg. of freedom   156
 Full point group                 C1      NOp   1
 Largest Abelian subgroup         C1      NOp   1
 Largest concise Abelian subgroup C1      NOp   1
                         Standard orientation:                         
 ---------------------------------------------------------------------
 Center     Atomic      Atomic             Coordinates (Angstroms)
 Number     Number       Type             X           Y           Z
 ---------------------------------------------------------------------
      1          6           0       -2.485903   -3.035795   -0.089348
      2          6           0       -2.215274   -1.575312   -0.027212
      3          6           0       -3.280932   -0.645257   -0.045213
      4          6           0       -4.618288   -1.092908   -0.121377
      5          6           0       -4.924702   -2.546605   -0.190538
      6          6           0       -0.917286   -1.133765    0.023815
      7          6           0       -2.976245    0.744303    0.026036
      8          6           0       -1.620325    1.198253    0.091726
      9          6           0       -0.560950    0.250829    0.056635
     10          6           0       -1.397332    2.656262    0.289931
     11          6           0       -3.852730    3.105042    0.148286
     12          6           0       -4.072005    1.647274    0.033867
     13          6           0       -5.380878    1.189709   -0.045513
     14          6           0       -5.662361   -0.179317   -0.126301
     15          1           0       -6.679844   -0.546872   -0.185307
     16          1           0       -6.176355    1.926636   -0.037170
     17          1           0       -0.138070   -1.886242   -0.007238
     18          7           0       -2.522899    3.503437    0.297204
     19          7           0       -3.828356   -3.425528   -0.168448
     20          8           0       -1.598450   -3.877423   -0.073457
     21          8           0       -6.070637   -2.964555   -0.261101
     22          8           0       -4.770512    3.915944    0.131383
     23          8           0       -0.301121    3.173865    0.462346
     24          6           0       -2.244338    4.931942    0.482777
     25          1           0       -1.735738    5.089700    1.435037
     26          1           0       -1.589365    5.290022   -0.315652
     27          1           0       -3.195619    5.456465    0.461287
     28          6           0       -4.083158   -4.868936   -0.233221
     29          1           0       -3.571068   -5.294501   -1.098803
     30          1           0       -3.697367   -5.353471    0.665650
     31          1           0       -5.157334   -5.012376   -0.313667
     32          6           0        0.875793    0.520921    0.017594
     33          6           0        1.569784    1.680807   -0.266140
     34         16           0        1.998799   -0.825376    0.208636
     35          6           0        2.966530    1.501175   -0.324536
     36          1           0        1.083383    2.631053   -0.417388
     37          6           0        3.391784    0.192316   -0.080040
     38          8           0        3.895168    2.458796   -0.587389
     39          6           0        4.740197   -0.297705   -0.026882
     40          6           0        3.440103    3.805180   -0.690480
     41          6           0        5.161923   -1.606902    0.194259
     42         16           0        6.148339    0.739215   -0.244949
     43          1           0        4.333886    4.415551   -0.820202
     44          1           0        2.781460    3.936776   -1.557812
     45          1           0        2.909782    4.115116    0.218363
     46          6           0        6.575074   -1.774018    0.189082
     47          8           0        4.232642   -2.578863    0.393018
     48          6           0        7.227790   -0.591951   -0.036073
     49          1           0        7.081190   -2.716666    0.342895
     50          6           0        4.692103   -3.912848    0.580774
     51          1           0        8.296209   -0.430893   -0.092629
     52          1           0        5.316691   -3.995782    1.478407
     53          1           0        3.798710   -4.523799    0.704537
     54          1           0        5.257071   -4.265775   -0.290419
 ---------------------------------------------------------------------
 Rotational constants (GHZ):           0.1526983           0.0604496           0.0436572
 Standard basis: 6-311+G(d,p) (5D, 7F)
 There are   952 symmetry adapted cartesian basis functions of A   symmetry.
 There are   916 symmetry adapted basis functions of A   symmetry.
   916 basis functions,  1468 primitive gaussians,   952 cartesian basis functions
   134 alpha electrons      134 beta electrons
       nuclear repulsion energy      4090.4014633515 Hartrees.
 NAtoms=   54 NActive=   54 NUniq=   54 SFac= 1.00D+00 NAtFMM=   60 NAOKFM=F Big=F
 Integral buffers will be    131072 words long.
 Raffenetti 2 integral format.
 Two-electron integral symmetry is turned on.
 One-electron integrals computed using PRISM.
 NBasis=   916 RedAO= T EigKep=  1.44D-06  NBF=   916
 NBsUse=   901 1.00D-06 EigRej=  8.07D-07 NBFU=   901
 ExpMin= 4.05D-02 ExpMax= 9.34D+04 ExpMxC= 3.17D+03 IAcc=3 IRadAn=         5 AccDes= 0.00D+00
 Harris functional with IExCor=  402 and IRadAn=       5 diagonalized for initial guess.
 HarFok:  IExCor=  402 AccDes= 0.00D+00 IRadAn=         5 IDoV= 1 UseB2=F ITyADJ=14
 ICtDFT=  3500011 ScaDFX=  1.000000  1.000000  1.000000  1.000000
 FoFCou: FMM=F IPFlag=           0 FMFlag=      100000 FMFlg1=           0
         NFxFlg=           0 DoJE=T BraDBF=F KetDBF=T FulRan=T
         wScrn=  0.000000 ICntrl=       500 IOpCl=  0 I1Cent=   200000004 NGrid=           0
         NMat0=    1 NMatS0=      1 NMatT0=    0 NMatD0=    1 NMtDS0=    0 NMtDT0=    0
 Petite list used in FoFCou.
 Requested convergence on RMS density matrix=1.00D-08 within 128 cycles.
 Requested convergence on MAX density matrix=1.00D-06.
 Requested convergence on             energy=1.00D-06.
 No special actions if energy rises.
 SCF Done:  E(RB3LYP) =  -2359.33028331     A.U. after   17 cycles
            NFock= 17  Conv=0.73D-08     -V/T= 2.0031

 **********************************************************************

            Population analysis using the SCF Density.

 **********************************************************************

 Orbital symmetries:
       Occupied  (A) (A) (A) (A) (A) (A) (A) (A) (A) (A) (A) (A)
                 (A) (A) (A) (A) (A) (A) (A) (A) (A) (A) (A) (A)
                 (A) (A) (A) (A) (A) (A) (A) (A) (A) (A) (A) (A)
                 (A) (A) (A) (A) (A) (A) (A) (A) (A) (A) (A) (A)
                 (A) (A) (A) (A) (A) (A) (A) (A) (A) (A) (A) (A)
                 (A) (A) (A) (A) (A) (A) (A) (A) (A) (A) (A) (A)
                 (A) (A) (A) (A) (A) (A) (A) (A) (A) (A) (A) (A)
                 (A) (A) (A) (A) (A) (A) (A) (A) (A) (A) (A) (A)
                 (A) (A) (A) (A) (A) (A) (A) (A) (A) (A) (A) (A)
                 (A) (A) (A) (A) (A) (A) (A) (A) (A) (A) (A) (A)
                 (A) (A) (A) (A) (A) (A) (A) (A) (A) (A) (A) (A)
                 (A) (A)
       Virtual   (A) (A) (A) (A) (A) (A) (A) (A) (A) (A) (A) (A)
                 (A) (A) (A) (A) (A) (A) (A) (A) (A) (A) (A) (A)
                 (A) (A) (A) (A) (A) (A) (A) (A) (A) (A) (A) (A)
                 (A) (A) (A) (A) (A) (A) (A) (A) (A) (A) (A) (A)
                 (A) (A) (A) (A) (A) (A) (A) (A) (A) (A) (A) (A)
                 (A) (A) (A) (A) (A) (A) (A) (A) (A) (A) (A) (A)
                 (A) (A) (A) (A) (A) (A) (A) (A) (A) (A) (A) (A)
                 (A) (A) (A) (A) (A) (A) (A) (A) (A) (A) (A) (A)
                 (A) (A) (A) (A) (A) (A) (A) (A) (A) (A) (A) (A)
                 (A) (A) (A) (A) (A) (A) (A) (A) (A) (A) (A) (A)
                 (A) (A) (A) (A) (A) (A) (A) (A) (A) (A) (A) (A)
                 (A) (A) (A) (A) (A) (A) (A) (A) (A) (A) (A) (A)
                 (A) (A) (A) (A) (A) (A) (A) (A) (A) (A) (A) (A)
                 (A) (A) (A) (A) (A) (A) (A) (A) (A) (A) (A) (A)
                 (A) (A) (A) (A) (A) (A) (A) (A) (A) (A) (A) (A)
                 (A) (A) (A) (A) (A) (A) (A) (A) (A) (A) (A) (A)
                 (A) (A) (A) (A) (A) (A) (A) (A) (A) (A) (A) (A)
                 (A) (A) (A) (A) (A) (A) (A) (A) (A) (A) (A) (A)
                 (A) (A) (A) (A) (A) (A) (A) (A) (A) (A) (A) (A)
                 (A) (A) (A) (A) (A) (A) (A) (A) (A) (A) (A) (A)
                 (A) (A) (A) (A) (A) (A) (A) (A) (A) (A) (A) (A)
                 (A) (A) (A) (A) (A) (A) (A) (A) (A) (A) (A) (A)
                 (A) (A) (A) (A) (A) (A) (A) (A) (A) (A) (A) (A)
                 (A) (A) (A) (A) (A) (A) (A) (A) (A) (A) (A) (A)
                 (A) (A) (A) (A) (A) (A) (A) (A) (A) (A) (A) (A)
                 (A) (A) (A) (A) (A) (A) (A) (A) (A) (A) (A) (A)
                 (A) (A) (A) (A) (A) (A) (A) (A) (A) (A) (A) (A)
                 (A) (A) (A) (A) (A) (A) (A) (A) (A) (A) (A) (A)
                 (A) (A) (A) (A) (A) (A) (A) (A) (A) (A) (A) (A)
                 (A) (A) (A) (A) (A) (A) (A) (A) (A) (A) (A) (A)
                 (A) (A) (A) (A) (A) (A) (A) (A) (A) (A) (A) (A)
                 (A) (A) (A) (A) (A) (A) (A) (A) (A) (A) (A) (A)
                 (A) (A) (A) (A) (A) (A) (A) (A) (A) (A) (A) (A)
                 (A) (A) (A) (A) (A) (A) (A) (A) (A) (A) (A) (A)
                 (A) (A) (A) (A) (A) (A) (A) (A) (A) (A) (A) (A)
                 (A) (A) (A) (A) (A) (A) (A) (A) (A) (A) (A) (A)
                 (A) (A) (A) (A) (A) (A) (A) (A) (A) (A) (A) (A)
                 (A) (A) (A) (A) (A) (A) (A) (A) (A) (A) (A) (A)
                 (A) (A) (A) (A) (A) (A) (A) (A) (A) (A) (A) (A)
                 (A) (A) (A) (A) (A) (A) (A) (A) (A) (A) (A) (A)
                 (A) (A) (A) (A) (A) (A) (A) (A) (A) (A) (A) (A)
                 (A) (A) (A) (A) (A) (A) (A) (A) (A) (A) (A) (A)
                 (A) (A) (A) (A) (A) (A) (A) (A) (A) (A) (A) (A)
                 (A) (A) (A) (A) (A) (A) (A) (A) (A) (A) (A) (A)
                 (A) (A) (A) (A) (A) (A) (A) (A) (A) (A) (A) (A)
                 (A) (A) (A) (A) (A) (A) (A) (A) (A) (A) (A) (A)
                 (A) (A) (A) (A) (A) (A) (A) (A) (A) (A) (A) (A)
                 (A) (A) (A) (A) (A) (A) (A) (A) (A) (A) (A) (A)
                 (A) (A) (A) (A) (A) (A) (A) (A) (A) (A) (A) (A)
                 (A) (A) (A) (A) (A) (A) (A) (A) (A) (A) (A) (A)
                 (A) (A) (A) (A) (A) (A) (A) (A) (A) (A) (A) (A)
                 (A) (A) (A) (A) (A) (A) (A) (A) (A) (A) (A) (A)
                 (A) (A) (A) (A) (A) (A) (A) (A) (A) (A) (A) (A)
                 (A) (A) (A) (A) (A) (A) (A) (A) (A) (A) (A) (A)
                 (A) (A) (A) (A) (A) (A) (A) (A) (A) (A) (A) (A)
                 (A) (A) (A) (A) (A) (A) (A) (A) (A) (A) (A) (A)
                 (A) (A) (A) (A) (A) (A) (A) (A) (A) (A) (A) (A)
                 (A) (A) (A) (A) (A) (A) (A) (A) (A) (A) (A) (A)
                 (A) (A) (A) (A) (A) (A) (A) (A) (A) (A) (A) (A)
                 (A) (A) (A) (A) (A) (A) (A) (A) (A) (A) (A) (A)
                 (A) (A) (A) (A) (A) (A) (A) (A) (A) (A) (A) (A)
                 (A) (A) (A) (A) (A) (A) (A) (A) (A) (A) (A) (A)
                 (A) (A) (A) (A) (A) (A) (A) (A) (A) (A) (A) (A)
                 (A) (A) (A) (A) (A) (A) (A) (A) (A) (A) (A)
 The electronic state is 1-A.
 Alpha  occ. eigenvalues --  -88.88834 -88.88501 -19.17607 -19.17007 -19.12233
 Alpha  occ. eigenvalues --  -19.12224 -19.11784 -19.11476 -14.38489 -14.38127
 Alpha  occ. eigenvalues --  -10.30872 -10.30820 -10.30767 -10.30128 -10.25386
 Alpha  occ. eigenvalues --  -10.24635 -10.24125 -10.23935 -10.23469 -10.22920
 Alpha  occ. eigenvalues --  -10.22730 -10.22352 -10.22262 -10.22236 -10.22213
 Alpha  occ. eigenvalues --  -10.22094 -10.21979 -10.21632 -10.21581 -10.21394
 Alpha  occ. eigenvalues --  -10.20887 -10.20747 -10.20707 -10.20634 -10.19444
 Alpha  occ. eigenvalues --  -10.18049  -7.97374  -7.97080  -5.93684  -5.93402
 Alpha  occ. eigenvalues --   -5.93295  -5.93008  -5.92942  -5.92616  -1.09117
 Alpha  occ. eigenvalues --   -1.08533  -1.08247  -1.08208  -1.06360  -1.06048
 Alpha  occ. eigenvalues --   -0.96029  -0.95624  -0.92099  -0.90533  -0.88969
 Alpha  occ. eigenvalues --   -0.86383  -0.83941  -0.80417  -0.78210  -0.77821
 Alpha  occ. eigenvalues --   -0.76572  -0.75415  -0.74999  -0.73443  -0.72283
 Alpha  occ. eigenvalues --   -0.71704  -0.70546  -0.68828  -0.67106  -0.65621
 Alpha  occ. eigenvalues --   -0.65533  -0.64553  -0.61250  -0.59948  -0.58521
 Alpha  occ. eigenvalues --   -0.57268  -0.56847  -0.56605  -0.55431  -0.54903
 Alpha  occ. eigenvalues --   -0.53278  -0.51487  -0.50925  -0.49886  -0.49557
 Alpha  occ. eigenvalues --   -0.49390  -0.49002  -0.48589  -0.48481  -0.48310
 Alpha  occ. eigenvalues --   -0.48259  -0.47353  -0.46316  -0.46165  -0.45854
 Alpha  occ. eigenvalues --   -0.45698  -0.44909  -0.44254  -0.44044  -0.43022
 Alpha  occ. eigenvalues --   -0.42910  -0.42621  -0.42432  -0.41847  -0.41754
 Alpha  occ. eigenvalues --   -0.41571  -0.41068  -0.40990  -0.40401  -0.39917
 Alpha  occ. eigenvalues --   -0.39360  -0.39063  -0.38704  -0.37703  -0.37314
 Alpha  occ. eigenvalues --   -0.36521  -0.36219  -0.34563  -0.34284  -0.33543
 Alpha  occ. eigenvalues --   -0.33518  -0.31899  -0.30789  -0.30471  -0.29659
 Alpha  occ. eigenvalues --   -0.29192  -0.28750  -0.28557  -0.27837  -0.27208
 Alpha  occ. eigenvalues --   -0.26108  -0.24994  -0.24698  -0.19749
 Alpha virt. eigenvalues --   -0.12870  -0.07866  -0.06479  -0.04519  -0.03476
 Alpha virt. eigenvalues --   -0.00817  -0.00470  -0.00275  -0.00065   0.00402
 Alpha virt. eigenvalues --    0.00863   0.01101   0.01372   0.01753   0.01938
 Alpha virt. eigenvalues --    0.01967   0.02200   0.02520   0.02864   0.03299
 Alpha virt. eigenvalues --    0.03672   0.03689   0.03856   0.04264   0.04289
 Alpha virt. eigenvalues --    0.04768   0.04991   0.05164   0.05583   0.05818
 Alpha virt. eigenvalues --    0.06211   0.06366   0.06499   0.06822   0.07029
 Alpha virt. eigenvalues --    0.07208   0.07610   0.07783   0.07876   0.08301
 Alpha virt. eigenvalues --    0.08420   0.08575   0.08711   0.09239   0.09539
 Alpha virt. eigenvalues --    0.09737   0.10000   0.10263   0.10567   0.10804
 Alpha virt. eigenvalues --    0.10907   0.11407   0.11453   0.12013   0.12211
 Alpha virt. eigenvalues --    0.12396   0.12779   0.12956   0.13186   0.13452
 Alpha virt. eigenvalues --    0.13513   0.13660   0.13839   0.14281   0.14366
 Alpha virt. eigenvalues --    0.14666   0.15000   0.15268   0.15369   0.15487
 Alpha virt. eigenvalues --    0.15698   0.15787   0.15939   0.16229   0.16382
 Alpha virt. eigenvalues --    0.16738   0.16948   0.17305   0.17626   0.17801
 Alpha virt. eigenvalues --    0.17884   0.18105   0.18307   0.18573   0.18632
 Alpha virt. eigenvalues --    0.18795   0.19175   0.19376   0.19468   0.19739
 Alpha virt. eigenvalues --    0.19853   0.20197   0.20232   0.20301   0.20460
 Alpha virt. eigenvalues --    0.20670   0.20859   0.21037   0.21526   0.21666
 Alpha virt. eigenvalues --    0.21890   0.22084   0.22383   0.22566   0.22719
 Alpha virt. eigenvalues --    0.22782   0.23044   0.23195   0.23472   0.23565
 Alpha virt. eigenvalues --    0.23724   0.23960   0.24256   0.24432   0.24651
 Alpha virt. eigenvalues --    0.24879   0.25019   0.25053   0.25329   0.25596
 Alpha virt. eigenvalues --    0.25694   0.25911   0.26060   0.26183   0.26576
 Alpha virt. eigenvalues --    0.26622   0.26799   0.27165   0.27206   0.27234
 Alpha virt. eigenvalues --    0.27507   0.27848   0.28065   0.28429   0.28584
 Alpha virt. eigenvalues --    0.28671   0.28928   0.29049   0.29309   0.29429
 Alpha virt. eigenvalues --    0.29512   0.30081   0.30364   0.30561   0.30859
 Alpha virt. eigenvalues --    0.31559   0.31729   0.31865   0.32491   0.32500
 Alpha virt. eigenvalues --    0.32617   0.32887   0.33011   0.33509   0.33713
 Alpha virt. eigenvalues --    0.33826   0.34344   0.34466   0.34776   0.34997
 Alpha virt. eigenvalues --    0.35083   0.35358   0.35667   0.36115   0.36501
 Alpha virt. eigenvalues --    0.37029   0.37184   0.37444   0.37712   0.38192
 Alpha virt. eigenvalues --    0.38466   0.38652   0.39313   0.39524   0.40004
 Alpha virt. eigenvalues --    0.40436   0.40782   0.41088   0.41531   0.42298
 Alpha virt. eigenvalues --    0.42592   0.42800   0.43077   0.43623   0.43689
 Alpha virt. eigenvalues --    0.43794   0.44387   0.44630   0.45334   0.45743
 Alpha virt. eigenvalues --    0.45804   0.46462   0.46700   0.46790   0.47060
 Alpha virt. eigenvalues --    0.47813   0.47864   0.48991   0.49263   0.49483
 Alpha virt. eigenvalues --    0.49706   0.50402   0.50787   0.50943   0.51509
 Alpha virt. eigenvalues --    0.51904   0.52484   0.53421   0.53747   0.53971
 Alpha virt. eigenvalues --    0.54438   0.54795   0.55009   0.55175   0.55993
 Alpha virt. eigenvalues --    0.56318   0.56531   0.56597   0.56875   0.57143
 Alpha virt. eigenvalues --    0.57808   0.58389   0.58651   0.59046   0.59660
 Alpha virt. eigenvalues --    0.59864   0.60107   0.60738   0.61004   0.61251
 Alpha virt. eigenvalues --    0.61453   0.61683   0.62219   0.62765   0.63283
 Alpha virt. eigenvalues --    0.63414   0.63856   0.64457   0.64771   0.64824
 Alpha virt. eigenvalues --    0.64956   0.65359   0.65708   0.65937   0.66243
 Alpha virt. eigenvalues --    0.66548   0.66754   0.67355   0.67658   0.68249
 Alpha virt. eigenvalues --    0.68580   0.69218   0.69588   0.69966   0.70410
 Alpha virt. eigenvalues --    0.70555   0.71024   0.71682   0.72022   0.72426
 Alpha virt. eigenvalues --    0.72583   0.73086   0.73442   0.73668   0.74326
 Alpha virt. eigenvalues --    0.74687   0.74773   0.75154   0.75455   0.75793
 Alpha virt. eigenvalues --    0.75947   0.76211   0.76921   0.77502   0.77824
 Alpha virt. eigenvalues --    0.78016   0.78518   0.78628   0.79349   0.80004
 Alpha virt. eigenvalues --    0.80397   0.80893   0.81190   0.82338   0.82972
 Alpha virt. eigenvalues --    0.83565   0.84219   0.84298   0.85405   0.85964
 Alpha virt. eigenvalues --    0.86970   0.87609   0.87783   0.88641   0.89053
 Alpha virt. eigenvalues --    0.89259   0.89887   0.90651   0.91436   0.91563
 Alpha virt. eigenvalues --    0.92197   0.92848   0.92918   0.93275   0.93639
 Alpha virt. eigenvalues --    0.93667   0.94272   0.94717   0.95188   0.95610
 Alpha virt. eigenvalues --    0.95730   0.96290   0.96750   0.97085   0.97462
 Alpha virt. eigenvalues --    0.97948   0.98417   0.99480   1.00083   1.00452
 Alpha virt. eigenvalues --    1.00580   1.01257   1.01576   1.01791   1.02356
 Alpha virt. eigenvalues --    1.02517   1.03588   1.03726   1.04529   1.04687
 Alpha virt. eigenvalues --    1.05006   1.05385   1.05747   1.06219   1.06712
 Alpha virt. eigenvalues --    1.07143   1.07252   1.08021   1.08108   1.08539
 Alpha virt. eigenvalues --    1.09122   1.09580   1.09877   1.10206   1.10712
 Alpha virt. eigenvalues --    1.12080   1.12304   1.13709   1.14785   1.15285
 Alpha virt. eigenvalues --    1.15552   1.15992   1.16728   1.17331   1.18071
 Alpha virt. eigenvalues --    1.18618   1.19213   1.19861   1.21143   1.21660
 Alpha virt. eigenvalues --    1.22359   1.23391   1.23565   1.24755   1.24965
 Alpha virt. eigenvalues --    1.25190   1.25912   1.26361   1.26960   1.27712
 Alpha virt. eigenvalues --    1.28932   1.29407   1.30029   1.30668   1.31688
 Alpha virt. eigenvalues --    1.32362   1.33289   1.33370   1.34201   1.34707
 Alpha virt. eigenvalues --    1.35252   1.36454   1.37764   1.38551   1.39393
 Alpha virt. eigenvalues --    1.40005   1.41615   1.41958   1.42296   1.42404
 Alpha virt. eigenvalues --    1.42846   1.43409   1.43728   1.44000   1.44670
 Alpha virt. eigenvalues --    1.44876   1.45192   1.45751   1.45978   1.46424
 Alpha virt. eigenvalues --    1.46899   1.47582   1.47740   1.48991   1.49042
 Alpha virt. eigenvalues --    1.49246   1.51020   1.51592   1.51883   1.52999
 Alpha virt. eigenvalues --    1.53325   1.53654   1.54330   1.54458   1.55013
 Alpha virt. eigenvalues --    1.55575   1.55654   1.55891   1.56570   1.57090
 Alpha virt. eigenvalues --    1.57438   1.58751   1.60367   1.60774   1.61430
 Alpha virt. eigenvalues --    1.62419   1.62577   1.63203   1.63638   1.63699
 Alpha virt. eigenvalues --    1.65012   1.66058   1.66664   1.66865   1.67522
 Alpha virt. eigenvalues --    1.67989   1.68336   1.69291   1.69430   1.69770
 Alpha virt. eigenvalues --    1.70157   1.70888   1.71166   1.71915   1.71963
 Alpha virt. eigenvalues --    1.72864   1.73576   1.74352   1.75181   1.75744
 Alpha virt. eigenvalues --    1.76146   1.76967   1.77739   1.78198   1.78678
 Alpha virt. eigenvalues --    1.79103   1.79395   1.80000   1.81659   1.82214
 Alpha virt. eigenvalues --    1.84010   1.84490   1.85243   1.85589   1.86529
 Alpha virt. eigenvalues --    1.87005   1.87202   1.87505   1.88504   1.88612
 Alpha virt. eigenvalues --    1.89406   1.90055   1.90713   1.91325   1.92439
 Alpha virt. eigenvalues --    1.92543   1.93307   1.93853   1.94593   1.95238
 Alpha virt. eigenvalues --    1.96137   1.96836   1.97416   1.98525   1.99156
 Alpha virt. eigenvalues --    1.99643   2.00354   2.01034   2.01929   2.02169
 Alpha virt. eigenvalues --    2.02892   2.03223   2.04064   2.04777   2.05143
 Alpha virt. eigenvalues --    2.05759   2.06317   2.06671   2.07959   2.08523
 Alpha virt. eigenvalues --    2.09235   2.09853   2.10486   2.11024   2.11599
 Alpha virt. eigenvalues --    2.12938   2.13705   2.14149   2.14734   2.15416
 Alpha virt. eigenvalues --    2.16522   2.16660   2.18469   2.19046   2.19320
 Alpha virt. eigenvalues --    2.20265   2.20959   2.21521   2.22120   2.23049
 Alpha virt. eigenvalues --    2.24925   2.25879   2.26657   2.27060   2.29751
 Alpha virt. eigenvalues --    2.31846   2.32833   2.33706   2.35349   2.37255
 Alpha virt. eigenvalues --    2.38465   2.39575   2.40161   2.41678   2.42479
 Alpha virt. eigenvalues --    2.42815   2.43650   2.44448   2.44816   2.45741
 Alpha virt. eigenvalues --    2.46536   2.47714   2.47982   2.48948   2.49328
 Alpha virt. eigenvalues --    2.50425   2.51465   2.51591   2.52400   2.53012
 Alpha virt. eigenvalues --    2.53290   2.53397   2.53776   2.54409   2.56584
 Alpha virt. eigenvalues --    2.56842   2.57756   2.58800   2.59139   2.60751
 Alpha virt. eigenvalues --    2.62861   2.63088   2.63973   2.65180   2.66574
 Alpha virt. eigenvalues --    2.67152   2.67433   2.67542   2.67953   2.68369
 Alpha virt. eigenvalues --    2.69620   2.70152   2.70321   2.71106   2.71676
 Alpha virt. eigenvalues --    2.72140   2.73156   2.73799   2.74119   2.75689
 Alpha virt. eigenvalues --    2.76109   2.76606   2.77646   2.78514   2.81022
 Alpha virt. eigenvalues --    2.81490   2.82082   2.82940   2.83284   2.83883
 Alpha virt. eigenvalues --    2.84518   2.84798   2.85631   2.86210   2.86639
 Alpha virt. eigenvalues --    2.88314   2.88594   2.88903   2.89316   2.90257
 Alpha virt. eigenvalues --    2.91371   2.92091   2.92550   2.93298   2.94670
 Alpha virt. eigenvalues --    2.94801   2.95257   2.95876   2.97359   2.99495
 Alpha virt. eigenvalues --    3.01540   3.02867   3.03902   3.04731   3.05101
 Alpha virt. eigenvalues --    3.06246   3.08028   3.08141   3.09221   3.11701
 Alpha virt. eigenvalues --    3.12630   3.13528   3.14333   3.15293   3.16352
 Alpha virt. eigenvalues --    3.16457   3.18238   3.18709   3.20598   3.21891
 Alpha virt. eigenvalues --    3.22779   3.23420   3.24056   3.25446   3.26485
 Alpha virt. eigenvalues --    3.28560   3.29256   3.30389   3.31824   3.34101
 Alpha virt. eigenvalues --    3.34600   3.34792   3.35063   3.36611   3.37683
 Alpha virt. eigenvalues --    3.39046   3.40095   3.41004   3.42447   3.44472
 Alpha virt. eigenvalues --    3.44608   3.45644   3.45795   3.48791   3.49201
 Alpha virt. eigenvalues --    3.51571   3.53377   3.55515   3.57974   3.59979
 Alpha virt. eigenvalues --    3.60687   3.62486   3.65424   3.66359   3.66889
 Alpha virt. eigenvalues --    3.69618   3.70173   3.72194   3.72740   3.75539
 Alpha virt. eigenvalues --    3.75709   3.76429   3.80793   3.82533   3.84294
 Alpha virt. eigenvalues --    3.85561   3.86413   3.90474   3.91336   3.93177
 Alpha virt. eigenvalues --    3.93322   3.94524   3.97077   4.01895   4.02769
 Alpha virt. eigenvalues --    4.04531   4.08141   4.10010   4.13025   4.14128
 Alpha virt. eigenvalues --    4.20308   4.23766   4.25438   4.27884   4.35562
 Alpha virt. eigenvalues --    4.40426   4.40976   4.53499   4.72122   4.84511
 Alpha virt. eigenvalues --    4.87224   4.87719   4.90573   5.00740   5.02483
 Alpha virt. eigenvalues --    5.04042   5.05575   5.06231   5.08933   5.11434
 Alpha virt. eigenvalues --    5.13292   5.25249   5.27220   5.29657   5.33917
 Alpha virt. eigenvalues --    5.41998   5.43329   5.75814   5.76460   5.79905
 Alpha virt. eigenvalues --    5.80422   5.82419   5.85018   8.02192   8.05193
 Alpha virt. eigenvalues --   17.28514  17.30619  17.49347  17.52164  17.58434
 Alpha virt. eigenvalues --   17.63935  23.48830  23.56444  23.71251  23.78206
 Alpha virt. eigenvalues --   23.82094  23.82636  23.83985  23.86731  23.86793
 Alpha virt. eigenvalues --   23.88186  23.88886  23.89944  23.90971  23.93073
 Alpha virt. eigenvalues --   23.94719  23.95402  23.96165  23.98419  24.00802
 Alpha virt. eigenvalues --   24.01284  24.02092  24.05332  24.12624  24.13436
 Alpha virt. eigenvalues --   24.13912  24.14313  35.56218  35.59038  49.95670
 Alpha virt. eigenvalues --   49.97716  50.02267  50.04191  50.05940  50.07591
 Alpha virt. eigenvalues --  189.19519 189.23185
          Condensed to atoms (all electrons):
 Mulliken charges:
               1
     1  C    0.287689
     2  C    0.028104
     3  C    0.150156
     4  C    0.223391
     5  C    0.276702
     6  C    0.066337
     7  C    0.193351
     8  C    0.309216
     9  C    0.228004
    10  C   -0.375193
    11  C    0.236543
    12  C    0.127116
    13  C   -0.501926
    14  C   -0.671173
    15  H    0.159020
    16  H    0.161911
    17  H    0.167539
    18  N   -0.158607
    19  N   -0.133949
    20  O   -0.287249
    21  O   -0.268653
    22  O   -0.278839
    23  O   -0.234829
    24  C   -0.176427
    25  H    0.177031
    26  H    0.170269
    27  H    0.185055
    28  C   -0.197972
    29  H    0.173232
    30  H    0.173692
    31  H    0.182717
    32  C    0.066957
    33  C   -0.137104
    34  S   -0.679925
    35  C   -0.383391
    36  H    0.166621
    37  C    0.432447
    38  O   -0.131712
    39  C    0.852116
    40  C   -0.245943
    41  C   -0.030227
    42  S   -0.256846
    43  H    0.163694
    44  H    0.146163
    45  H    0.164036
    46  C   -0.610924
    47  O   -0.122585
    48  C   -0.305282
    49  H    0.134295
    50  C   -0.242220
    51  H    0.163645
    52  H    0.145154
    53  H    0.172470
    54  H    0.146305
 Sum of Mulliken charges =  -0.00000
 Mulliken charges with hydrogens summed into heavy atoms:
               1
     1  C    0.287689
     2  C    0.028104
     3  C    0.150156
     4  C    0.223391
     5  C    0.276702
     6  C    0.233876
     7  C    0.193351
     8  C    0.309216
     9  C    0.228004
    10  C   -0.375193
    11  C    0.236543
    12  C    0.127116
    13  C   -0.340015
    14  C   -0.512153
    18  N   -0.158607
    19  N   -0.133949
    20  O   -0.287249
    21  O   -0.268653
    22  O   -0.278839
    23  O   -0.234829
    24  C    0.355928
    28  C    0.331669
    32  C    0.066957
    33  C    0.029518
    34  S   -0.679925
    35  C   -0.383391
    37  C    0.432447
    38  O   -0.131712
    39  C    0.852116
    40  C    0.227950
    41  C   -0.030227
    42  S   -0.256846
    46  C   -0.476629
    47  O   -0.122585
    48  C   -0.141637
    50  C    0.221709
 Electronic spatial extent (au):  <R**2>=          22445.9544
 Charge=             -0.0000 electrons
 Dipole moment (field-independent basis, Debye):
    X=              5.4918    Y=             -0.6525    Z=             -0.1121  Tot=              5.5316
 Quadrupole moment (field-independent basis, Debye-Ang):
   XX=           -216.4382   YY=           -208.3324   ZZ=           -223.1720
   XY=             -5.1771   XZ=              0.2415   YZ=             -4.8244
 Traceless Quadrupole moment (field-independent basis, Debye-Ang):
   XX=             -0.4573   YY=              7.6485   ZZ=             -7.1911
   XY=             -5.1771   XZ=              0.2415   YZ=             -4.8244
 Octapole moment (field-independent basis, Debye-Ang**2):
  XXX=            406.8547  YYY=            -19.1209  ZZZ=              1.7984  XYY=            150.1374
  XXY=            -90.2699  XXZ=             15.8275  XZZ=            -13.7228  YZZ=             -0.4858
  YYZ=              0.5872  XYZ=            -17.5851
 Hexadecapole moment (field-independent basis, Debye-Ang**3):
 XXXX=         -20773.3340 YYYY=          -7985.3824 ZZZZ=           -377.3338 XXXY=           -591.3991
 XXXZ=             10.2543 YYYX=            223.5994 YYYZ=            -54.0874 ZZZX=              1.0906
 ZZZY=              4.2222 XXYY=          -4992.5213 XXZZ=          -3774.2100 YYZZ=          -1451.5753
 XXYZ=           -108.1803 YYXZ=              2.7549 ZZXY=             19.4123
 N-N= 4.090401463351D+03 E-N=-1.372070172993D+04  KE= 2.351947422181D+03
 Calling FoFJK, ICntrl=      2127 FMM=F ISym2X=0 I1Cent= 0 IOpClX= 0 NMat=1 NMatS=1 NMatT=0.
 ***** Axes restored to original set *****
 -------------------------------------------------------------------
 Center     Atomic                   Forces (Hartrees/Bohr)
 Number     Number              X              Y              Z
 -------------------------------------------------------------------
      1        6           0.004199742   -0.005254064   -0.000465904
      2        6           0.004961839    0.000455546   -0.000099162
      3        6          -0.002604575    0.000608321   -0.000121228
      4        6           0.002273019    0.001425442    0.000271554
      5        6          -0.005869750   -0.001512430   -0.000043888
      6        6          -0.005327270   -0.000430557   -0.001981129
      7        6          -0.000907195    0.000132332    0.000400881
      8        6          -0.000324968    0.004037639    0.003146660
      9        6           0.008397143    0.000455086   -0.000281300
     10        6          -0.005840219   -0.002945079    0.000093908
     11        6          -0.005124111    0.003132792    0.000201916
     12        6           0.001203940    0.000291084    0.000297220
     13        6          -0.001202140   -0.002239057   -0.000404652
     14        6           0.000314221    0.001994954    0.000300642
     15        1           0.000640681    0.000773217    0.000054347
     16        1           0.000584056   -0.001143300   -0.000216772
     17        1          -0.002370719   -0.000041589    0.000793577
     18        7           0.001616573   -0.001733644   -0.000675850
     19        7           0.001112909    0.001193692    0.000021751
     20        8          -0.005855517    0.006057472    0.000832551
     21        8           0.007425091    0.002002476    0.000119018
     22        8           0.006054141   -0.004909248   -0.000664586
     23        8          -0.019443139    0.008411012    0.010332966
     24        6           0.000771872    0.002187515   -0.000456297
     25        1          -0.000672833    0.000019770   -0.000323369
     26        1          -0.001349958   -0.000412674    0.001085794
     27        1           0.000973595    0.000025704    0.000023442
     28        6          -0.000435316   -0.001914437   -0.000664625
     29        1          -0.000691034    0.000378266    0.000983316
     30        1          -0.000463001    0.000389844   -0.000490307
     31        1           0.000937675   -0.000349701   -0.000014577
     32        6          -0.007950835   -0.000320937   -0.001080671
     33        6           0.017263062    0.001307052   -0.008891297
     34       16           0.004400079    0.000196097    0.000879365
     35        6          -0.002851488   -0.003605409   -0.000233196
     36        1           0.008373942   -0.008262167   -0.003918229
     37        6           0.000836406   -0.000486650    0.000699210
     38        8          -0.001655967   -0.001283406    0.000941623
     39        6          -0.000390092   -0.000147614   -0.000106119
     40        6          -0.001207424    0.003442757    0.000251956
     41        6          -0.000940372   -0.000667970    0.000386958
     42       16           0.000386910   -0.001266268   -0.000198387
     43        1          -0.000592960   -0.000787255    0.000040771
     44        1           0.001116605   -0.000771187    0.000949511
     45        1           0.000950296   -0.000732187   -0.001585207
     46        6          -0.000797879    0.000674770   -0.000036118
     47        8           0.002553214    0.002061478   -0.000639824
     48        6          -0.000020359   -0.000012112    0.000121976
     49        1          -0.000149351    0.000668975   -0.000048591
     50        6           0.001064385   -0.003002845    0.000190982
     51        1          -0.001858427   -0.000044539    0.000188150
     52        1          -0.001014322    0.000629318   -0.000594526
     53        1           0.000451536    0.000570536   -0.000098981
     54        1          -0.000951713    0.000753176    0.000724749
 -------------------------------------------------------------------
 Cartesian Forces:  Max     0.019443139 RMS     0.003358003

 GradGradGradGradGradGradGradGradGradGradGradGradGradGradGradGradGradGrad
 Berny optimization.
 FormGI is forming the generalized inverse of G from B-inverse, IUseBI=4.
 Internal  Forces:  Max     0.063321617 RMS     0.007607844
 Search for a local minimum.
 Step number   1 out of a maximum of  307
 All quantities printed in internal units (Hartrees-Bohrs-Radians)
 Mixed Optimization -- RFO/linear search
 Second derivative matrix not updated -- first step.
 ITU=  0
     Eigenvalues ---    0.01155   0.01172   0.01239   0.01297   0.01362
     Eigenvalues ---    0.01383   0.01397   0.01410   0.01452   0.01470
     Eigenvalues ---    0.01512   0.01544   0.01567   0.01590   0.01617
     Eigenvalues ---    0.01652   0.01679   0.01695   0.01714   0.01719
     Eigenvalues ---    0.01721   0.01763   0.01799   0.01845   0.01981
     Eigenvalues ---    0.02039   0.02047   0.02080   0.02088   0.02099
     Eigenvalues ---    0.02133   0.02149   0.02162   0.02179   0.02197
     Eigenvalues ---    0.02250   0.04601   0.04620   0.07665   0.07667
     Eigenvalues ---    0.10058   0.10068   0.10627   0.10635   0.15983
     Eigenvalues ---    0.15999   0.15999   0.16000   0.16000   0.16000
     Eigenvalues ---    0.16000   0.16000   0.16000   0.16000   0.16000
     Eigenvalues ---    0.16000   0.16000   0.16000   0.16000   0.16000
     Eigenvalues ---    0.16000   0.16000   0.22530   0.22583   0.23517
     Eigenvalues ---    0.23582   0.24513   0.24747   0.24865   0.24906
     Eigenvalues ---    0.24952   0.24985   0.24986   0.24988   0.24991
     Eigenvalues ---    0.24994   0.24996   0.24997   0.24998   0.24998
     Eigenvalues ---    0.25000   0.25000   0.25000   0.25000   0.25000
     Eigenvalues ---    0.25000   0.25000   0.25000   0.25000   0.25000
     Eigenvalues ---    0.28838   0.28851   0.30033   0.32124   0.32582
     Eigenvalues ---    0.32774   0.33104   0.33787   0.34017   0.34022
     Eigenvalues ---    0.34051   0.34051   0.34353   0.34466   0.34577
     Eigenvalues ---    0.34629   0.34693   0.34806   0.34885   0.35198
     Eigenvalues ---    0.35218   0.35468   0.35553   0.35582   0.35757
     Eigenvalues ---    0.35883   0.36078   0.36083   0.36218   0.36393
     Eigenvalues ---    0.36662   0.39348   0.40185   0.40194   0.40651
     Eigenvalues ---    0.40820   0.41524   0.41725   0.41962   0.42300
     Eigenvalues ---    0.42640   0.43455   0.43998   0.44092   0.44594
     Eigenvalues ---    0.44684   0.45014   0.45405   0.46251   0.47305
     Eigenvalues ---    0.47650   0.49309   0.49573   0.53030   0.53083
     Eigenvalues ---    0.93281   0.93432   0.93989   0.945851000.00000
     Eigenvalues --- 1000.000001000.000001000.000001000.000001000.00000
     Eigenvalues --- 1000.000001000.000001000.000001000.000001000.00000
     Eigenvalues --- 1000.000001000.000001000.000001000.000001000.00000
     Eigenvalues --- 1000.000001000.000001000.000001000.000001000.00000
     Eigenvalues --- 1000.000001000.000001000.000001000.000001000.00000
     Eigenvalues --- 1000.000001000.000001000.000001000.000001000.00000
     Eigenvalues --- 1000.000001000.000001000.000001000.000001000.00000
     Eigenvalues --- 1000.000001000.000001000.000001000.000001000.00000
     Eigenvalues --- 1000.000001000.000001000.000001000.000001000.00000
     Eigenvalues --- 1000.000001000.000001000.000001000.000001000.00000
     Eigenvalues --- 1000.000001000.000001000.000001000.000001000.00000
     Eigenvalues --- 1000.000001000.000001000.000001000.000001000.00000
     Eigenvalues --- 1000.000001000.000001000.000001000.000001000.00000
     Eigenvalues --- 1000.000001000.000001000.000001000.000001000.00000
     Eigenvalues --- 1000.000001000.000001000.000001000.000001000.00000
     Eigenvalues --- 1000.000001000.000001000.000001000.000001000.00000
     Eigenvalues --- 1000.000001000.000001000.000001000.000001000.00000
     Eigenvalues --- 1000.000001000.000001000.000001000.000001000.00000
     Eigenvalues --- 1000.000001000.000001000.000001000.000001000.00000
     Eigenvalues --- 1000.000001000.000001000.000001000.000001000.00000
     Eigenvalues --- 1000.000001000.000001000.000001000.000001000.00000
     Eigenvalues --- 1000.000001000.000001000.000001000.000001000.00000
     Eigenvalues --- 1000.000001000.000001000.000001000.000001000.00000
     Eigenvalues --- 1000.000001000.000001000.000001000.000001000.00000
     Eigenvalues --- 1000.000001000.000001000.000001000.000001000.00000
     Eigenvalues --- 1000.000001000.000001000.000001000.000001000.00000
     Eigenvalues --- 1000.000001000.000001000.000001000.000001000.00000
     Eigenvalues --- 1000.000001000.000001000.000001000.000001000.00000
     Eigenvalues --- 1000.000001000.000001000.000001000.000001000.00000
     Eigenvalues --- 1000.000001000.00000
 RFO step:  Lambda=-5.64121346D-02 EMin= 1.15532237D-02
 Linear search not attempted -- first point.
 Maximum step size (   0.300) exceeded in Quadratic search.
    -- Step size scaled by   0.761
 Iteration  1 RMS(Cart)=  0.33310967 RMS(Int)=  0.00844792
 Iteration  2 RMS(Cart)=  0.07410568 RMS(Int)=  0.00074721
 Iteration  3 RMS(Cart)=  0.00146130 RMS(Int)=  0.00067117
 Iteration  4 RMS(Cart)=  0.00000135 RMS(Int)=  0.00067117
 Iteration  5 RMS(Cart)=  0.00000001 RMS(Int)=  0.00067117
 Iteration  1 RMS(Cart)=  0.00004699 RMS(Int)=  0.00002433
 Iteration  2 RMS(Cart)=  0.00002716 RMS(Int)=  0.00002713
 Iteration  3 RMS(Cart)=  0.00001563 RMS(Int)=  0.00003082
 Iteration  4 RMS(Cart)=  0.00000895 RMS(Int)=  0.00003341
 Iteration  5 RMS(Cart)=  0.00000512 RMS(Int)=  0.00003503
 Iteration  6 RMS(Cart)=  0.00000292 RMS(Int)=  0.00003600
 Iteration  7 RMS(Cart)=  0.00000166 RMS(Int)=  0.00003657
 Iteration  8 RMS(Cart)=  0.00000095 RMS(Int)=  0.00003690
 Variable       Old X    -DE/DX   Delta X   Delta X   Delta X     New X
                                 (Linear)    (Quad)   (Total)
    R1        2.80935  -0.00042   0.00000  -0.00128  -0.00128   2.80807
    R2        2.64584  -0.00365   0.00000  -0.00553  -0.00549   2.64035
    R3        2.31147  -0.00846   0.00000  -0.00647  -0.00647   2.30500
    R4        2.67311  -0.00723   0.00000  -0.01395  -0.01417   2.65894
    R5        2.59267  -0.01276   0.00000  -0.01995  -0.01995   2.57272
    R6        2.66894  -0.00020   0.00000  -0.00028  -0.00034   2.66861
    R7        2.69164   0.00153   0.00000   0.00421   0.00409   2.69573
    R8        2.81049  -0.00060   0.00000  -0.00069  -0.00069   2.80980
    R9        2.62173  -0.00469   0.00000  -0.00772  -0.00771   2.61401
   R10        2.65570  -0.00310   0.00000  -0.00446  -0.00443   2.65127
   R11        2.30889  -0.00768   0.00000  -0.00583  -0.00583   2.30306
   R12        2.70248   0.00145   0.00000   0.00151   0.00169   2.70417
   R13        2.04786  -0.00174   0.00000  -0.00322  -0.00322   2.04463
   R14        2.70495   0.01648   0.00000   0.03252   0.03255   2.73751
   R15        2.68322   0.00392   0.00000   0.00846   0.00846   2.69168
   R16        2.68655   0.03456   0.00000   0.05748   0.05756   2.74411
   R17        2.81233   0.01111   0.00000   0.02268   0.02278   2.83511
   R18        2.76359   0.01570   0.00000   0.02825   0.02825   2.79184
   R19        2.66221  -0.00410   0.00000  -0.00744  -0.00745   2.65476
   R20        2.31391  -0.01315   0.00000  -0.01010  -0.01010   2.30380
   R21        2.79415  -0.00947   0.00000  -0.01904  -0.01907   2.77508
   R22        2.63842  -0.01035   0.00000  -0.01714  -0.01722   2.62120
   R23        2.31456  -0.00781   0.00000  -0.00601  -0.00601   2.30856
   R24        2.62448  -0.00101   0.00000  -0.00136  -0.00135   2.62314
   R25        2.64561  -0.00844   0.00000  -0.01351  -0.01349   2.63212
   R26        2.04921  -0.00123   0.00000  -0.00228  -0.00228   2.04693
   R27        2.04741  -0.00085   0.00000  -0.00158  -0.00158   2.04583
   R28        2.77259   0.00174   0.00000   0.00318   0.00318   2.77578
   R29        2.77252   0.00161   0.00000   0.00293   0.00293   2.77545
   R30        2.06176  -0.00063   0.00000  -0.00118  -0.00118   2.06058
   R31        2.06551  -0.00171   0.00000  -0.00325  -0.00325   2.06227
   R32        2.05322  -0.00083   0.00000  -0.00154  -0.00154   2.05168
   R33        2.06368  -0.00124   0.00000  -0.00235  -0.00235   2.06132
   R34        2.06281  -0.00076   0.00000  -0.00143  -0.00143   2.06138
   R35        2.05355  -0.00089   0.00000  -0.00167  -0.00167   2.05189
   R36        2.60992   0.01001   0.00000   0.01449   0.01455   2.62447
   R37        3.33265   0.00596   0.00000   0.01378   0.01383   3.34649
   R38        2.66349  -0.00267   0.00000  -0.00418  -0.00419   2.65930
   R39        2.03743  -0.01100   0.00000  -0.02001  -0.02001   2.01742
   R40        3.30537  -0.00609   0.00000  -0.01334  -0.01338   3.29198
   R41        2.64138  -0.00542   0.00000  -0.00861  -0.00868   2.63270
   R42        2.56926  -0.00115   0.00000  -0.00149  -0.00149   2.56778
   R43        2.71303  -0.00162   0.00000  -0.00270  -0.00270   2.71034
   R44        2.69275   0.00100   0.00000   0.00161   0.00161   2.69436
   R45        2.63259  -0.00072   0.00000  -0.00102  -0.00102   2.63158
   R46        3.33022  -0.00085   0.00000  -0.00172  -0.00172   3.32850
   R47        2.05991  -0.00093   0.00000  -0.00175  -0.00175   2.05816
   R48        2.07302  -0.00158   0.00000  -0.00303  -0.00303   2.06999
   R49        2.07293  -0.00195   0.00000  -0.00375  -0.00375   2.06919
   R50        2.68909  -0.00160   0.00000  -0.00261  -0.00261   2.68648
   R51        2.56876  -0.00222   0.00000  -0.00288  -0.00288   2.56588
   R52        3.26264  -0.00156   0.00000  -0.00308  -0.00308   3.25956
   R53        2.58694  -0.00123   0.00000  -0.00172  -0.00172   2.58521
   R54        2.04265  -0.00066   0.00000  -0.00122  -0.00122   2.04143
   R55        2.68971   0.00086   0.00000   0.00138   0.00138   2.69109
   R56        2.04463  -0.00186   0.00000  -0.00341  -0.00341   2.04121
   R57        2.07245  -0.00119   0.00000  -0.00228  -0.00228   2.07017
   R58        2.05861  -0.00070   0.00000  -0.00132  -0.00132   2.05730
   R59        2.07244  -0.00124   0.00000  -0.00238  -0.00238   2.07006
    A1        2.03797   0.00090   0.00000   0.00080   0.00077   2.03874
    A2        2.14521  -0.00070   0.00000  -0.00102  -0.00101   2.14420
    A3        2.10001  -0.00020   0.00000   0.00021   0.00022   2.10023
    A4        2.10395   0.00335   0.00000   0.01047   0.01049   2.11444
    A5        2.08282  -0.00482   0.00000  -0.00733  -0.00720   2.07562
    A6        2.09624   0.00145   0.00000  -0.00324  -0.00340   2.09284
    A7        2.10093  -0.00444   0.00000  -0.01246  -0.01235   2.08857
    A8        2.07104  -0.00015   0.00000  -0.00296  -0.00316   2.06788
    A9        2.11118   0.00458   0.00000   0.01538   0.01547   2.12665
   A10        2.10296   0.00225   0.00000   0.00622   0.00616   2.10913
   A11        2.09911   0.00181   0.00000   0.00365   0.00358   2.10269
   A12        2.08110  -0.00407   0.00000  -0.00987  -0.00975   2.07135
   A13        2.03739   0.00046   0.00000   0.00162   0.00158   2.03897
   A14        2.12972   0.00034   0.00000   0.00059   0.00061   2.13033
   A15        2.11607  -0.00080   0.00000  -0.00222  -0.00220   2.11387
   A16        2.15098   0.01491   0.00000   0.03568   0.03587   2.18685
   A17        2.04399  -0.00927   0.00000  -0.02451  -0.02452   2.01946
   A18        2.08722  -0.00571   0.00000  -0.01185  -0.01207   2.07515
   A19        2.11101   0.00593   0.00000   0.01612   0.01615   2.12716
   A20        2.04385  -0.01134   0.00000  -0.03068  -0.03060   2.01324
   A21        2.12832   0.00540   0.00000   0.01455   0.01444   2.14277
   A22        2.08678  -0.01146   0.00000  -0.02286  -0.02287   2.06392
   A23        2.04738  -0.02121   0.00000  -0.05170  -0.05163   1.99575
   A24        2.14662   0.03254   0.00000   0.07183   0.07110   2.21772
   A25        2.04892  -0.01089   0.00000  -0.02351  -0.02353   2.02539
   A26        2.00754  -0.05246   0.00000  -0.13278  -0.13289   1.87465
   A27        2.22643   0.06332   0.00000   0.15495   0.15378   2.38021
   A28        2.06022   0.01028   0.00000   0.02691   0.02691   2.08714
   A29        2.17370   0.01496   0.00000   0.03642   0.03643   2.21012
   A30        2.04919  -0.02528   0.00000  -0.06337  -0.06339   1.98579
   A31        2.01621  -0.00278   0.00000  -0.01040  -0.01073   2.00548
   A32        2.14188   0.00193   0.00000   0.00644   0.00652   2.14840
   A33        2.12500   0.00082   0.00000   0.00369   0.00378   2.12878
   A34        2.10943   0.00405   0.00000   0.01045   0.01025   2.11968
   A35        2.11468   0.00565   0.00000   0.01624   0.01625   2.13093
   A36        2.05896  -0.00970   0.00000  -0.02674  -0.02657   2.03239
   A37        2.11176   0.00142   0.00000   0.00366   0.00359   2.11534
   A38        2.05670  -0.00028   0.00000  -0.00030  -0.00027   2.05643
   A39        2.11471  -0.00115   0.00000  -0.00338  -0.00335   2.11136
   A40        2.08567  -0.00214   0.00000  -0.00838  -0.00846   2.07721
   A41        2.07549   0.00161   0.00000   0.00608   0.00612   2.08161
   A42        2.12199   0.00052   0.00000   0.00227   0.00230   2.12429
   A43        2.20043   0.00392   0.00000   0.00632   0.00611   2.20654
   A44        2.02023  -0.00120   0.00000  -0.00129  -0.00118   2.01905
[...]
 Alpha  occ. eigenvalues --   -0.53311  -0.51441  -0.50373  -0.49805  -0.49497
 Alpha  occ. eigenvalues --   -0.49219  -0.49172  -0.48678  -0.48591  -0.48374
 Alpha  occ. eigenvalues --   -0.48169  -0.46972  -0.46477  -0.46138  -0.45962
 Alpha  occ. eigenvalues --   -0.45698  -0.44706  -0.44268  -0.43952  -0.43219
 Alpha  occ. eigenvalues --   -0.43039  -0.42637  -0.42460  -0.42019  -0.41872
 Alpha  occ. eigenvalues --   -0.41592  -0.41003  -0.40943  -0.40305  -0.39960
 Alpha  occ. eigenvalues --   -0.39320  -0.39174  -0.38944  -0.37846  -0.37374
 Alpha  occ. eigenvalues --   -0.36672  -0.36216  -0.34679  -0.34394  -0.33672
 Alpha  occ. eigenvalues --   -0.33584  -0.31792  -0.30780  -0.30426  -0.29598
 Alpha  occ. eigenvalues --   -0.29143  -0.28568  -0.28499  -0.27768  -0.27205
 Alpha  occ. eigenvalues --   -0.25985  -0.25002  -0.24870  -0.19752
 Alpha virt. eigenvalues --   -0.12784  -0.07849  -0.06254  -0.04241  -0.03603
 Alpha virt. eigenvalues --   -0.00848  -0.00449  -0.00303  -0.00085   0.00381
 Alpha virt. eigenvalues --    0.00860   0.01320   0.01430   0.01828   0.01954
 Alpha virt. eigenvalues --    0.02016   0.02180   0.02500   0.02782   0.03165
 Alpha virt. eigenvalues --    0.03617   0.03691   0.03913   0.04267   0.04404
 Alpha virt. eigenvalues --    0.04757   0.04942   0.05098   0.05553   0.05815
 Alpha virt. eigenvalues --    0.06194   0.06405   0.06543   0.06762   0.06984
 Alpha virt. eigenvalues --    0.07143   0.07437   0.07719   0.07803   0.08165
 Alpha virt. eigenvalues --    0.08379   0.08541   0.08865   0.09272   0.09543
 Alpha virt. eigenvalues --    0.09790   0.09918   0.10205   0.10383   0.10698
 Alpha virt. eigenvalues --    0.10763   0.11268   0.11552   0.11852   0.12158
 Alpha virt. eigenvalues --    0.12381   0.12733   0.12778   0.13165   0.13346
 Alpha virt. eigenvalues --    0.13432   0.13783   0.13936   0.14216   0.14402
 Alpha virt. eigenvalues --    0.14712   0.14864   0.15140   0.15377   0.15505
 Alpha virt. eigenvalues --    0.15640   0.15818   0.15913   0.16238   0.16400
 Alpha virt. eigenvalues --    0.16563   0.16814   0.17307   0.17465   0.17614
 Alpha virt. eigenvalues --    0.17795   0.18051   0.18359   0.18462   0.18735
 Alpha virt. eigenvalues --    0.18771   0.19244   0.19426   0.19541   0.19766
 Alpha virt. eigenvalues --    0.19845   0.20079   0.20156   0.20354   0.20524
 Alpha virt. eigenvalues --    0.20665   0.20863   0.20949   0.21398   0.21697
 Alpha virt. eigenvalues --    0.21894   0.21971   0.22385   0.22465   0.22509
 Alpha virt. eigenvalues --    0.22719   0.23034   0.23175   0.23489   0.23772
 Alpha virt. eigenvalues --    0.23789   0.24023   0.24235   0.24308   0.24568
 Alpha virt. eigenvalues --    0.24807   0.24925   0.25030   0.25467   0.25608
 Alpha virt. eigenvalues --    0.25773   0.26044   0.26105   0.26161   0.26540
 Alpha virt. eigenvalues --    0.26676   0.26916   0.27121   0.27268   0.27343
 Alpha virt. eigenvalues --    0.27799   0.27820   0.28051   0.28501   0.28529
 Alpha virt. eigenvalues --    0.28628   0.28852   0.28935   0.29355   0.29512
 Alpha virt. eigenvalues --    0.29553   0.29998   0.30199   0.30535   0.30826
 Alpha virt. eigenvalues --    0.31424   0.31720   0.31788   0.32245   0.32497
 Alpha virt. eigenvalues --    0.32540   0.32753   0.33243   0.33359   0.33579
 Alpha virt. eigenvalues --    0.33879   0.34200   0.34325   0.34538   0.34916
 Alpha virt. eigenvalues --    0.35032   0.35509   0.35713   0.36091   0.36321
 Alpha virt. eigenvalues --    0.36804   0.37142   0.37583   0.37828   0.38261
 Alpha virt. eigenvalues --    0.38494   0.38683   0.38969   0.39336   0.39654
 Alpha virt. eigenvalues --    0.40330   0.40708   0.41102   0.41476   0.41889
 Alpha virt. eigenvalues --    0.42194   0.42798   0.42900   0.43455   0.43585
 Alpha virt. eigenvalues --    0.43899   0.44131   0.44784   0.45224   0.45402
 Alpha virt. eigenvalues --    0.45796   0.46070   0.46698   0.46908   0.47213
 Alpha virt. eigenvalues --    0.47524   0.48073   0.48453   0.48984   0.49313
 Alpha virt. eigenvalues --    0.49483   0.50290   0.50411   0.50765   0.51343
 Alpha virt. eigenvalues --    0.52054   0.52381   0.52949   0.53388   0.54127
 Alpha virt. eigenvalues --    0.54288   0.54600   0.55004   0.55144   0.55977
 Alpha virt. eigenvalues --    0.56321   0.56439   0.56550   0.56757   0.57178
 Alpha virt. eigenvalues --    0.58077   0.58252   0.58644   0.59036   0.59315
 Alpha virt. eigenvalues --    0.60015   0.60192   0.60965   0.61141   0.61183
 Alpha virt. eigenvalues --    0.61478   0.61883   0.62182   0.62577   0.63269
 Alpha virt. eigenvalues --    0.63522   0.63933   0.64447   0.64598   0.64961
 Alpha virt. eigenvalues --    0.65343   0.65578   0.65687   0.65961   0.66120
 Alpha virt. eigenvalues --    0.66372   0.66794   0.67421   0.67647   0.68776
 Alpha virt. eigenvalues --    0.69162   0.69506   0.69667   0.70165   0.70388
 Alpha virt. eigenvalues --    0.70737   0.71391   0.71654   0.72044   0.72361
 Alpha virt. eigenvalues --    0.72510   0.72898   0.73509   0.73850   0.74294
 Alpha virt. eigenvalues --    0.74626   0.74889   0.75165   0.75206   0.75978
 Alpha virt. eigenvalues --    0.76041   0.76098   0.76644   0.77273   0.77638
 Alpha virt. eigenvalues --    0.77717   0.78334   0.78517   0.78675   0.79330
 Alpha virt. eigenvalues --    0.79979   0.80279   0.80834   0.81421   0.82159
 Alpha virt. eigenvalues --    0.83110   0.83623   0.83958   0.84227   0.85602
 Alpha virt. eigenvalues --    0.86549   0.86763   0.87360   0.88608   0.88830
 Alpha virt. eigenvalues --    0.89073   0.89404   0.90148   0.90615   0.91101
 Alpha virt. eigenvalues --    0.91494   0.92288   0.92682   0.92908   0.93404
 Alpha virt. eigenvalues --    0.93759   0.94042   0.94552   0.94939   0.95463
 Alpha virt. eigenvalues --    0.95527   0.95901   0.96156   0.96958   0.97385
 Alpha virt. eigenvalues --    0.97451   0.98876   0.99027   0.99673   1.00309
 Alpha virt. eigenvalues --    1.00360   1.01194   1.01518   1.01668   1.02432
 Alpha virt. eigenvalues --    1.03253   1.03640   1.03807   1.04239   1.04516
 Alpha virt. eigenvalues --    1.04864   1.05416   1.05826   1.06124   1.06649
 Alpha virt. eigenvalues --    1.06779   1.07033   1.07381   1.08037   1.08303
 Alpha virt. eigenvalues --    1.08737   1.09142   1.09693   1.10341   1.10588
 Alpha virt. eigenvalues --    1.11785   1.12647   1.13653   1.14162   1.15200
 Alpha virt. eigenvalues --    1.15469   1.15803   1.17025   1.17192   1.18517
 Alpha virt. eigenvalues --    1.18586   1.18772   1.19368   1.20953   1.21793
 Alpha virt. eigenvalues --    1.22601   1.23277   1.24098   1.24264   1.24845
 Alpha virt. eigenvalues --    1.25579   1.25899   1.26467   1.27033   1.27314
 Alpha virt. eigenvalues --    1.28421   1.28918   1.30034   1.30621   1.31493
 Alpha virt. eigenvalues --    1.32250   1.32619   1.33208   1.34595   1.34748
 Alpha virt. eigenvalues --    1.34946   1.35734   1.37401   1.38098   1.38772
 Alpha virt. eigenvalues --    1.39710   1.40802   1.41473   1.41836   1.42205
 Alpha virt. eigenvalues --    1.42855   1.43401   1.43688   1.43804   1.44702
 Alpha virt. eigenvalues --    1.45149   1.45275   1.45645   1.45879   1.46312
 Alpha virt. eigenvalues --    1.46610   1.47047   1.47991   1.48765   1.49112
 Alpha virt. eigenvalues --    1.49673   1.50967   1.51688   1.51846   1.52329
 Alpha virt. eigenvalues --    1.53104   1.53529   1.54113   1.54429   1.54920
 Alpha virt. eigenvalues --    1.55280   1.55773   1.56099   1.56577   1.56906
 Alpha virt. eigenvalues --    1.57809   1.58143   1.60004   1.61003   1.61195
 Alpha virt. eigenvalues --    1.62272   1.62584   1.62916   1.63553   1.63940
 Alpha virt. eigenvalues --    1.65280   1.65874   1.66189   1.66724   1.67455
 Alpha virt. eigenvalues --    1.68203   1.68531   1.68855   1.69628   1.69798
 Alpha virt. eigenvalues --    1.69987   1.70919   1.71545   1.72058   1.72319
 Alpha virt. eigenvalues --    1.72575   1.73698   1.74487   1.75131   1.75627
 Alpha virt. eigenvalues --    1.75869   1.76790   1.77788   1.78088   1.78595
 Alpha virt. eigenvalues --    1.78755   1.79388   1.79748   1.80679   1.82509
 Alpha virt. eigenvalues --    1.83552   1.84229   1.84686   1.85194   1.86181
 Alpha virt. eigenvalues --    1.86875   1.87054   1.87435   1.88218   1.89001
 Alpha virt. eigenvalues --    1.89556   1.90193   1.90689   1.91053   1.91846
 Alpha virt. eigenvalues --    1.92320   1.93153   1.93542   1.94807   1.95042
 Alpha virt. eigenvalues --    1.96132   1.97042   1.97058   1.98084   1.98868
 Alpha virt. eigenvalues --    1.99894   2.00095   2.00777   2.01858   2.02123
 Alpha virt. eigenvalues --    2.02552   2.03490   2.03731   2.04501   2.04877
 Alpha virt. eigenvalues --    2.05508   2.06174   2.06531   2.07332   2.07675
 Alpha virt. eigenvalues --    2.08301   2.09710   2.10648   2.10798   2.11515
 Alpha virt. eigenvalues --    2.11922   2.13683   2.13929   2.14857   2.14998
 Alpha virt. eigenvalues --    2.16475   2.16992   2.18145   2.18672   2.19257
 Alpha virt. eigenvalues --    2.19788   2.20857   2.21479   2.21699   2.22639
 Alpha virt. eigenvalues --    2.24673   2.24932   2.26700   2.27291   2.29450
 Alpha virt. eigenvalues --    2.31506   2.32953   2.33909   2.35860   2.37654
 Alpha virt. eigenvalues --    2.38380   2.39179   2.40115   2.41590   2.42642
 Alpha virt. eigenvalues --    2.43087   2.43593   2.44537   2.44874   2.46065
 Alpha virt. eigenvalues --    2.46745   2.47668   2.48399   2.49250   2.49471
 Alpha virt. eigenvalues --    2.50687   2.51553   2.51941   2.52434   2.52560
 Alpha virt. eigenvalues --    2.53137   2.53474   2.54154   2.54589   2.55889
 Alpha virt. eigenvalues --    2.56743   2.57756   2.58915   2.59242   2.60390
 Alpha virt. eigenvalues --    2.62802   2.63389   2.63625   2.65106   2.66645
 Alpha virt. eigenvalues --    2.66938   2.67414   2.67591   2.67989   2.68621
 Alpha virt. eigenvalues --    2.69241   2.70186   2.70912   2.71368   2.71805
 Alpha virt. eigenvalues --    2.72084   2.73309   2.73671   2.73982   2.75785
 Alpha virt. eigenvalues --    2.76687   2.76806   2.77472   2.78460   2.81018
 Alpha virt. eigenvalues --    2.81274   2.82172   2.82954   2.83123   2.83942
 Alpha virt. eigenvalues --    2.84188   2.84520   2.85399   2.86223   2.86976
 Alpha virt. eigenvalues --    2.88227   2.88848   2.89225   2.89469   2.90480
 Alpha virt. eigenvalues --    2.91667   2.91933   2.92876   2.93280   2.94537
 Alpha virt. eigenvalues --    2.95262   2.96034   2.96349   2.97588   2.98896
 Alpha virt. eigenvalues --    3.00140   3.02335   3.02666   3.03803   3.05100
 Alpha virt. eigenvalues --    3.05564   3.06796   3.07648   3.09390   3.11051
 Alpha virt. eigenvalues --    3.11533   3.13336   3.14372   3.14743   3.15382
 Alpha virt. eigenvalues --    3.16955   3.17770   3.18423   3.20501   3.21727
 Alpha virt. eigenvalues --    3.22950   3.23499   3.23956   3.25174   3.26534
 Alpha virt. eigenvalues --    3.28818   3.29238   3.30564   3.32011   3.34755
 Alpha virt. eigenvalues --    3.35244   3.35526   3.35785   3.36636   3.37692
 Alpha virt. eigenvalues --    3.39369   3.40091   3.40846   3.43243   3.44102
 Alpha virt. eigenvalues --    3.44686   3.45507   3.46201   3.48563   3.49799
 Alpha virt. eigenvalues --    3.51604   3.53667   3.55628   3.58530   3.60648
 Alpha virt. eigenvalues --    3.60890   3.62860   3.65776   3.66441   3.67212
 Alpha virt. eigenvalues --    3.69243   3.70470   3.72704   3.73648   3.75692
 Alpha virt. eigenvalues --    3.76244   3.76875   3.80617   3.82617   3.84450
 Alpha virt. eigenvalues --    3.85719   3.86372   3.89862   3.91513   3.93154
 Alpha virt. eigenvalues --    3.93536   3.95354   3.97210   4.01856   4.02664
 Alpha virt. eigenvalues --    4.04291   4.07832   4.09966   4.12918   4.14105
 Alpha virt. eigenvalues --    4.20079   4.23657   4.25498   4.27483   4.35664
 Alpha virt. eigenvalues --    4.40042   4.40978   4.53146   4.70962   4.84525
 Alpha virt. eigenvalues --    4.85132   4.87547   4.90354   5.00819   5.02345
 Alpha virt. eigenvalues --    5.04196   5.05726   5.06479   5.10305   5.11694
 Alpha virt. eigenvalues --    5.12997   5.25364   5.27289   5.29041   5.30556
 Alpha virt. eigenvalues --    5.41554   5.42911   5.76049   5.76694   5.80141
 Alpha virt. eigenvalues --    5.80404   5.82711   5.84929   8.02206   8.04706
 Alpha virt. eigenvalues --   17.28495  17.30906  17.49215  17.52089  17.57487
 Alpha virt. eigenvalues --   17.63621  23.48947  23.56474  23.71214  23.78800
 Alpha virt. eigenvalues --   23.82742  23.83459  23.84951  23.87066  23.87571
 Alpha virt. eigenvalues --   23.88623  23.89201  23.90137  23.91106  23.93432
 Alpha virt. eigenvalues --   23.95013  23.95455  23.96376  23.98267  24.01147
 Alpha virt. eigenvalues --   24.01580  24.02349  24.05739  24.12434  24.14315
 Alpha virt. eigenvalues --   24.14840  24.15202  35.56228  35.58745  49.95662
 Alpha virt. eigenvalues --   49.97554  50.02741  50.04325  50.06397  50.07712
 Alpha virt. eigenvalues --  189.19493 189.22657
          Condensed to atoms (all electrons):
 Mulliken charges:
               1
     1  C    0.258156
     2  C    0.014231
     3  C    0.229433
     4  C    0.233549
     5  C    0.239646
     6  C    0.152523
     7  C    0.256964
     8  C    0.402950
     9  C    0.240912
    10  C   -0.845355
    11  C    0.183835
    12  C    0.137252
    13  C   -0.476215
    14  C   -0.591772
    15  H    0.157657
    16  H    0.160797
    17  H    0.166151
    18  N   -0.118314
    19  N   -0.141078
    20  O   -0.286548
    21  O   -0.267908
    22  O   -0.280166
    23  O   -0.253492
    24  C   -0.167579
    25  H    0.177329
    26  H    0.168197
    27  H    0.182732
    28  C   -0.197723
    29  H    0.173461
    30  H    0.172966
    31  H    0.181502
    32  C   -0.082757
    33  C   -0.207947
    34  S   -0.674991
    35  C   -0.422782
    36  H    0.155611
    37  C    0.679270
    38  O   -0.127423
    39  C    0.919781
    40  C   -0.244590
    41  C    0.012805
    42  S   -0.235481
    43  H    0.165807
    44  H    0.145297
    45  H    0.166043
    46  C   -0.611844
    47  O   -0.127606
    48  C   -0.295210
    49  H    0.133878
    50  C   -0.240817
    51  H    0.163537
    52  H    0.145297
    53  H    0.172480
    54  H    0.147550
 Sum of Mulliken charges =  -0.00000
 Mulliken charges with hydrogens summed into heavy atoms:
               1
     1  C    0.258156
     2  C    0.014231
     3  C    0.229433
     4  C    0.233549
     5  C    0.239646
     6  C    0.318674
     7  C    0.256964
     8  C    0.402950
     9  C    0.240912
    10  C   -0.845355
    11  C    0.183835
    12  C    0.137252
    13  C   -0.315418
    14  C   -0.434116
    18  N   -0.118314
    19  N   -0.141078
    20  O   -0.286548
    21  O   -0.267908
    22  O   -0.280166
    23  O   -0.253492
    24  C    0.360679
    28  C    0.330206
    32  C   -0.082757
    33  C   -0.052335
    34  S   -0.674991
    35  C   -0.422782
    37  C    0.679270
    38  O   -0.127423
    39  C    0.919781
    40  C    0.232556
    41  C    0.012805
    42  S   -0.235481
    46  C   -0.477966
    47  O   -0.127606
    48  C   -0.131673
    50  C    0.224510
 Electronic spatial extent (au):  <R**2>=          22444.7721
 Charge=             -0.0000 electrons
 Dipole moment (field-independent basis, Debye):
    X=              5.7381    Y=             -0.7462    Z=             -0.1945  Tot=              5.7896
 Quadrupole moment (field-independent basis, Debye-Ang):
   XX=           -215.2712   YY=           -209.2089   ZZ=           -221.8964
   XY=             -4.6962   XZ=              0.3912   YZ=             -8.6891
 Traceless Quadrupole moment (field-independent basis, Debye-Ang):
   XX=              0.1876   YY=              6.2499   ZZ=             -6.4375
   XY=             -4.6962   XZ=              0.3912   YZ=             -8.6891
 Octapole moment (field-independent basis, Debye-Ang**2):
  XXX=            408.9505  YYY=            -18.4101  ZZZ=              3.3975  XYY=            146.2612
  XXY=            -88.2868  XXZ=             25.0346  XZZ=             -8.3340  YZZ=             -1.0366
  YYZ=              1.5164  XYZ=            -31.3380
 Hexadecapole moment (field-independent basis, Debye-Ang**3):
 XXXX=         -20727.6487 YYYY=          -7848.3727 ZZZZ=           -542.0395 XXXY=           -570.6300
 XXXZ=             28.1401 YYYX=            235.5694 YYYZ=            -92.3200 ZZZX=              3.2328
 ZZZY=             -0.7178 XXYY=          -4980.5185 XXZZ=          -3771.7706 YYZZ=          -1427.3128
 XXYZ=           -185.2586 YYXZ=              5.2943 ZZXY=              9.5490
 N-N= 4.087762226905D+03 E-N=-1.371554438594D+04  KE= 2.352057691168D+03
 Unable to Open any file for archive entry.
 1\1\GINC-CX3-1-15\FOpt\RB3LYP\6-311+G(d,p)\C26H18N2O6S2\NS5018\29-Nov-
 2020\0\\# opt=modredundant b3lyp/6-311+g(d,p)\\NDI_-15.pdb\\0,1\C,-2.5
 613453162,-2.9618115066,-0.5111315306\C,-2.2577153776,-1.5250217043,-0
 .2775447015\C,-3.3019410661,-0.5868806437,-0.1101214137\C,-4.647127727
 1,-0.9997301326,-0.1686111172\C,-4.9885267932,-2.4264847161,-0.4138493
 56\C,-0.9551742003,-1.1124514746,-0.254596473\C,-2.9586010015,0.770433
 0088,0.1418652549\C,-1.5905956538,1.1932509276,0.1828594818\C,-0.55227
 97024,0.2476611246,-0.0638033331\C,-1.3341425412,2.5759740235,0.661918
 3355\C,-3.7754033878,3.0947504727,0.6691488027\C,-4.030938614,1.676390
 6432,0.3449396867\C,-5.3520085715,1.2552390118,0.2676818453\C,-5.66902
 92277,-0.0796981918,0.0098637409\H,-6.6967055748,-0.4147182288,-0.0431
 315151\H,-6.129514248,1.9924106497,0.4232113273\H,-0.2083722296,-1.873
 7645822,-0.4372474381\N,-2.4348246889,3.4337139797,0.8481713154\N,-3.9
 125000063,-3.3188049868,-0.5615849067\O,-1.6948055902,-3.8039114665,-0
 .6616775649\O,-6.1399888836,-2.8135106955,-0.4809574185\O,-4.668987551
 4,3.9143453734,0.8003067629\O,-0.2265062471,3.0257077188,0.9099700744\
 C,-2.1170237391,4.8017347509,1.2813609212\H,-1.5872090821,4.7741554775
 ,2.2334334359\H,-1.4743103329,5.2851387379,0.5450811616\H,-3.053283178
 7,5.3420063923,1.3789546911\C,-4.2036097719,-4.7395485512,-0.799912646
 2\H,-3.7538166028,-5.0538704258,-1.7418438358\H,-3.7788103005,-5.34238
 96022,0.0032345067\H,-5.2819271199,-4.8580281514,-0.8338000995\C,0.868
 0273004,0.4942645538,-0.2880693575\C,1.5745235241,1.6448014712,-0.5943
 274259\S,1.9899116643,-0.8680080487,-0.1647245461\C,2.9535014325,1.439
 3100714,-0.7526696016\H,1.1071790401,2.6057758512,-0.7012712713\C,3.37
 27468732,0.1226483413,-0.5425393699\O,3.876663356,2.380313202,-1.07808
 85046\C,4.709443843,-0.391987761,-0.6026950514\C,3.4495472091,3.740260
 7651,-1.1463848989\C,5.1234433662,-1.7067742724,-0.4026133343\S,6.1109
 571344,0.613572842,-0.9553674318\H,4.3471764588,4.323764613,-1.3424668
 798\H,2.7350961222,3.8857830476,-1.9627676712\H,2.9997680004,4.0574489
 968,-0.2010294406\C,6.52567583,-1.9001405709,-0.5286655579\O,4.2002677
 259,-2.656080218,-0.112780907\C,7.1769640667,-0.7342051364,-0.82418021
 78\H,7.0273456884,-2.848974103,-0.407924431\C,4.641428759,-4.001872780
 8,0.0525425899\H,8.2363982004,-0.5931640236,-0.9747009796\H,5.33594212
 08,-4.0865562189,0.8942024575\H,3.7460480562,-4.5844648218,0.260073919
 6\H,5.115968556,-4.3740030322,-0.8607400832\\Version=ES64L-G16RevC.01\
 State=1-A\HF=-2359.3366361\RMSD=5.457e-09\RMSF=1.179e-03\Dipole=2.2377
 091,-0.3286164,-0.2704062\Quadrupole=-0.0608374,6.1075033,-6.046666,-3
 .7494382,-0.6440972,-4.9860657\PG=C01 [X(C26H18N2O6S2)]\\@
 The archive entry for this job was punched.


 I WISH TO HAVE NO CONNECTION WITH ANY SHIP THAT DOES NOT SAIL FAST,
 FOR I INTEND TO GO IN HARM'S WAY.
     -- JOHN PAUL JONES, USN 1747-1792
 Job cpu time:       1 days  9 hours 54 minutes 35.5 seconds.
 Elapsed time:       0 days  4 hours 16 minutes 28.1 seconds.
 File lengths (MBytes):  RWF=    496 Int=      0 D2E=      0 Chk=     61 Scr=      1
 Normal termination of Gaussian 16 at Sun Nov 29 13:19:24 2020.
