 Entering Gaussian System, Link 0=g16
 Input=NDI_120.gjf
 Output=NDI_120.log
 Initial command:
 /apps/gaussian/g16-c01-avx/g16/l1.exe "/tmp/pbs.2625174[60].pbs/Gau-878171.inp" -scrdir="/tmp/pbs.2625174[60].pbs/"
 Entering Link 1 = /apps/gaussian/g16-c01-avx/g16/l1.exe PID=    878172.
  
 Copyright (c) 1988-2019, Gaussian, Inc.  All Rights Reserved.
  
 This is part of the Gaussian(R) 16 program.  It is based on
 the Gaussian(R) 09 system (copyright 2009, Gaussian, Inc.),
 the Gaussian(R) 03 system (copyright 2003, Gaussian, Inc.),
 the Gaussian(R) 98 system (copyright 1998, Gaussian, Inc.),
 the Gaussian(R) 94 system (copyright 1995, Gaussian, Inc.),
 the Gaussian 92(TM) system (copyright 1992, Gaussian, Inc.),
 the Gaussian 90(TM) system (copyright 1990, Gaussian, Inc.),
 the Gaussian 88(TM) system (copyright 1988, Gaussian, Inc.),
 the Gaussian 86(TM) system (copyright 1986, Carnegie Mellon
 University), and the Gaussian 82(TM) system (copyright 1983,
 Carnegie Mellon University). Gaussian is a federally registered
 trademark of Gaussian, Inc.
  
 This software contains proprietary and confidential information,
 including trade secrets, belonging to Gaussian, Inc.
  
 This software is provided under written license and may be
 used, copied, transmitted, or stored only in accord with that
 written license.
  
 The following legend is applicable only to US Government
 contracts under FAR:
  
                    RESTRICTED RIGHTS LEGEND
  
 Use, reproduction and disclosure by the US Government is
 subject to restrictions as set forth in subparagraphs (a)
 and (c) of the Commercial Computer Software - Restricted
 Rights clause in FAR 52.227-19.
  
 Gaussian, Inc.
 340 Quinnipiac St., Bldg. 40, Wallingford CT 06492
  
  
 ---------------------------------------------------------------
 Warning -- This program may not be used in any manner that
 competes with the business of Gaussian, Inc. or will provide
 assistance to any competitor of Gaussian, Inc.  The licensee
 of this program is prohibited from giving any competitor of
 Gaussian, Inc. access to this program.  By using this program,
 the user acknowledges that Gaussian, Inc. is engaged in the
 business of creating and licensing software in the field of
 computational chemistry and represents and warrants to the
 licensee that it is not a competitor of Gaussian, Inc. and that
 it will not use this program in any manner prohibited above.
 ---------------------------------------------------------------
  

 Cite this work as:
 Gaussian 16, Revision C.01,
 M. J. Frisch, G. W. Trucks, H. B. Schlegel, G. E. Scuseria, 
 M. A. Robb, J. R. Cheeseman, G. Scalmani, V. Barone, 
 G. A. Petersson, H. Nakatsuji, X. Li, M. Caricato, A. V. Marenich, 
 J. Bloino, B. G. Janesko, R. Gomperts, B. Mennucci, H. P. Hratchian, 
 J. V. Ortiz, A. F. Izmaylov, J. L. Sonnenberg, D. Williams-Young, 
 F. Ding, F. Lipparini, F. Egidi, J. Goings, B. Peng, A. Petrone, 
 T. Henderson, D. Ranasinghe, V. G. Zakrzewski, J. Gao, N. Rega, 
 G. Zheng, W. Liang, M. Hada, M. Ehara, K. Toyota, R. Fukuda, 
 J. Hasegawa, M. Ishida, T. Nakajima, Y. Honda, O. Kitao, H. Nakai, 
 T. Vreven, K. Throssell, J. A. Montgomery, Jr., J. E. Peralta, 
 F. Ogliaro, M. J. Bearpark, J. J. Heyd, E. N. Brothers, K. N. Kudin, 
 V. N. Staroverov, T. A. Keith, R. Kobayashi, J. Normand, 
 K. Raghavachari, A. P. Rendell, J. C. Burant, S. S. Iyengar, 
 J. Tomasi, M. Cossi, J. M. Millam, M. Klene, C. Adamo, R. Cammi, 
 J. W. Ochterski, R. L. Martin, K. Morokuma, O. Farkas, 
 J. B. Foresman, and D. J. Fox, Gaussian, Inc., Wallingford CT, 2019.
 
 ******************************************
 Gaussian 16:  ES64L-G16RevC.01  3-Jul-2019
                29-Nov-2020 
 ******************************************
 %mem=10GB
 %nprocshared=8
 Will use up to    8 processors via shared memory.
 -------------------------------------
 # opt=modredundant b3lyp/6-311+g(d,p)
 -------------------------------------
 1/18=120,19=15,26=3,38=1/1,3;
 2/9=110,12=2,17=6,18=5,40=1/2;
 3/5=4,6=6,7=111,11=2,25=1,30=1,71=1,74=-5/1,2,3;
 4//1;
 5/5=2,38=5/2;
 6/7=2,8=2,9=2,10=2,28=1/1;
 7//1,2,3,16;
 1/18=20,19=15,26=3/3(2);
 2/9=110/2;
 99//99;
 2/9=110/2;
 3/5=4,6=6,7=111,11=2,25=1,30=1,71=1,74=-5/1,2,3;
 4/5=5,16=3,69=1/1;
 5/5=2,38=5/2;
 7//1,2,3,16;
 1/18=20,19=15,26=3/3(-5);
 2/9=110/2;
 6/7=2,8=2,9=2,10=2,19=2,28=1/1;
 99/9=1/99;
 -----------
 NDI_120.pdb
 -----------
 Symbolic Z-matrix:
 Charge =  0 Multiplicity = 1
 C                    -2.563    -2.994    -0.409 
 C                    -2.257    -1.551    -0.224 
 C                    -3.301    -0.607    -0.083 
 C                    -4.65     -1.024    -0.115 
 C                    -4.992    -2.459    -0.304 
 C                    -0.949    -1.137    -0.215 
 C                    -2.962     0.764     0.102 
 C                    -1.595     1.188     0.123 
 C                    -0.561     0.232    -0.072 
 C                    -1.328     2.616     0.446 
 C                    -3.777     3.115     0.508 
 C                    -4.035     1.679     0.268 
 C                    -5.356     1.252     0.23 
 C                    -5.672    -0.098     0.036 
 H                    -6.699    -0.442     0.008 
 H                    -6.133     1.997     0.361 
 H                    -0.19     -1.895    -0.369 
 N                    -2.432     3.476     0.608 
 N                    -3.916    -3.353    -0.438 
 O                    -1.695    -3.847    -0.532 
 O                    -6.149    -2.85     -0.34 
 O                    -4.676     3.938     0.629 
 O                    -0.212     3.097     0.596 
 C                    -2.111     4.875     0.912 
 H                    -1.54      4.931     1.84 
 H                    -1.5       5.299     0.111 
 H                    -3.05      5.414     1.003 
 C                    -4.206    -4.779    -0.625 
 H                    -3.759    -5.126    -1.559 
 H                    -3.775    -5.355     0.196 
 H                    -5.286    -4.897    -0.649 
 C                     0.876     0.482    -0.178 
 C                     1.931     0.031     0.591 
 S                     1.449     1.656    -1.363 
 C                     3.169     0.604     0.24 
 H                     1.812    -0.697     1.377 
 C                     3.105     1.514    -0.821 
 O                     4.371     0.354     0.824 
 C                     4.191     2.225    -1.434 
 C                     4.424    -0.68      1.802 
 C                     4.123     3.149    -2.475 
 S                     5.87      2.029    -0.937 
 H                     5.474    -0.775     2.082 
 H                     3.835    -0.418     2.689 
 H                     4.063    -1.632     1.394 
 C                     5.384     3.684    -2.864 
 O                     2.914     3.45     -3.017 
 C                     6.409     3.168    -2.118 
 H                     5.523     4.411    -3.651 
 C                     2.871     4.423    -4.055 
 H                     7.462     3.4      -2.199 
 H                     3.448     4.097    -4.929 
 H                     1.822     4.522    -4.331 
 H                     3.251     5.391    -3.708 
 
 The following ModRedundant input section has been read:
 D       8       9      32      33 F                                           
 D      33      35      38      40 F                                           
 D      46      41      47      50 F                                           
 D      10      18      24      25 F                                           
 D       1      19      28      30 F                                           
 D       9       8      10      23 F                                           
 D      20       1       2       6 F                                           
 

 GradGradGradGradGradGradGradGradGradGradGradGradGradGradGradGradGradGrad
 Berny optimization.
 Initialization pass.
                           ----------------------------
                           !    Initial Parameters    !
                           ! (Angstroms and Degrees)  !
 --------------------------                            --------------------------
 ! Name  Definition              Value          Derivative Info.                !
 --------------------------------------------------------------------------------
 ! R1    R(1,2)                  1.4866         estimate D2E/DX2                !
 ! R2    R(1,19)                 1.4001         estimate D2E/DX2                !
 ! R3    R(1,20)                 1.2232         estimate D2E/DX2                !
 ! R4    R(2,3)                  1.4146         estimate D2E/DX2                !
 ! R5    R(2,6)                  1.372          estimate D2E/DX2                !
 ! R6    R(3,4)                  1.4123         estimate D2E/DX2                !
 ! R7    R(3,7)                  1.4244         estimate D2E/DX2                !
 ! R8    R(4,5)                  1.4872         estimate D2E/DX2                !
 ! R9    R(4,14)                 1.3874         estimate D2E/DX2                !
 ! R10   R(5,19)                 1.4053         estimate D2E/DX2                !
 ! R11   R(5,21)                 1.2218         estimate D2E/DX2                !
 ! R12   R(6,9)                  1.4301         estimate D2E/DX2                !
 ! R13   R(6,17)                 1.0837         estimate D2E/DX2                !
 ! R14   R(7,8)                  1.4314         estimate D2E/DX2                !
 ! R15   R(7,12)                 1.4199         estimate D2E/DX2                !
 ! R16   R(8,9)                  1.4217         estimate D2E/DX2                !
 ! R17   R(8,10)                 1.4882         estimate D2E/DX2                !
 ! R18   R(9,32)                 1.4624         estimate D2E/DX2                !
 ! R19   R(10,18)                1.4088         estimate D2E/DX2                !
 ! R20   R(10,23)                1.2245         estimate D2E/DX2                !
 ! R21   R(11,12)                1.4786         estimate D2E/DX2                !
 ! R22   R(11,18)                1.3962         estimate D2E/DX2                !
 ! R23   R(11,22)                1.2248         estimate D2E/DX2                !
 ! R24   R(12,13)                1.3888         estimate D2E/DX2                !
 ! R25   R(13,14)                1.4            estimate D2E/DX2                !
 ! R26   R(13,16)                1.0844         estimate D2E/DX2                !
 ! R27   R(14,15)                1.0834         estimate D2E/DX2                !
 ! R28   R(18,24)                1.4672         estimate D2E/DX2                !
 ! R29   R(19,28)                1.4672         estimate D2E/DX2                !
 ! R30   R(24,25)                1.091          estimate D2E/DX2                !
 ! R31   R(24,26)                1.093          estimate D2E/DX2                !
 ! R32   R(24,27)                1.0865         estimate D2E/DX2                !
 ! R33   R(28,29)                1.0921         estimate D2E/DX2                !
 ! R34   R(28,30)                1.0916         estimate D2E/DX2                !
 ! R35   R(28,31)                1.0867         estimate D2E/DX2                !
 ! R36   R(32,33)                1.3812         estimate D2E/DX2                !
 ! R37   R(32,34)                1.7638         estimate D2E/DX2                !
 ! R38   R(33,35)                1.4086         estimate D2E/DX2                !
 ! R39   R(33,36)                1.0779         estimate D2E/DX2                !
 ! R40   R(34,37)                1.7482         estimate D2E/DX2                !
 ! R41   R(35,37)                1.3993         estimate D2E/DX2                !
 ! R42   R(35,38)                1.3595         estimate D2E/DX2                !
 ! R43   R(37,39)                1.4355         estimate D2E/DX2                !
 ! R44   R(38,40)                1.4242         estimate D2E/DX2                !
 ! R45   R(39,41)                1.3936         estimate D2E/DX2                !
 ! R46   R(39,42)                1.7619         estimate D2E/DX2                !
 ! R47   R(40,43)                1.0908         estimate D2E/DX2                !
 ! R48   R(40,44)                1.0965         estimate D2E/DX2                !
 ! R49   R(40,45)                1.0969         estimate D2E/DX2                !
 ! R50   R(41,46)                1.424          estimate D2E/DX2                !
 ! R51   R(41,47)                1.3587         estimate D2E/DX2                !
 ! R52   R(42,48)                1.727          estimate D2E/DX2                !
 ! R53   R(46,48)                1.3687         estimate D2E/DX2                !
 ! R54   R(46,49)                1.0804         estimate D2E/DX2                !
 ! R55   R(47,50)                1.4234         estimate D2E/DX2                !
 ! R56   R(48,51)                1.0813         estimate D2E/DX2                !
 ! R57   R(50,52)                1.0969         estimate D2E/DX2                !
 ! R58   R(50,53)                1.0892         estimate D2E/DX2                !
 ! R59   R(50,54)                1.0963         estimate D2E/DX2                !
 ! A1    A(2,1,19)             116.767          estimate D2E/DX2                !
 ! A2    A(2,1,20)             122.9113         estimate D2E/DX2                !
 ! A3    A(19,1,20)            120.3217         estimate D2E/DX2                !
 ! A4    A(1,2,3)              120.5473         estimate D2E/DX2                !
 ! A5    A(1,2,6)              119.3369         estimate D2E/DX2                !
 ! A6    A(3,2,6)              120.1056         estimate D2E/DX2                !
 ! A7    A(2,3,4)              120.3743         estimate D2E/DX2                !
 ! A8    A(2,3,7)              118.662          estimate D2E/DX2                !
 ! A9    A(4,3,7)              120.9617         estimate D2E/DX2                !
 ! A10   A(3,4,5)              120.4909         estimate D2E/DX2                !
 ! A11   A(3,4,14)             120.2702         estimate D2E/DX2                !
 ! A12   A(5,4,14)             119.2382         estimate D2E/DX2                !
 ! A13   A(4,5,19)             116.7341         estimate D2E/DX2                !
 ! A14   A(4,5,21)             122.024          estimate D2E/DX2                !
 ! A15   A(19,5,21)            121.2418         estimate D2E/DX2                !
 ! A16   A(2,6,9)              123.2421         estimate D2E/DX2                !
 ! A17   A(2,6,17)             117.1119         estimate D2E/DX2                !
 ! A18   A(9,6,17)             119.589          estimate D2E/DX2                !
 ! A19   A(3,7,8)              120.9519         estimate D2E/DX2                !
 ! A20   A(3,7,12)             117.1037         estimate D2E/DX2                !
 ! A21   A(8,7,12)             121.944          estimate D2E/DX2                !
 ! A22   A(7,8,9)              119.5639         estimate D2E/DX2                !
 ! A23   A(7,8,10)             117.3064         estimate D2E/DX2                !
 ! A24   A(9,8,10)             122.9922         estimate D2E/DX2                !
 ! A25   A(6,9,8)              117.3944         estimate D2E/DX2                !
 ! A26   A(6,9,32)             115.0236         estimate D2E/DX2                !
 ! A27   A(8,9,32)             127.5648         estimate D2E/DX2                !
 ! A28   A(8,10,18)            118.042          estimate D2E/DX2                !
 ! A29   A(8,10,23)            124.5436         estimate D2E/DX2                !
 ! A30   A(18,10,23)           117.4097         estimate D2E/DX2                !
 ! A31   A(12,11,18)           115.5202         estimate D2E/DX2                !
 ! A32   A(12,11,22)           122.7205         estimate D2E/DX2                !
 ! A33   A(18,11,22)           121.7534         estimate D2E/DX2                !
 ! A34   A(7,12,11)            120.8614         estimate D2E/DX2                !
 ! A35   A(7,12,13)            121.162          estimate D2E/DX2                !
 ! A36   A(11,12,13)           117.9699         estimate D2E/DX2                !
 ! A37   A(12,13,14)           120.9948         estimate D2E/DX2                !
 ! A38   A(12,13,16)           117.8401         estimate D2E/DX2                !
 ! A39   A(14,13,16)           121.1642         estimate D2E/DX2                !
 ! A40   A(4,14,13)            119.5003         estimate D2E/DX2                !
 ! A41   A(4,14,15)            118.9169         estimate D2E/DX2                !
 ! A42   A(13,14,15)           121.5811         estimate D2E/DX2                !
 ! A43   A(10,18,11)           126.0753         estimate D2E/DX2                !
 ! A44   A(10,18,24)           115.7508         estimate D2E/DX2                !
 ! A45   A(11,18,24)           118.1737         estimate D2E/DX2                !
 ! A46   A(1,19,5)             125.0856         estimate D2E/DX2                !
 ! A47   A(1,19,28)            116.2868         estimate D2E/DX2                !
 ! A48   A(5,19,28)            118.6276         estimate D2E/DX2                !
 ! A49   A(18,24,25)           109.8574         estimate D2E/DX2                !
 ! A50   A(18,24,26)           109.8979         estimate D2E/DX2                !
 ! A51   A(18,24,27)           107.5355         estimate D2E/DX2                !
 ! A52   A(25,24,26)           108.1108         estimate D2E/DX2                !
 ! A53   A(25,24,27)           110.8301         estimate D2E/DX2                !
 ! A54   A(26,24,27)           110.6124         estimate D2E/DX2                !
 ! A55   A(19,28,29)           109.6906         estimate D2E/DX2                !
 ! A56   A(19,28,30)           109.8136         estimate D2E/DX2                !
 ! A57   A(19,28,31)           107.7461         estimate D2E/DX2                !
 ! A58   A(29,28,30)           108.2991         estimate D2E/DX2                !
 ! A59   A(29,28,31)           110.6959         estimate D2E/DX2                !
 ! A60   A(30,28,31)           110.5924         estimate D2E/DX2                !
 ! A61   A(9,32,33)            130.871          estimate D2E/DX2                !
 ! A62   A(9,32,34)            118.7972         estimate D2E/DX2                !
 ! A63   A(33,32,34)           110.0754         estimate D2E/DX2                !
 ! A64   A(32,33,35)           113.5623         estimate D2E/DX2                !
 ! A65   A(32,33,36)           122.8313         estimate D2E/DX2                !
 ! A66   A(35,33,36)           123.6041         estimate D2E/DX2                !
 ! A67   A(32,34,37)            92.6007         estimate D2E/DX2                !
 ! A68   A(33,35,37)           114.4121         estimate D2E/DX2                !
 ! A69   A(33,35,38)           126.5268         estimate D2E/DX2                !
 ! A70   A(37,35,38)           119.0611         estimate D2E/DX2                !
 ! A71   A(34,37,35)           109.3437         estimate D2E/DX2                !
 ! A72   A(34,37,39)           122.9562         estimate D2E/DX2                !
 ! A73   A(35,37,39)           127.6841         estimate D2E/DX2                !
 ! A74   A(35,38,40)           117.4756         estimate D2E/DX2                !
 ! A75   A(37,39,41)           127.6235         estimate D2E/DX2                !
 ! A76   A(37,39,42)           123.0493         estimate D2E/DX2                !
 ! A77   A(41,39,42)           109.3272         estimate D2E/DX2                !
 ! A78   A(38,40,43)           105.9803         estimate D2E/DX2                !
 ! A79   A(38,40,44)           111.2242         estimate D2E/DX2                !
 ! A80   A(38,40,45)           111.2507         estimate D2E/DX2                !
 ! A81   A(43,40,44)           109.2821         estimate D2E/DX2                !
 ! A82   A(43,40,45)           109.6756         estimate D2E/DX2                !
 ! A83   A(44,40,45)           109.3594         estimate D2E/DX2                !
 ! A84   A(39,41,46)           114.2027         estimate D2E/DX2                !
 ! A85   A(39,41,47)           119.2284         estimate D2E/DX2                !
 ! A86   A(46,41,47)           126.5684         estimate D2E/DX2                !
 ! A87   A(39,42,48)            91.7849         estimate D2E/DX2                !
 ! A88   A(41,46,48)           111.8783         estimate D2E/DX2                !
 ! A89   A(41,46,49)           124.4547         estimate D2E/DX2                !
 ! A90   A(48,46,49)           123.6669         estimate D2E/DX2                !
 ! A91   A(41,47,50)           117.9841         estimate D2E/DX2                !
 ! A92   A(42,48,46)           112.8069         estimate D2E/DX2                !
 ! A93   A(42,48,51)           119.7795         estimate D2E/DX2                !
 ! A94   A(46,48,51)           127.4136         estimate D2E/DX2                !
 ! A95   A(47,50,52)           111.2244         estimate D2E/DX2                !
 ! A96   A(47,50,53)           106.0224         estimate D2E/DX2                !
 ! A97   A(47,50,54)           111.2413         estimate D2E/DX2                !
 ! A98   A(52,50,53)           109.3741         estimate D2E/DX2                !
 ! A99   A(52,50,54)           109.4089         estimate D2E/DX2                !
 ! A100  A(53,50,54)           109.4984         estimate D2E/DX2                !
 ! D1    D(19,1,2,3)             0.1578         estimate D2E/DX2                !
 ! D2    D(19,1,2,6)          -178.6792         estimate D2E/DX2                !
 ! D3    D(20,1,2,3)          -179.8231         estimate D2E/DX2                !
 ! D4    D(20,1,2,6)             1.3399         Frozen                          !
 ! D5    D(2,1,19,5)            -0.124          estimate D2E/DX2                !
 ! D6    D(2,1,19,28)          179.8267         estimate D2E/DX2                !
 ! D7    D(20,1,19,5)          179.8575         estimate D2E/DX2                !
 ! D8    D(20,1,19,28)          -0.1919         estimate D2E/DX2                !
 ! D9    D(1,2,3,4)              0.0571         estimate D2E/DX2                !
 ! D10   D(1,2,3,7)            179.5453         estimate D2E/DX2                !
 ! D11   D(6,2,3,4)            178.8851         estimate D2E/DX2                !
 ! D12   D(6,2,3,7)             -1.6266         estimate D2E/DX2                !
 ! D13   D(1,2,6,9)            178.625          estimate D2E/DX2                !
 ! D14   D(1,2,6,17)             1.3881         estimate D2E/DX2                !
 ! D15   D(3,2,6,9)             -0.2173         estimate D2E/DX2                !
 ! D16   D(3,2,6,17)          -177.4541         estimate D2E/DX2                !
 ! D17   D(2,3,4,5)             -0.3074         estimate D2E/DX2                !
 ! D18   D(2,3,4,14)           179.3968         estimate D2E/DX2                !
 ! D19   D(7,3,4,5)           -179.7837         estimate D2E/DX2                !
 ! D20   D(7,3,4,14)            -0.0795         estimate D2E/DX2                !
 ! D21   D(2,3,7,8)              1.0523         estimate D2E/DX2                !
 ! D22   D(2,3,7,12)          -178.712          estimate D2E/DX2                !
 ! D23   D(4,3,7,8)           -179.4626         estimate D2E/DX2                !
 ! D24   D(4,3,7,12)             0.7731         estimate D2E/DX2                !
 ! D25   D(3,4,5,19)             0.3343         estimate D2E/DX2                !
 ! D26   D(3,4,5,21)          -179.7799         estimate D2E/DX2                !
 ! D27   D(14,4,5,19)         -179.3729         estimate D2E/DX2                !
 ! D28   D(14,4,5,21)            0.5129         estimate D2E/DX2                !
 ! D29   D(3,4,14,13)           -0.4559         estimate D2E/DX2                !
 ! D30   D(3,4,14,15)         -179.9937         estimate D2E/DX2                !
 ! D31   D(5,4,14,13)          179.252          estimate D2E/DX2                !
 ! D32   D(5,4,14,15)           -0.2858         estimate D2E/DX2                !
 ! D33   D(4,5,19,1)            -0.1141         estimate D2E/DX2                !
 ! D34   D(4,5,19,28)          179.9364         estimate D2E/DX2                !
 ! D35   D(21,5,19,1)          179.9992         estimate D2E/DX2                !
 ! D36   D(21,5,19,28)           0.0496         estimate D2E/DX2                !
 ! D37   D(2,6,9,8)              2.5984         estimate D2E/DX2                !
 ! D38   D(2,6,9,32)          -176.0103         estimate D2E/DX2                !
 ! D39   D(17,6,9,8)           179.77           estimate D2E/DX2                !
 ! D40   D(17,6,9,32)            1.1613         estimate D2E/DX2                !
 ! D41   D(3,7,8,9)              1.3551         estimate D2E/DX2                !
 ! D42   D(3,7,8,10)          -174.5099         estimate D2E/DX2                !
 ! D43   D(12,7,8,9)          -178.8921         estimate D2E/DX2                !
 ! D44   D(12,7,8,10)            5.2428         estimate D2E/DX2                !
 ! D45   D(3,7,12,11)          178.0768         estimate D2E/DX2                !
 ! D46   D(3,7,12,13)           -0.9621         estimate D2E/DX2                !
 ! D47   D(8,7,12,11)           -1.685          estimate D2E/DX2                !
 ! D48   D(8,7,12,13)          179.2761         estimate D2E/DX2                !
 ! D49   D(7,8,9,6)             -3.0809         estimate D2E/DX2                !
 ! D50   D(7,8,9,32)           175.3285         estimate D2E/DX2                !
 ! D51   D(10,8,9,6)           172.5381         estimate D2E/DX2                !
 ! D52   D(10,8,9,32)           -9.0525         estimate D2E/DX2                !
 ! D53   D(7,8,10,18)           -4.7549         estimate D2E/DX2                !
 ! D54   D(7,8,10,23)          174.4235         estimate D2E/DX2                !
 ! D55   D(9,8,10,18)          179.5335         estimate D2E/DX2                !
 ! D56   D(9,8,10,23)           -1.2882         Frozen                          !
 ! D57   D(6,9,32,33)          -61.5469         estimate D2E/DX2                !
 ! D58   D(6,9,32,34)          124.9059         estimate D2E/DX2                !
 ! D59   D(8,9,32,33)          120.0116         Frozen                          !
 ! D60   D(8,9,32,34)          -53.5356         estimate D2E/DX2                !
 ! D61   D(8,10,18,11)           0.7189         estimate D2E/DX2                !
 ! D62   D(8,10,18,24)        -179.4089         estimate D2E/DX2                !
 ! D63   D(23,10,18,11)       -178.5188         estimate D2E/DX2                !
 ! D64   D(23,10,18,24)          1.3535         estimate D2E/DX2                !
 ! D65   D(18,11,12,7)          -2.3856         estimate D2E/DX2                !
 ! D66   D(18,11,12,13)        176.6833         estimate D2E/DX2                !
 ! D67   D(22,11,12,7)         178.4862         estimate D2E/DX2                !
 ! D68   D(22,11,12,13)         -2.445          estimate D2E/DX2                !
 ! D69   D(12,11,18,10)          2.8444         estimate D2E/DX2                !
 ! D70   D(12,11,18,24)       -177.0251         estimate D2E/DX2                !
 ! D71   D(22,11,18,10)       -178.0181         estimate D2E/DX2                !
 ! D72   D(22,11,18,24)          2.1124         estimate D2E/DX2                !
 ! D73   D(7,12,13,14)           0.461          estimate D2E/DX2                !
 ! D74   D(7,12,13,16)        -179.8781         estimate D2E/DX2                !
 ! D75   D(11,12,13,14)       -178.6049         estimate D2E/DX2                !
 ! D76   D(11,12,13,16)          1.056          estimate D2E/DX2                !
 ! D77   D(12,13,14,4)           0.2708         estimate D2E/DX2                !
 ! D78   D(12,13,14,15)        179.7958         estimate D2E/DX2                !
 ! D79   D(16,13,14,4)        -179.3788         estimate D2E/DX2                !
 ! D80   D(16,13,14,15)          0.1463         estimate D2E/DX2                !
 ! D81   D(10,18,24,25)        -59.609          Frozen                          !
 ! D82   D(10,18,24,26)         59.2209         estimate D2E/DX2                !
 ! D83   D(10,18,24,27)        179.6858         estimate D2E/DX2                !
 ! D84   D(11,18,24,25)        120.2739         estimate D2E/DX2                !
 ! D85   D(11,18,24,26)       -120.8962         estimate D2E/DX2                !
 ! D86   D(11,18,24,27)         -0.4313         estimate D2E/DX2                !
 ! D87   D(1,19,28,29)         -58.1407         estimate D2E/DX2                !
 ! D88   D(1,19,28,30)          60.7668         Frozen                          !
 ! D89   D(1,19,28,31)        -178.7139         estimate D2E/DX2                !
 ! D90   D(5,19,28,29)         121.8132         estimate D2E/DX2                !
 ! D91   D(5,19,28,30)        -119.2792         estimate D2E/DX2                !
 ! D92   D(5,19,28,31)           1.2401         estimate D2E/DX2                !
 ! D93   D(9,32,33,35)        -174.2264         estimate D2E/DX2                !
 ! D94   D(9,32,33,36)           6.3075         estimate D2E/DX2                !
 ! D95   D(34,32,33,35)         -0.2454         estimate D2E/DX2                !
 ! D96   D(34,32,33,36)       -179.7114         estimate D2E/DX2                !
 ! D97   D(9,32,34,37)         175.3643         estimate D2E/DX2                !
 ! D98   D(33,32,34,37)          0.5556         estimate D2E/DX2                !
 ! D99   D(32,33,35,37)         -0.3127         estimate D2E/DX2                !
 ! D100  D(32,33,35,38)        179.7307         estimate D2E/DX2                !
 ! D101  D(36,33,35,37)        179.1486         estimate D2E/DX2                !
 ! D102  D(36,33,35,38)         -0.808          estimate D2E/DX2                !
 ! D103  D(32,34,37,35)         -0.715          estimate D2E/DX2                !
 ! D104  D(32,34,37,39)        177.9321         estimate D2E/DX2                !
 ! D105  D(33,35,37,34)          0.7171         estimate D2E/DX2                !
 ! D106  D(33,35,37,39)       -177.8485         estimate D2E/DX2                !
 ! D107  D(38,35,37,34)       -179.3228         estimate D2E/DX2                !
 ! D108  D(38,35,37,39)          2.1116         estimate D2E/DX2                !
 ! D109  D(33,35,38,40)          6.5146         Frozen                          !
 ! D110  D(37,35,38,40)       -173.4402         estimate D2E/DX2                !
 ! D111  D(34,37,39,41)          2.8586         estimate D2E/DX2                !
 ! D112  D(34,37,39,42)       -177.1729         estimate D2E/DX2                !
 ! D113  D(35,37,39,41)       -178.7544         estimate D2E/DX2                !
 ! D114  D(35,37,39,42)          1.214          estimate D2E/DX2                !
 ! D115  D(35,38,40,43)        175.4866         estimate D2E/DX2                !
 ! D116  D(35,38,40,44)        -65.8473         estimate D2E/DX2                !
 ! D117  D(35,38,40,45)         56.3333         estimate D2E/DX2                !
 ! D118  D(37,39,41,46)       -179.9692         estimate D2E/DX2                !
 ! D119  D(37,39,41,47)         -0.2195         estimate D2E/DX2                !
 ! D120  D(42,39,41,46)          0.0589         estimate D2E/DX2                !
 ! D121  D(42,39,41,47)        179.8086         estimate D2E/DX2                !
 ! D122  D(37,39,42,48)       -179.998          estimate D2E/DX2                !
 ! D123  D(41,39,42,48)         -0.0245         estimate D2E/DX2                !
 ! D124  D(39,41,46,48)         -0.0726         estimate D2E/DX2                !
 ! D125  D(39,41,46,49)       -179.9823         estimate D2E/DX2                !
 ! D126  D(47,41,46,48)       -179.8006         estimate D2E/DX2                !
 ! D127  D(47,41,46,49)          0.2896         estimate D2E/DX2                !
 ! D128  D(39,41,47,50)        178.3869         estimate D2E/DX2                !
 ! D129  D(46,41,47,50)         -1.8974         Frozen                          !
 ! D130  D(39,42,48,46)         -0.016          estimate D2E/DX2                !
 ! D131  D(39,42,48,51)        179.8719         estimate D2E/DX2                !
 ! D132  D(41,46,48,42)          0.0518         estimate D2E/DX2                !
 ! D133  D(41,46,48,51)       -179.8257         estimate D2E/DX2                !
 ! D134  D(49,46,48,42)        179.9624         estimate D2E/DX2                !
 ! D135  D(49,46,48,51)          0.0849         estimate D2E/DX2                !
 ! D136  D(41,47,50,52)         62.0406         estimate D2E/DX2                !
 ! D137  D(41,47,50,53)       -179.1575         estimate D2E/DX2                !
 ! D138  D(41,47,50,54)        -60.197          estimate D2E/DX2                !
 --------------------------------------------------------------------------------
 Trust Radius=3.00D-01 FncErr=1.00D-07 GrdErr=1.00D-06 EigMax=2.50D+02 EigMin=1.00D-04
 Number of steps in this run=    307 maximum allowed number of steps=    324.
 GradGradGradGradGradGradGradGradGradGradGradGradGradGradGradGradGradGrad

 Stoichiometry    C26H18N2O6S2
 Framework group  C1[X(C26H18N2O6S2)]
 Deg. of freedom   156
 Full point group                 C1      NOp   1
 Largest Abelian subgroup         C1      NOp   1
 Largest concise Abelian subgroup C1      NOp   1
                         Standard orientation:                         
 ---------------------------------------------------------------------
 Center     Atomic      Atomic             Coordinates (Angstroms)
 Number     Number       Type             X           Y           Z
 ---------------------------------------------------------------------
      1          6           0        3.632456   -2.653671    0.496193
      2          6           0        2.837000   -1.437953    0.180930
      3          6           0        3.458809   -0.169131    0.114619
      4          6           0        4.846091   -0.040718    0.346289
      5          6           0        5.670937   -1.235288    0.669616
      6          6           0        1.485095   -1.553282   -0.022522
      7          6           0        2.660164    0.967449   -0.200244
      8          6           0        1.252195    0.838773   -0.423788
      9          6           0        0.636316   -0.436756   -0.301982
     10          6           0        0.517844    2.053985   -0.869650
     11          6           0        2.581998    3.447159   -0.648787
     12          6           0        3.322996    2.220230   -0.285706
     13          6           0        4.687533    2.328801   -0.051049
     14          6           0        5.455944    1.202977    0.268417
     15          1           0        6.521530    1.276242    0.450097
     16          1           0        5.138120    3.312072   -0.128923
     17          1           0        1.052578   -2.541472    0.081260
     18          7           0        1.229139    3.267758   -0.943633
     19          7           0        5.002057   -2.470139    0.721672
     20          8           0        3.140229   -3.771535    0.561422
     21          8           0        6.872067   -1.155896    0.878925
     22          8           0        3.113589    4.549109   -0.706127
     23          8           0       -0.663204    2.072191   -1.192309
     24          6           0        0.453506    4.435800   -1.375755
     25          1           0        0.042487    4.260177   -2.371035
     26          1           0       -0.379880    4.603823   -0.688781
     27          1           0        1.124050    5.290713   -1.379987
     28          6           0        5.776193   -3.676209    1.035767
     29          1           0        5.363391   -4.157188    1.925051
     30          1           0        5.715321   -4.381731    0.205037
     31          1           0        6.806039   -3.373844    1.205740
     32          6           0       -0.788616   -0.751600   -0.397625
     33          6           0       -1.475274   -1.578574   -1.265035
     34         16           0       -1.923758    0.128488    0.625961
     35          6           0       -2.874320   -1.516360   -1.113470
     36          1           0       -0.980444   -2.214848   -1.980745
     37          6           0       -3.309278   -0.639167   -0.113839
     38          8           0       -3.797541   -2.211465   -1.829607
     39          6           0       -4.658460   -0.388661    0.307637
     40          6           0       -3.317844   -3.198227   -2.737703
     41          6           0       -5.092146    0.502784    1.287087
     42         16           0       -6.051212   -1.214518   -0.387105
     43          1           0       -4.203596   -3.688870   -3.143460
     44          1           0       -2.749829   -2.741267   -3.556776
     45          1           0       -2.688287   -3.936616   -2.226303
     46          6           0       -6.503430    0.521515    1.475753
     47          8           0       -4.175648    1.247257    1.959275
     48          6           0       -7.141507   -0.353890    0.639140
     49          1           0       -7.016342    1.149260    2.189949
     50          6           0       -4.650194    2.174457    2.929393
     51          1           0       -8.204463   -0.539437    0.569204
     52          1           0       -5.181331    1.662750    3.741261
     53          1           0       -3.766286    2.668374    3.330805
     54          1           0       -5.311890    2.921062    2.474892
 ---------------------------------------------------------------------
 Rotational constants (GHZ):           0.1667744           0.0557634           0.0466362
 Standard basis: 6-311+G(d,p) (5D, 7F)
 There are   952 symmetry adapted cartesian basis functions of A   symmetry.
 There are   916 symmetry adapted basis functions of A   symmetry.
   916 basis functions,  1468 primitive gaussians,   952 cartesian basis functions
   134 alpha electrons      134 beta electrons
       nuclear repulsion energy      4098.8405185704 Hartrees.
 NAtoms=   54 NActive=   54 NUniq=   54 SFac= 1.00D+00 NAtFMM=   60 NAOKFM=F Big=F
 Integral buffers will be    131072 words long.
 Raffenetti 2 integral format.
 Two-electron integral symmetry is turned on.
 One-electron integrals computed using PRISM.
 NBasis=   916 RedAO= T EigKep=  1.02D-06  NBF=   916
 NBsUse=   902 1.00D-06 EigRej=  6.91D-07 NBFU=   902
 ExpMin= 4.05D-02 ExpMax= 9.34D+04 ExpMxC= 3.17D+03 IAcc=3 IRadAn=         5 AccDes= 0.00D+00
 Harris functional with IExCor=  402 and IRadAn=       5 diagonalized for initial guess.
 HarFok:  IExCor=  402 AccDes= 0.00D+00 IRadAn=         5 IDoV= 1 UseB2=F ITyADJ=14
 ICtDFT=  3500011 ScaDFX=  1.000000  1.000000  1.000000  1.000000
 FoFCou: FMM=F IPFlag=           0 FMFlag=      100000 FMFlg1=           0
         NFxFlg=           0 DoJE=T BraDBF=F KetDBF=T FulRan=T
         wScrn=  0.000000 ICntrl=       500 IOpCl=  0 I1Cent=   200000004 NGrid=           0
         NMat0=    1 NMatS0=      1 NMatT0=    0 NMatD0=    1 NMtDS0=    0 NMtDT0=    0
 Petite list used in FoFCou.
 Requested convergence on RMS density matrix=1.00D-08 within 128 cycles.
 Requested convergence on MAX density matrix=1.00D-06.
 Requested convergence on             energy=1.00D-06.
 No special actions if energy rises.
 SCF Done:  E(RB3LYP) =  -2359.33162206     A.U. after   19 cycles
            NFock= 19  Conv=0.13D-08     -V/T= 2.0032

 **********************************************************************

            Population analysis using the SCF Density.

 **********************************************************************

 Orbital symmetries:
       Occupied  (A) (A) (A) (A) (A) (A) (A) (A) (A) (A) (A) (A)
                 (A) (A) (A) (A) (A) (A) (A) (A) (A) (A) (A) (A)
                 (A) (A) (A) (A) (A) (A) (A) (A) (A) (A) (A) (A)
                 (A) (A) (A) (A) (A) (A) (A) (A) (A) (A) (A) (A)
                 (A) (A) (A) (A) (A) (A) (A) (A) (A) (A) (A) (A)
                 (A) (A) (A) (A) (A) (A) (A) (A) (A) (A) (A) (A)
                 (A) (A) (A) (A) (A) (A) (A) (A) (A) (A) (A) (A)
                 (A) (A) (A) (A) (A) (A) (A) (A) (A) (A) (A) (A)
                 (A) (A) (A) (A) (A) (A) (A) (A) (A) (A) (A) (A)
                 (A) (A) (A) (A) (A) (A) (A) (A) (A) (A) (A) (A)
                 (A) (A) (A) (A) (A) (A) (A) (A) (A) (A) (A) (A)
                 (A) (A)
       Virtual   (A) (A) (A) (A) (A) (A) (A) (A) (A) (A) (A) (A)
                 (A) (A) (A) (A) (A) (A) (A) (A) (A) (A) (A) (A)
                 (A) (A) (A) (A) (A) (A) (A) (A) (A) (A) (A) (A)
                 (A) (A) (A) (A) (A) (A) (A) (A) (A) (A) (A) (A)
                 (A) (A) (A) (A) (A) (A) (A) (A) (A) (A) (A) (A)
                 (A) (A) (A) (A) (A) (A) (A) (A) (A) (A) (A) (A)
                 (A) (A) (A) (A) (A) (A) (A) (A) (A) (A) (A) (A)
                 (A) (A) (A) (A) (A) (A) (A) (A) (A) (A) (A) (A)
                 (A) (A) (A) (A) (A) (A) (A) (A) (A) (A) (A) (A)
                 (A) (A) (A) (A) (A) (A) (A) (A) (A) (A) (A) (A)
                 (A) (A) (A) (A) (A) (A) (A) (A) (A) (A) (A) (A)
                 (A) (A) (A) (A) (A) (A) (A) (A) (A) (A) (A) (A)
                 (A) (A) (A) (A) (A) (A) (A) (A) (A) (A) (A) (A)
                 (A) (A) (A) (A) (A) (A) (A) (A) (A) (A) (A) (A)
                 (A) (A) (A) (A) (A) (A) (A) (A) (A) (A) (A) (A)
                 (A) (A) (A) (A) (A) (A) (A) (A) (A) (A) (A) (A)
                 (A) (A) (A) (A) (A) (A) (A) (A) (A) (A) (A) (A)
                 (A) (A) (A) (A) (A) (A) (A) (A) (A) (A) (A) (A)
                 (A) (A) (A) (A) (A) (A) (A) (A) (A) (A) (A) (A)
                 (A) (A) (A) (A) (A) (A) (A) (A) (A) (A) (A) (A)
                 (A) (A) (A) (A) (A) (A) (A) (A) (A) (A) (A) (A)
                 (A) (A) (A) (A) (A) (A) (A) (A) (A) (A) (A) (A)
                 (A) (A) (A) (A) (A) (A) (A) (A) (A) (A) (A) (A)
                 (A) (A) (A) (A) (A) (A) (A) (A) (A) (A) (A) (A)
                 (A) (A) (A) (A) (A) (A) (A) (A) (A) (A) (A) (A)
                 (A) (A) (A) (A) (A) (A) (A) (A) (A) (A) (A) (A)
                 (A) (A) (A) (A) (A) (A) (A) (A) (A) (A) (A) (A)
                 (A) (A) (A) (A) (A) (A) (A) (A) (A) (A) (A) (A)
                 (A) (A) (A) (A) (A) (A) (A) (A) (A) (A) (A) (A)
                 (A) (A) (A) (A) (A) (A) (A) (A) (A) (A) (A) (A)
                 (A) (A) (A) (A) (A) (A) (A) (A) (A) (A) (A) (A)
                 (A) (A) (A) (A) (A) (A) (A) (A) (A) (A) (A) (A)
                 (A) (A) (A) (A) (A) (A) (A) (A) (A) (A) (A) (A)
                 (A) (A) (A) (A) (A) (A) (A) (A) (A) (A) (A) (A)
                 (A) (A) (A) (A) (A) (A) (A) (A) (A) (A) (A) (A)
                 (A) (A) (A) (A) (A) (A) (A) (A) (A) (A) (A) (A)
                 (A) (A) (A) (A) (A) (A) (A) (A) (A) (A) (A) (A)
                 (A) (A) (A) (A) (A) (A) (A) (A) (A) (A) (A) (A)
                 (A) (A) (A) (A) (A) (A) (A) (A) (A) (A) (A) (A)
                 (A) (A) (A) (A) (A) (A) (A) (A) (A) (A) (A) (A)
                 (A) (A) (A) (A) (A) (A) (A) (A) (A) (A) (A) (A)
                 (A) (A) (A) (A) (A) (A) (A) (A) (A) (A) (A) (A)
                 (A) (A) (A) (A) (A) (A) (A) (A) (A) (A) (A) (A)
                 (A) (A) (A) (A) (A) (A) (A) (A) (A) (A) (A) (A)
                 (A) (A) (A) (A) (A) (A) (A) (A) (A) (A) (A) (A)
                 (A) (A) (A) (A) (A) (A) (A) (A) (A) (A) (A) (A)
                 (A) (A) (A) (A) (A) (A) (A) (A) (A) (A) (A) (A)
                 (A) (A) (A) (A) (A) (A) (A) (A) (A) (A) (A) (A)
                 (A) (A) (A) (A) (A) (A) (A) (A) (A) (A) (A) (A)
                 (A) (A) (A) (A) (A) (A) (A) (A) (A) (A) (A) (A)
                 (A) (A) (A) (A) (A) (A) (A) (A) (A) (A) (A) (A)
                 (A) (A) (A) (A) (A) (A) (A) (A) (A) (A) (A) (A)
                 (A) (A) (A) (A) (A) (A) (A) (A) (A) (A) (A) (A)
                 (A) (A) (A) (A) (A) (A) (A) (A) (A) (A) (A) (A)
                 (A) (A) (A) (A) (A) (A) (A) (A) (A) (A) (A) (A)
                 (A) (A) (A) (A) (A) (A) (A) (A) (A) (A) (A) (A)
                 (A) (A) (A) (A) (A) (A) (A) (A) (A) (A) (A) (A)
                 (A) (A) (A) (A) (A) (A) (A) (A) (A) (A) (A) (A)
                 (A) (A) (A) (A) (A) (A) (A) (A) (A) (A) (A) (A)
                 (A) (A) (A) (A) (A) (A) (A) (A) (A) (A) (A) (A)
                 (A) (A) (A) (A) (A) (A) (A) (A) (A) (A) (A) (A)
                 (A) (A) (A) (A) (A) (A) (A) (A) (A) (A) (A) (A)
                 (A) (A) (A) (A) (A) (A) (A) (A) (A) (A) (A) (A)
                 (A) (A) (A) (A) (A) (A) (A) (A) (A) (A) (A) (A)
 The electronic state is 1-A.
 Alpha  occ. eigenvalues --  -88.88192 -88.87772 -19.16997 -19.16834 -19.12518
 Alpha  occ. eigenvalues --  -19.12499 -19.11792 -19.11562 -14.38763 -14.38087
 Alpha  occ. eigenvalues --  -10.31189 -10.31029 -10.30545 -10.30413 -10.24600
 Alpha  occ. eigenvalues --  -10.24372 -10.24035 -10.23814 -10.23718 -10.23170
 Alpha  occ. eigenvalues --  -10.23108 -10.22782 -10.22438 -10.22375 -10.22217
 Alpha  occ. eigenvalues --  -10.22010 -10.21966 -10.21585 -10.21524 -10.21299
 Alpha  occ. eigenvalues --  -10.21231 -10.21092 -10.20832 -10.20507 -10.19208
 Alpha  occ. eigenvalues --  -10.18820  -7.96735  -7.96316  -5.93045  -5.92657
 Alpha  occ. eigenvalues --   -5.92639  -5.92303  -5.92244  -5.91857  -1.08558
 Alpha  occ. eigenvalues --   -1.08525  -1.08404  -1.07881  -1.06641  -1.05899
 Alpha  occ. eigenvalues --   -0.96306  -0.95531  -0.92413  -0.89988  -0.88496
 Alpha  occ. eigenvalues --   -0.86584  -0.84306  -0.80419  -0.78499  -0.77560
 Alpha  occ. eigenvalues --   -0.76249  -0.75225  -0.75060  -0.73089  -0.72450
 Alpha  occ. eigenvalues --   -0.71712  -0.70321  -0.68831  -0.67107  -0.65870
 Alpha  occ. eigenvalues --   -0.65447  -0.64809  -0.60882  -0.59856  -0.58623
 Alpha  occ. eigenvalues --   -0.57444  -0.56737  -0.56205  -0.55069  -0.54721
 Alpha  occ. eigenvalues --   -0.53742  -0.51687  -0.50206  -0.49833  -0.49780
 Alpha  occ. eigenvalues --   -0.49378  -0.48737  -0.48614  -0.48472  -0.48336
 Alpha  occ. eigenvalues --   -0.48025  -0.47172  -0.46560  -0.46264  -0.45806
 Alpha  occ. eigenvalues --   -0.45461  -0.44938  -0.44552  -0.44302  -0.43921
 Alpha  occ. eigenvalues --   -0.42746  -0.42295  -0.42278  -0.41872  -0.41759
 Alpha  occ. eigenvalues --   -0.41380  -0.41145  -0.41083  -0.40454  -0.39800
 Alpha  occ. eigenvalues --   -0.39345  -0.39039  -0.38387  -0.37724  -0.37459
 Alpha  occ. eigenvalues --   -0.36326  -0.35632  -0.34139  -0.33848  -0.33468
 Alpha  occ. eigenvalues --   -0.33287  -0.32100  -0.30948  -0.30056  -0.29767
 Alpha  occ. eigenvalues --   -0.29282  -0.28843  -0.28596  -0.27991  -0.27525
 Alpha  occ. eigenvalues --   -0.26195  -0.24748  -0.23940  -0.19177
 Alpha virt. eigenvalues --   -0.13275  -0.07238  -0.06439  -0.04852  -0.04136
 Alpha virt. eigenvalues --   -0.00888  -0.00504  -0.00350  -0.00026   0.00463
 Alpha virt. eigenvalues --    0.00736   0.00996   0.01196   0.01339   0.01880
 Alpha virt. eigenvalues --    0.01994   0.02216   0.02476   0.02768   0.03045
 Alpha virt. eigenvalues --    0.03532   0.03656   0.03839   0.04137   0.04582
 Alpha virt. eigenvalues --    0.04858   0.04902   0.05104   0.05507   0.05674
 Alpha virt. eigenvalues --    0.05924   0.06271   0.06306   0.06877   0.07038
 Alpha virt. eigenvalues --    0.07186   0.07322   0.07615   0.07844   0.08037
 Alpha virt. eigenvalues --    0.08529   0.08662   0.09011   0.09233   0.09316
 Alpha virt. eigenvalues --    0.09454   0.09611   0.09955   0.10152   0.10662
 Alpha virt. eigenvalues --    0.10877   0.11321   0.11441   0.11739   0.11905
 Alpha virt. eigenvalues --    0.12097   0.12703   0.12927   0.13058   0.13339
 Alpha virt. eigenvalues --    0.13556   0.13660   0.14011   0.14232   0.14380
 Alpha virt. eigenvalues --    0.14471   0.14695   0.14857   0.15065   0.15201
 Alpha virt. eigenvalues --    0.15444   0.15663   0.15835   0.16215   0.16256
 Alpha virt. eigenvalues --    0.16593   0.16903   0.16995   0.17214   0.17623
 Alpha virt. eigenvalues --    0.17654   0.18071   0.18276   0.18496   0.18768
 Alpha virt. eigenvalues --    0.18805   0.19089   0.19124   0.19441   0.19586
 Alpha virt. eigenvalues --    0.19729   0.20037   0.20140   0.20412   0.20509
 Alpha virt. eigenvalues --    0.20615   0.20661   0.20810   0.21051   0.21193
 Alpha virt. eigenvalues --    0.21524   0.21690   0.21893   0.22061   0.22347
 Alpha virt. eigenvalues --    0.22640   0.22738   0.22859   0.23023   0.23248
 Alpha virt. eigenvalues --    0.23404   0.23516   0.23762   0.23834   0.24262
 Alpha virt. eigenvalues --    0.24501   0.24847   0.24925   0.25060   0.25380
 Alpha virt. eigenvalues --    0.25557   0.25741   0.25919   0.26143   0.26192
 Alpha virt. eigenvalues --    0.26309   0.26761   0.26815   0.27135   0.27204
 Alpha virt. eigenvalues --    0.27411   0.27608   0.27834   0.28244   0.28340
 Alpha virt. eigenvalues --    0.28448   0.28601   0.28904   0.29077   0.29343
 Alpha virt. eigenvalues --    0.29733   0.29802   0.29987   0.30251   0.30614
 Alpha virt. eigenvalues --    0.30785   0.31102   0.31296   0.31399   0.31564
 Alpha virt. eigenvalues --    0.31815   0.32288   0.32460   0.32923   0.33102
 Alpha virt. eigenvalues --    0.33333   0.33471   0.33840   0.34019   0.34542
 Alpha virt. eigenvalues --    0.34627   0.34761   0.34954   0.35647   0.35931
 Alpha virt. eigenvalues --    0.36162   0.36410   0.36763   0.37106   0.37706
 Alpha virt. eigenvalues --    0.37917   0.38338   0.38851   0.39095   0.39274
 Alpha virt. eigenvalues --    0.39645   0.40014   0.40577   0.40867   0.41376
 Alpha virt. eigenvalues --    0.42025   0.42402   0.42789   0.43136   0.43207
 Alpha virt. eigenvalues --    0.43737   0.44386   0.44827   0.45020   0.45127
 Alpha virt. eigenvalues --    0.45467   0.45674   0.46291   0.46510   0.46960
 Alpha virt. eigenvalues --    0.47060   0.47148   0.47780   0.48859   0.49047
 Alpha virt. eigenvalues --    0.49367   0.49503   0.49715   0.50573   0.50692
 Alpha virt. eigenvalues --    0.50981   0.51848   0.52509   0.53245   0.53488
 Alpha virt. eigenvalues --    0.53794   0.54293   0.54622   0.55185   0.55485
 Alpha virt. eigenvalues --    0.55766   0.56129   0.56458   0.56890   0.57421
 Alpha virt. eigenvalues --    0.57464   0.57854   0.58336   0.58801   0.59059
 Alpha virt. eigenvalues --    0.59592   0.60311   0.60616   0.60881   0.61010
 Alpha virt. eigenvalues --    0.61698   0.61982   0.62213   0.62449   0.62891
 Alpha virt. eigenvalues --    0.63379   0.63724   0.64035   0.64273   0.64670
 Alpha virt. eigenvalues --    0.65286   0.65703   0.65975   0.66157   0.66296
 Alpha virt. eigenvalues --    0.66787   0.67031   0.67210   0.67782   0.68087
 Alpha virt. eigenvalues --    0.68734   0.68908   0.69542   0.69750   0.69994
 Alpha virt. eigenvalues --    0.70386   0.71223   0.71260   0.71543   0.72034
 Alpha virt. eigenvalues --    0.72311   0.72511   0.72993   0.73275   0.73500
 Alpha virt. eigenvalues --    0.73932   0.74182   0.74714   0.74963   0.75085
 Alpha virt. eigenvalues --    0.75738   0.76075   0.76215   0.76615   0.76972
 Alpha virt. eigenvalues --    0.77396   0.77782   0.77896   0.78235   0.79094
 Alpha virt. eigenvalues --    0.79236   0.79998   0.80336   0.80662   0.81185
 Alpha virt. eigenvalues --    0.82011   0.83123   0.83315   0.83873   0.84345
 Alpha virt. eigenvalues --    0.85866   0.86661   0.87176   0.87781   0.88316
 Alpha virt. eigenvalues --    0.88589   0.88931   0.89741   0.89974   0.90373
 Alpha virt. eigenvalues --    0.91102   0.91673   0.92248   0.92333   0.93045
 Alpha virt. eigenvalues --    0.93587   0.93621   0.93963   0.94380   0.94973
 Alpha virt. eigenvalues --    0.95430   0.95857   0.96271   0.97068   0.97593
 Alpha virt. eigenvalues --    0.98024   0.98334   0.98648   0.98805   1.00016
 Alpha virt. eigenvalues --    1.00337   1.00618   1.01125   1.01308   1.01868
 Alpha virt. eigenvalues --    1.02179   1.02656   1.03473   1.04014   1.04378
 Alpha virt. eigenvalues --    1.04901   1.05098   1.05431   1.05678   1.06078
 Alpha virt. eigenvalues --    1.06607   1.06931   1.07138   1.07662   1.08278
 Alpha virt. eigenvalues --    1.08671   1.08828   1.09588   1.09815   1.10410
 Alpha virt. eigenvalues --    1.10972   1.11600   1.12059   1.12496   1.13889
 Alpha virt. eigenvalues --    1.14133   1.15378   1.15851   1.16270   1.17407
 Alpha virt. eigenvalues --    1.17910   1.18357   1.19075   1.19920   1.20290
 Alpha virt. eigenvalues --    1.21781   1.21867   1.22544   1.24156   1.24580
 Alpha virt. eigenvalues --    1.25294   1.25616   1.26371   1.26693   1.27294
 Alpha virt. eigenvalues --    1.27758   1.28165   1.28435   1.30201   1.30426
 Alpha virt. eigenvalues --    1.31689   1.32327   1.32941   1.33623   1.34157
 Alpha virt. eigenvalues --    1.35325   1.36093   1.37084   1.37694   1.38685
 Alpha virt. eigenvalues --    1.39810   1.40584   1.40912   1.41153   1.42253
 Alpha virt. eigenvalues --    1.42386   1.43012   1.43239   1.43507   1.44208
 Alpha virt. eigenvalues --    1.44459   1.44925   1.45269   1.45353   1.45756
 Alpha virt. eigenvalues --    1.45811   1.46231   1.47301   1.47819   1.48362
 Alpha virt. eigenvalues --    1.49015   1.49799   1.51063   1.51370   1.51550
 Alpha virt. eigenvalues --    1.53007   1.53218   1.53609   1.54178   1.54592
 Alpha virt. eigenvalues --    1.54728   1.54998   1.55520   1.55763   1.56746
 Alpha virt. eigenvalues --    1.57376   1.57944   1.59135   1.59420   1.60711
 Alpha virt. eigenvalues --    1.61927   1.62447   1.62619   1.62879   1.63602
 Alpha virt. eigenvalues --    1.63965   1.65035   1.65526   1.66404   1.66540
 Alpha virt. eigenvalues --    1.66875   1.68030   1.68427   1.69015   1.69386
 Alpha virt. eigenvalues --    1.69753   1.69962   1.70534   1.71005   1.71194
 Alpha virt. eigenvalues --    1.71657   1.73444   1.73619   1.74603   1.74921
 Alpha virt. eigenvalues --    1.75742   1.75964   1.77336   1.77398   1.77668
 Alpha virt. eigenvalues --    1.78739   1.79225   1.79928   1.80475   1.81416
 Alpha virt. eigenvalues --    1.81876   1.83370   1.83788   1.85223   1.85549
 Alpha virt. eigenvalues --    1.86200   1.86243   1.86703   1.87014   1.87912
 Alpha virt. eigenvalues --    1.88905   1.89694   1.89862   1.90216   1.90797
 Alpha virt. eigenvalues --    1.91486   1.91776   1.91915   1.93734   1.94721
 Alpha virt. eigenvalues --    1.95295   1.95629   1.96211   1.96738   1.98381
 Alpha virt. eigenvalues --    1.98728   1.99066   2.00334   2.01165   2.01770
 Alpha virt. eigenvalues --    2.02098   2.02274   2.02900   2.03825   2.04373
 Alpha virt. eigenvalues --    2.05137   2.05824   2.06597   2.06900   2.07415
 Alpha virt. eigenvalues --    2.07707   2.08544   2.09521   2.09850   2.11060
 Alpha virt. eigenvalues --    2.11550   2.12088   2.12423   2.13669   2.14341
 Alpha virt. eigenvalues --    2.14950   2.15543   2.16374   2.16888   2.17578
 Alpha virt. eigenvalues --    2.19154   2.19719   2.20443   2.21190   2.21362
 Alpha virt. eigenvalues --    2.21724   2.23112   2.26054   2.26349   2.26889
 Alpha virt. eigenvalues --    2.29052   2.31836   2.32346   2.33093   2.34514
 Alpha virt. eigenvalues --    2.35816   2.37613   2.39361   2.39687   2.41476
 Alpha virt. eigenvalues --    2.42581   2.43146   2.43726   2.44031   2.45894
 Alpha virt. eigenvalues --    2.46082   2.46236   2.47020   2.48045   2.48449
 Alpha virt. eigenvalues --    2.49088   2.50038   2.51509   2.51589   2.52372
 Alpha virt. eigenvalues --    2.52518   2.53101   2.53382   2.54158   2.54289
 Alpha virt. eigenvalues --    2.56219   2.56748   2.58139   2.58678   2.59002
 Alpha virt. eigenvalues --    2.60695   2.62018   2.63401   2.63776   2.64919
 Alpha virt. eigenvalues --    2.66318   2.67170   2.67705   2.67827   2.68075
 Alpha virt. eigenvalues --    2.68709   2.68927   2.69232   2.70312   2.70632
 Alpha virt. eigenvalues --    2.71082   2.71778   2.72838   2.73456   2.74188
 Alpha virt. eigenvalues --    2.75730   2.75950   2.77375   2.77662   2.78151
 Alpha virt. eigenvalues --    2.80463   2.82268   2.82746   2.83591   2.83746
 Alpha virt. eigenvalues --    2.84003   2.84091   2.84741   2.85361   2.86169
 Alpha virt. eigenvalues --    2.86624   2.87719   2.88359   2.88709   2.89739
 Alpha virt. eigenvalues --    2.90300   2.91622   2.92078   2.93093   2.93674
 Alpha virt. eigenvalues --    2.94483   2.95197   2.95536   2.96166   2.97442
 Alpha virt. eigenvalues --    2.99697   3.00191   3.01705   3.03472   3.04431
 Alpha virt. eigenvalues --    3.04738   3.05861   3.06161   3.08137   3.08770
 Alpha virt. eigenvalues --    3.09750   3.11266   3.12493   3.14080   3.14450
 Alpha virt. eigenvalues --    3.15136   3.16573   3.17344   3.19217   3.19844
 Alpha virt. eigenvalues --    3.21533   3.23093   3.23571   3.23920   3.24484
 Alpha virt. eigenvalues --    3.27100   3.28658   3.29644   3.31207   3.32039
 Alpha virt. eigenvalues --    3.33850   3.34256   3.34660   3.34737   3.35900
 Alpha virt. eigenvalues --    3.37171   3.38007   3.39404   3.41685   3.42136
 Alpha virt. eigenvalues --    3.43093   3.44421   3.45639   3.46109   3.48677
 Alpha virt. eigenvalues --    3.49189   3.50073   3.53606   3.55314   3.57583
 Alpha virt. eigenvalues --    3.59508   3.60194   3.61934   3.64817   3.65684
 Alpha virt. eigenvalues --    3.66463   3.69591   3.69930   3.72037   3.72979
 Alpha virt. eigenvalues --    3.75791   3.76087   3.76217   3.81662   3.82395
 Alpha virt. eigenvalues --    3.84316   3.85330   3.86471   3.90297   3.92116
 Alpha virt. eigenvalues --    3.92721   3.93131   3.94699   3.96920   4.01393
 Alpha virt. eigenvalues --    4.03207   4.04766   4.08098   4.10503   4.12727
 Alpha virt. eigenvalues --    4.14281   4.19222   4.23003   4.25185   4.26902
 Alpha virt. eigenvalues --    4.35162   4.37996   4.40000   4.50426   4.66912
 Alpha virt. eigenvalues --    4.83881   4.85810   4.87241   4.90401   5.02125
 Alpha virt. eigenvalues --    5.02723   5.03874   5.05402   5.05935   5.09609
 Alpha virt. eigenvalues --    5.11106   5.12847   5.24766   5.26687   5.28793
 Alpha virt. eigenvalues --    5.31445   5.42578   5.43935   5.75366   5.76756
 Alpha virt. eigenvalues --    5.80010   5.80294   5.81664   5.85243   8.02499
 Alpha virt. eigenvalues --    8.06173  17.29263  17.35386  17.49903  17.52661
 Alpha virt. eigenvalues --   17.58429  17.63296  23.49050  23.56578  23.72191
 Alpha virt. eigenvalues --   23.78811  23.81915  23.82282  23.84038  23.86500
 Alpha virt. eigenvalues --   23.86653  23.87983  23.89293  23.89914  23.91137
 Alpha virt. eigenvalues --   23.92891  23.94577  23.95193  23.96107  23.97819
 Alpha virt. eigenvalues --   24.00124  24.01715  24.02733  24.04642  24.11499
 Alpha virt. eigenvalues --   24.13373  24.13743  24.14513  35.55760  35.58765
 Alpha virt. eigenvalues --   49.96085  49.97480  50.01802  50.03773  50.05571
 Alpha virt. eigenvalues --   50.07267 189.19734 189.24226
          Condensed to atoms (all electrons):
 Mulliken charges:
               1
     1  C    0.359597
     2  C   -0.147398
     3  C    0.109679
     4  C    0.266603
     5  C    0.265320
     6  C   -0.455368
     7  C    0.168271
     8  C    0.182411
     9  C    0.377420
    10  C   -0.281828
    11  C    0.284296
    12  C    0.264708
    13  C   -0.494364
    14  C   -0.637366
    15  H    0.161211
    16  H    0.163716
    17  H    0.159611
    18  N   -0.113747
    19  N   -0.131975
    20  O   -0.278702
    21  O   -0.272610
    22  O   -0.281186
    23  O   -0.193952
    24  C   -0.192604
    25  H    0.177621
    26  H    0.177417
    27  H    0.182774
    28  C   -0.199218
    29  H    0.174906
    30  H    0.174161
    31  H    0.182925
    32  C    0.500227
    33  C   -0.948511
    34  S   -0.427150
    35  C   -0.380133
    36  H    0.127887
    37  C    0.568227
    38  O   -0.109922
    39  C    1.034748
    40  C   -0.257630
    41  C   -0.048332
    42  S   -0.246244
    43  H    0.166261
    44  H    0.147226
    45  H    0.150881
    46  C   -0.527955
    47  O   -0.130535
    48  C   -0.276992
    49  H    0.131527
    50  C   -0.240745
    51  H    0.160190
    52  H    0.143761
    53  H    0.165750
    54  H    0.145138
 Sum of Mulliken charges =  -0.00000
 Mulliken charges with hydrogens summed into heavy atoms:
               1
     1  C    0.359597
     2  C   -0.147398
     3  C    0.109679
     4  C    0.266603
     5  C    0.265320
     6  C   -0.295757
     7  C    0.168271
     8  C    0.182411
     9  C    0.377420
    10  C   -0.281828
    11  C    0.284296
    12  C    0.264708
    13  C   -0.330648
    14  C   -0.476156
    18  N   -0.113747
    19  N   -0.131975
    20  O   -0.278702
    21  O   -0.272610
    22  O   -0.281186
    23  O   -0.193952
    24  C    0.345207
    28  C    0.332773
    32  C    0.500227
    33  C   -0.820624
    34  S   -0.427150
    35  C   -0.380133
    37  C    0.568227
    38  O   -0.109922
    39  C    1.034748
    40  C    0.206738
    41  C   -0.048332
    42  S   -0.246244
    46  C   -0.396429
    47  O   -0.130535
    48  C   -0.116802
    50  C    0.213904
 Electronic spatial extent (au):  <R**2>=          22154.2807
 Charge=             -0.0000 electrons
 Dipole moment (field-independent basis, Debye):
    X=             -3.5766    Y=             -0.5755    Z=              0.3068  Tot=              3.6356
 Quadrupole moment (field-independent basis, Debye-Ang):
   XX=           -215.9845   YY=           -224.6456   ZZ=           -209.3078
   XY=             -8.5030   XZ=             -9.6283   YZ=             15.8905
 Traceless Quadrupole moment (field-independent basis, Debye-Ang):
   XX=              0.6615   YY=             -7.9996   ZZ=              7.3381
   XY=             -8.5030   XZ=             -9.6283   YZ=             15.8905
 Octapole moment (field-independent basis, Debye-Ang**2):
  XXX=           -320.3544  YYY=            -36.2017  ZZZ=              1.3747  XYY=            -76.7554
  XXY=              3.2546  XXZ=             48.2760  XZZ=            -45.5068  YZZ=             -3.7084
  YYZ=            -12.7600  XYZ=            -52.7785
 Hexadecapole moment (field-independent basis, Debye-Ang**3):
 XXXX=         -21487.1005 YYYY=          -6697.3779 ZZZZ=          -1766.1701 XXXY=           -173.7161
 XXXZ=           -533.1426 YYYX=           -377.2179 YYYZ=            134.5029 ZZZX=            -18.9493
 ZZZY=            108.0531 XXYY=          -4545.5475 XXZZ=          -3793.1220 YYZZ=          -1226.1199
 XXYZ=            273.1194 YYXZ=            108.1267 ZZXY=            -74.3549
 N-N= 4.098840518570D+03 E-N=-1.373766765417D+04  KE= 2.351816828206D+03
 Calling FoFJK, ICntrl=      2127 FMM=F ISym2X=0 I1Cent= 0 IOpClX= 0 NMat=1 NMatS=1 NMatT=0.
 ***** Axes restored to original set *****
 -------------------------------------------------------------------
 Center     Atomic                   Forces (Hartrees/Bohr)
 Number     Number              X              Y              Z
 -------------------------------------------------------------------
      1        6           0.004228562   -0.005316571   -0.000886138
      2        6          -0.001237198    0.000443815    0.000153610
      3        6           0.001807022   -0.000630288   -0.000256240
      4        6          -0.001027410    0.001607981    0.000310702
      5        6          -0.005848009   -0.002311503   -0.000184077
      6        6           0.003442441    0.002625184    0.001129692
      7        6          -0.001150822   -0.000578149   -0.000397206
      8        6           0.002694847   -0.005463248   -0.001923718
      9        6          -0.010720742   -0.009667539    0.003686583
     10        6           0.011571372    0.008302533    0.001782530
     11        6          -0.002649433    0.006737182    0.000744599
     12        6          -0.001154038   -0.001112595    0.000033388
     13        6           0.000819254    0.000114008    0.000055198
     14        6           0.001995654   -0.000799580   -0.000162400
     15        1           0.000592387    0.000676830    0.000053053
     16        1           0.000632178   -0.001077192   -0.000178682
     17        1           0.001524093    0.001809115    0.000705025
     18        7          -0.002574373   -0.001675561   -0.000874481
     19        7           0.000757048    0.001528607    0.000143728
     20        8          -0.006083522    0.006327167    0.001061468
     21        8           0.007408683    0.002297677    0.000162074
     22        8           0.005827775   -0.006288167   -0.000881703
     23        8          -0.010041193   -0.008085112    0.001367429
     24        6           0.000945299    0.002499593   -0.000594603
     25        1          -0.000536938   -0.000067150   -0.000473547
     26        1          -0.001129529   -0.000697158    0.001252588
     27        1           0.000990102    0.000002143    0.000083464
     28        6          -0.000510290   -0.002062573   -0.000706668
     29        1          -0.000690389    0.000401066    0.001009234
     30        1          -0.000467037    0.000399679   -0.000509477
     31        1           0.000953092   -0.000378142   -0.000016706
     32        6           0.006308523    0.024474874   -0.006821833
     33        6          -0.006696722   -0.006632180   -0.003199140
     34       16          -0.000021055   -0.006962433    0.002924535
     35        6           0.000895778    0.005088699   -0.005844423
     36        1          -0.001399379   -0.000192369    0.002745918
     37        6          -0.001717359   -0.003673405    0.003727045
     38        8          -0.000030336   -0.002170768    0.001454546
     39        6           0.001559017    0.001623381   -0.002198950
     40        6           0.001195990   -0.000647900    0.001288814
     41        6           0.001191062   -0.001910988    0.002013462
     42       16          -0.000563517    0.001253301   -0.001554986
     43        1          -0.001484765   -0.000044668   -0.000408163
     44        1           0.000527465    0.000268208   -0.000759838
     45        1           0.001027759    0.001052311   -0.000013446
     46        6          -0.000879897   -0.001253374    0.001501067
     47        8           0.000694217    0.000341030   -0.000591795
     48        6           0.000342690    0.000352114   -0.000598127
     49        1           0.000332639   -0.000135793    0.000237924
     50        6           0.000619593    0.000995840   -0.001326351
     51        1          -0.001339971   -0.000415562    0.000368589
     52        1          -0.000762065   -0.000103231    0.000973385
     53        1           0.000467477   -0.000058385    0.000262348
     54        1          -0.000636030   -0.000810753    0.000130700
 -------------------------------------------------------------------
 Cartesian Forces:  Max     0.024474874 RMS     0.003571187

 GradGradGradGradGradGradGradGradGradGradGradGradGradGradGradGradGradGrad
 Berny optimization.
 FormGI is forming the generalized inverse of G from B-inverse, IUseBI=4.
 Internal  Forces:  Max     0.013792665 RMS     0.002032721
 Search for a local minimum.
 Step number   1 out of a maximum of  307
 All quantities printed in internal units (Hartrees-Bohrs-Radians)
 Mixed Optimization -- RFO/linear search
 Second derivative matrix not updated -- first step.
 ITU=  0
     Eigenvalues ---    0.01155   0.01172   0.01239   0.01297   0.01371
     Eigenvalues ---    0.01382   0.01397   0.01410   0.01452   0.01470
     Eigenvalues ---    0.01512   0.01544   0.01567   0.01588   0.01619
     Eigenvalues ---    0.01652   0.01679   0.01693   0.01709   0.01719
     Eigenvalues ---    0.01721   0.01763   0.01799   0.01845   0.01974
     Eigenvalues ---    0.02039   0.02045   0.02076   0.02088   0.02097
     Eigenvalues ---    0.02133   0.02149   0.02162   0.02181   0.02197
     Eigenvalues ---    0.02249   0.04601   0.04620   0.07665   0.07667
     Eigenvalues ---    0.10065   0.10068   0.10634   0.10636   0.15983
     Eigenvalues ---    0.15999   0.15999   0.16000   0.16000   0.16000
     Eigenvalues ---    0.16000   0.16000   0.16000   0.16000   0.16000
     Eigenvalues ---    0.16000   0.16000   0.16000   0.16000   0.16000
     Eigenvalues ---    0.16000   0.16000   0.22530   0.22583   0.23517
     Eigenvalues ---    0.23581   0.24513   0.24747   0.24865   0.24906
     Eigenvalues ---    0.24952   0.24985   0.24986   0.24988   0.24991
     Eigenvalues ---    0.24994   0.24996   0.24997   0.24998   0.24998
     Eigenvalues ---    0.25000   0.25000   0.25000   0.25000   0.25000
     Eigenvalues ---    0.25000   0.25000   0.25000   0.25000   0.25000
     Eigenvalues ---    0.28834   0.28865   0.30113   0.32075   0.32582
     Eigenvalues ---    0.32774   0.33104   0.33787   0.34032   0.34033
     Eigenvalues ---    0.34071   0.34097   0.34353   0.34466   0.34577
     Eigenvalues ---    0.34629   0.34693   0.34716   0.34904   0.35198
     Eigenvalues ---    0.35218   0.35468   0.35553   0.35582   0.35839
     Eigenvalues ---    0.35949   0.36078   0.36083   0.36245   0.36393
     Eigenvalues ---    0.36662   0.39348   0.40194   0.40208   0.40651
     Eigenvalues ---    0.40690   0.41524   0.41829   0.41955   0.42300
     Eigenvalues ---    0.42736   0.43455   0.43826   0.44092   0.44594
     Eigenvalues ---    0.44619   0.45014   0.45405   0.46251   0.47305
     Eigenvalues ---    0.47602   0.49309   0.49601   0.53040   0.53213
     Eigenvalues ---    0.93281   0.93432   0.93989   0.945851000.00000
     Eigenvalues --- 1000.000001000.000001000.000001000.000001000.00000
     Eigenvalues --- 1000.000001000.000001000.000001000.000001000.00000
     Eigenvalues --- 1000.000001000.000001000.000001000.000001000.00000
     Eigenvalues --- 1000.000001000.000001000.000001000.000001000.00000
     Eigenvalues --- 1000.000001000.000001000.000001000.000001000.00000
     Eigenvalues --- 1000.000001000.000001000.000001000.000001000.00000
     Eigenvalues --- 1000.000001000.000001000.000001000.000001000.00000
     Eigenvalues --- 1000.000001000.000001000.000001000.000001000.00000
     Eigenvalues --- 1000.000001000.000001000.000001000.000001000.00000
     Eigenvalues --- 1000.000001000.000001000.000001000.000001000.00000
     Eigenvalues --- 1000.000001000.000001000.000001000.000001000.00000
     Eigenvalues --- 1000.000001000.000001000.000001000.000001000.00000
     Eigenvalues --- 1000.000001000.000001000.000001000.000001000.00000
     Eigenvalues --- 1000.000001000.000001000.000001000.000001000.00000
     Eigenvalues --- 1000.000001000.000001000.000001000.000001000.00000
     Eigenvalues --- 1000.000001000.000001000.000001000.000001000.00000
     Eigenvalues --- 1000.000001000.000001000.000001000.000001000.00000
     Eigenvalues --- 1000.000001000.000001000.000001000.000001000.00000
     Eigenvalues --- 1000.000001000.000001000.000001000.000001000.00000
     Eigenvalues --- 1000.000001000.000001000.000001000.000001000.00000
     Eigenvalues --- 1000.000001000.000001000.000001000.000001000.00000
     Eigenvalues --- 1000.000001000.000001000.000001000.000001000.00000
     Eigenvalues --- 1000.000001000.000001000.000001000.000001000.00000
     Eigenvalues --- 1000.000001000.000001000.000001000.000001000.00000
     Eigenvalues --- 1000.000001000.000001000.000001000.000001000.00000
     Eigenvalues --- 1000.000001000.000001000.000001000.000001000.00000
     Eigenvalues --- 1000.000001000.000001000.000001000.000001000.00000
     Eigenvalues --- 1000.000001000.000001000.000001000.000001000.00000
     Eigenvalues --- 1000.000001000.000001000.000001000.000001000.00000
     Eigenvalues --- 1000.000001000.00000
 RFO step:  Lambda=-7.60234679D-03 EMin= 1.15532237D-02
 Linear search not attempted -- first point.
 Iteration  1 RMS(Cart)=  0.26205712 RMS(Int)=  0.00465027
 Iteration  2 RMS(Cart)=  0.01561959 RMS(Int)=  0.00067014
 Iteration  3 RMS(Cart)=  0.00005622 RMS(Int)=  0.00067003
 Iteration  4 RMS(Cart)=  0.00000016 RMS(Int)=  0.00067003
 Iteration  1 RMS(Cart)=  0.00005650 RMS(Int)=  0.00001238
 Iteration  2 RMS(Cart)=  0.00002503 RMS(Int)=  0.00001378
 Iteration  3 RMS(Cart)=  0.00001164 RMS(Int)=  0.00001512
 Iteration  4 RMS(Cart)=  0.00000572 RMS(Int)=  0.00001585
 Iteration  5 RMS(Cart)=  0.00000297 RMS(Int)=  0.00001622
 Iteration  6 RMS(Cart)=  0.00000161 RMS(Int)=  0.00001642
 Iteration  7 RMS(Cart)=  0.00000091 RMS(Int)=  0.00001652
 Variable       Old X    -DE/DX   Delta X   Delta X   Delta X     New X
                                 (Linear)    (Quad)   (Total)
    R1        2.80935  -0.00061   0.00000  -0.00171  -0.00172   2.80763
    R2        2.64584  -0.00096   0.00000  -0.00208  -0.00205   2.64379
    R3        2.31147  -0.00884   0.00000  -0.00933  -0.00933   2.30214
    R4        2.67311  -0.00156   0.00000  -0.00286  -0.00293   2.67018
    R5        2.59267   0.00041   0.00000   0.00112   0.00111   2.59379
    R6        2.66894  -0.00169   0.00000  -0.00367  -0.00369   2.66525
    R7        2.69164  -0.00145   0.00000  -0.00318  -0.00326   2.68838
    R8        2.81049  -0.00022   0.00000  -0.00069  -0.00068   2.80981
    R9        2.62173  -0.00197   0.00000  -0.00392  -0.00386   2.61786
   R10        2.65570  -0.00085   0.00000  -0.00190  -0.00187   2.65383
   R11        2.30889  -0.00776   0.00000  -0.00813  -0.00813   2.30076
   R12        2.70248  -0.00612   0.00000  -0.01489  -0.01487   2.68761
   R13        2.04786  -0.00030   0.00000  -0.00082  -0.00082   2.04704
   R14        2.70495  -0.00315   0.00000  -0.00833  -0.00837   2.69658
   R15        2.68322  -0.00211   0.00000  -0.00525  -0.00533   2.67789
   R16        2.68655  -0.00869   0.00000  -0.02086  -0.02082   2.66573
   R17        2.81233   0.00026   0.00000   0.00056   0.00050   2.81283
   R18        2.76359   0.00183   0.00000   0.00490   0.00490   2.76849
   R19        2.66221   0.00010   0.00000   0.00045   0.00047   2.66268
   R20        2.31391  -0.01216   0.00000  -0.01291  -0.01291   2.30100
   R21        2.79415   0.00141   0.00000   0.00411   0.00415   2.79830
   R22        2.63842  -0.00131   0.00000  -0.00246  -0.00239   2.63603
   R23        2.31456  -0.00859   0.00000  -0.00913  -0.00913   2.30543
   R24        2.62448  -0.00189   0.00000  -0.00402  -0.00402   2.62046
   R25        2.64561  -0.00077   0.00000  -0.00165  -0.00159   2.64402
   R26        2.04921  -0.00121   0.00000  -0.00335  -0.00335   2.04586
   R27        2.04741  -0.00078   0.00000  -0.00214  -0.00214   2.04527
   R28        2.77259   0.00177   0.00000   0.00481   0.00481   2.77740
   R29        2.77252   0.00176   0.00000   0.00479   0.00479   2.77731
   R30        2.06176  -0.00069   0.00000  -0.00194  -0.00194   2.05982
   R31        2.06551  -0.00182   0.00000  -0.00517  -0.00517   2.06035
   R32        2.05322  -0.00085   0.00000  -0.00236  -0.00236   2.05087
   R33        2.06368  -0.00127   0.00000  -0.00360  -0.00360   2.06007
   R34        2.06281  -0.00078   0.00000  -0.00220  -0.00220   2.06062
   R35        2.05355  -0.00091   0.00000  -0.00252  -0.00252   2.05103
   R36        2.61014  -0.00414   0.00000  -0.00882  -0.00818   2.60196
   R37        3.33301  -0.00696   0.00000  -0.02396  -0.02338   3.30963
   R38        2.66188   0.00158   0.00000   0.00358   0.00352   2.66540
   R39        2.03700   0.00229   0.00000   0.00618   0.00618   2.04318
   R40        3.30365   0.00024   0.00000   0.00130   0.00085   3.30450
   R41        2.64421  -0.00424   0.00000  -0.00856  -0.00928   2.63493
   R42        2.56917   0.00205   0.00000   0.00381   0.00381   2.57297
   R43        2.71272   0.00105   0.00000   0.00256   0.00256   2.71528
   R44        2.69142  -0.00034   0.00000  -0.00079  -0.00079   2.69063
   R45        2.63350  -0.00257   0.00000  -0.00552  -0.00552   2.62798
   R46        3.32960  -0.00093   0.00000  -0.00295  -0.00295   3.32666
   R47        2.06138  -0.00153   0.00000  -0.00431  -0.00431   2.05707
   R48        2.07210  -0.00083   0.00000  -0.00240  -0.00240   2.06971
   R49        2.07275  -0.00125   0.00000  -0.00358  -0.00358   2.06917
   R50        2.69090  -0.00131   0.00000  -0.00326  -0.00326   2.68764
   R51        2.56756  -0.00004   0.00000  -0.00007  -0.00007   2.56749
   R52        3.26360  -0.00166   0.00000  -0.00475  -0.00474   3.25885
   R53        2.58651  -0.00171   0.00000  -0.00331  -0.00331   2.58319
   R54        2.04162  -0.00022   0.00000  -0.00060  -0.00060   2.04102
   R55        2.68981  -0.00000   0.00000  -0.00001  -0.00001   2.68980
   R56        2.04335  -0.00142   0.00000  -0.00388  -0.00388   2.03946
   R57        2.07275  -0.00115   0.00000  -0.00329  -0.00329   2.06945
   R58        2.05831  -0.00052   0.00000  -0.00146  -0.00146   2.05685
   R59        2.07167  -0.00090   0.00000  -0.00257  -0.00257   2.06910
    A1        2.03797   0.00035   0.00000   0.00166   0.00163   2.03960
    A2        2.14521  -0.00048   0.00000  -0.00201  -0.00200   2.14320
    A3        2.10001   0.00013   0.00000   0.00035   0.00035   2.10036
    A4        2.10395  -0.00020   0.00000  -0.00119  -0.00119   2.10276
    A5        2.08282   0.00162   0.00000   0.00524   0.00539   2.08821
    A6        2.09624  -0.00142   0.00000  -0.00411  -0.00426   2.09197
    A7        2.10093   0.00049   0.00000   0.00153   0.00158   2.10251
    A8        2.07104   0.00038   0.00000   0.00264   0.00254   2.07358
    A9        2.11118  -0.00087   0.00000  -0.00428  -0.00432   2.10686
   A10        2.10296  -0.00036   0.00000  -0.00130  -0.00135   2.10162
   A11        2.09911  -0.00044   0.00000  -0.00157  -0.00160   2.09751
   A12        2.08110   0.00080   0.00000   0.00285   0.00292   2.08402
   A13        2.03739   0.00034   0.00000   0.00145   0.00143   2.03883
   A14        2.12972   0.00006   0.00000   0.00018   0.00018   2.12990
   A15        2.11607  -0.00040   0.00000  -0.00163  -0.00163   2.11444
   A16        2.15098  -0.00160   0.00000  -0.00710  -0.00730   2.14368
   A17        2.04399   0.00321   0.00000   0.01757   0.01755   2.06154
   A18        2.08722  -0.00163   0.00000  -0.01141  -0.01139   2.07583
   A19        2.11101  -0.00101   0.00000  -0.00314  -0.00300   2.10800
   A20        2.04385   0.00186   0.00000   0.00787   0.00790   2.05175
   A21        2.12832  -0.00084   0.00000  -0.00477  -0.00498   2.12334
   A22        2.08678  -0.00002   0.00000  -0.00283  -0.00329   2.08349
   A23        2.04738   0.00196   0.00000   0.00550   0.00448   2.05186
   A24        2.14662  -0.00199   0.00000  -0.00673  -0.00700   2.13962
   A25        2.04892   0.00361   0.00000   0.01237   0.01226   2.06118
   A26        2.00754  -0.00408   0.00000  -0.01505  -0.01502   1.99252
   A27        2.22643   0.00045   0.00000   0.00248   0.00252   2.22895
   A28        2.06022  -0.00079   0.00000  -0.00402  -0.00439   2.05583
   A29        2.17370  -0.00292   0.00000  -0.01083  -0.01065   2.16304
   A30        2.04919   0.00369   0.00000   0.01493   0.01511   2.06430
   A31        2.01621   0.00094   0.00000   0.00337   0.00304   2.01924
   A32        2.14188  -0.00129   0.00000  -0.00504  -0.00507   2.13681
   A33        2.12500   0.00034   0.00000   0.00125   0.00120   2.12620
   A34        2.10943  -0.00011   0.00000  -0.00129  -0.00152   2.10791
   A35        2.11468  -0.00135   0.00000  -0.00536  -0.00538   2.10929
   A36        2.05896   0.00146   0.00000   0.00659   0.00683   2.06580
   A37        2.11176   0.00002   0.00000  -0.00039  -0.00046   2.11129
   A38        2.05670   0.00034   0.00000   0.00228   0.00230   2.05900
   A39        2.11471  -0.00036   0.00000  -0.00191  -0.00188   2.11283
   A40        2.08567   0.00078   0.00000   0.00347   0.00346   2.08913
   A41        2.07549   0.00008   0.00000   0.00100   0.00099   2.07649
   A42        2.12199  -0.00085   0.00000  -0.00455  -0.00456   2.11743
   A43        2.20043  -0.00128   0.00000  -0.00507  -0.00532   2.19511
   A44        2.02023   0.00034   0.00000   0.00137   0.00149   2.02172
   A45        2.06252   0.00094   0.00000   0.00369   0.00381   2.06633
   A46        2.18316  -0.00062   0.00000  -0.00221  -0.00220   2.18095
   A47        2.02959   0.00048   0.00000   0.00179   0.00178   2.03137
[...]
 Alpha  occ. eigenvalues --   -0.57575  -0.56666  -0.55928  -0.55255  -0.54450
 Alpha  occ. eigenvalues --   -0.53841  -0.51860  -0.50369  -0.49990  -0.49813
 Alpha  occ. eigenvalues --   -0.49420  -0.48776  -0.48675  -0.48406  -0.48145
 Alpha  occ. eigenvalues --   -0.47838  -0.47335  -0.46730  -0.46475  -0.45701
 Alpha  occ. eigenvalues --   -0.45310  -0.45014  -0.44827  -0.44486  -0.44027
 Alpha  occ. eigenvalues --   -0.42867  -0.42532  -0.42221  -0.42112  -0.41711
 Alpha  occ. eigenvalues --   -0.41429  -0.41323  -0.41187  -0.40674  -0.40029
 Alpha  occ. eigenvalues --   -0.39649  -0.38934  -0.38439  -0.37798  -0.37262
 Alpha  occ. eigenvalues --   -0.36083  -0.35669  -0.34003  -0.33566  -0.33404
 Alpha  occ. eigenvalues --   -0.33128  -0.32394  -0.31140  -0.30231  -0.29859
 Alpha  occ. eigenvalues --   -0.29345  -0.29041  -0.28749  -0.28270  -0.27466
 Alpha  occ. eigenvalues --   -0.26375  -0.24509  -0.24053  -0.18963
 Alpha virt. eigenvalues --   -0.13283  -0.07098  -0.06243  -0.04910  -0.04118
 Alpha virt. eigenvalues --   -0.00936  -0.00340  -0.00213   0.00108   0.00624
 Alpha virt. eigenvalues --    0.00653   0.01015   0.01140   0.01300   0.01839
 Alpha virt. eigenvalues --    0.02037   0.02222   0.02503   0.02968   0.03071
 Alpha virt. eigenvalues --    0.03503   0.03746   0.03819   0.04127   0.04659
 Alpha virt. eigenvalues --    0.04854   0.04999   0.05154   0.05532   0.05727
 Alpha virt. eigenvalues --    0.05866   0.06177   0.06305   0.06777   0.07006
 Alpha virt. eigenvalues --    0.07254   0.07363   0.07681   0.07887   0.08142
 Alpha virt. eigenvalues --    0.08599   0.08824   0.09070   0.09197   0.09204
 Alpha virt. eigenvalues --    0.09538   0.09608   0.09871   0.10053   0.10827
 Alpha virt. eigenvalues --    0.10848   0.11248   0.11476   0.11845   0.11895
 Alpha virt. eigenvalues --    0.12167   0.12768   0.12888   0.13202   0.13320
 Alpha virt. eigenvalues --    0.13585   0.13676   0.13920   0.14091   0.14341
 Alpha virt. eigenvalues --    0.14466   0.14760   0.14840   0.15111   0.15188
 Alpha virt. eigenvalues --    0.15466   0.15793   0.15943   0.16122   0.16273
 Alpha virt. eigenvalues --    0.16531   0.16813   0.17096   0.17401   0.17541
 Alpha virt. eigenvalues --    0.17850   0.18267   0.18364   0.18452   0.18792
 Alpha virt. eigenvalues --    0.18915   0.18952   0.19228   0.19542   0.19645
 Alpha virt. eigenvalues --    0.19717   0.20033   0.20215   0.20429   0.20453
 Alpha virt. eigenvalues --    0.20673   0.20727   0.20812   0.21226   0.21354
 Alpha virt. eigenvalues --    0.21432   0.21840   0.21855   0.22092   0.22426
 Alpha virt. eigenvalues --    0.22594   0.22811   0.22927   0.23160   0.23232
 Alpha virt. eigenvalues --    0.23320   0.23582   0.23842   0.23982   0.24320
 Alpha virt. eigenvalues --    0.24576   0.24865   0.24951   0.25096   0.25360
 Alpha virt. eigenvalues --    0.25536   0.25725   0.25990   0.26032   0.26297
 Alpha virt. eigenvalues --    0.26319   0.26814   0.26935   0.26967   0.27171
 Alpha virt. eigenvalues --    0.27435   0.27716   0.27945   0.28260   0.28344
 Alpha virt. eigenvalues --    0.28423   0.28665   0.28854   0.29173   0.29427
 Alpha virt. eigenvalues --    0.29637   0.29854   0.30191   0.30284   0.30680
 Alpha virt. eigenvalues --    0.30739   0.30897   0.31088   0.31410   0.31516
 Alpha virt. eigenvalues --    0.31901   0.32446   0.32628   0.32719   0.33071
 Alpha virt. eigenvalues --    0.33515   0.33736   0.33960   0.34247   0.34483
 Alpha virt. eigenvalues --    0.34715   0.34954   0.35460   0.35733   0.35894
 Alpha virt. eigenvalues --    0.36213   0.36725   0.37092   0.37574   0.37919
 Alpha virt. eigenvalues --    0.38216   0.38402   0.38867   0.39171   0.39636
 Alpha virt. eigenvalues --    0.39765   0.40293   0.40764   0.41027   0.41594
 Alpha virt. eigenvalues --    0.41882   0.42238   0.43055   0.43143   0.43582
 Alpha virt. eigenvalues --    0.44117   0.44421   0.44778   0.45125   0.45347
 Alpha virt. eigenvalues --    0.45471   0.46005   0.46179   0.46496   0.47059
 Alpha virt. eigenvalues --    0.47145   0.47823   0.48536   0.48974   0.49346
 Alpha virt. eigenvalues --    0.49547   0.49898   0.50588   0.50811   0.51278
 Alpha virt. eigenvalues --    0.52072   0.52590   0.53040   0.53753   0.53941
 Alpha virt. eigenvalues --    0.54363   0.54460   0.55255   0.55619   0.55792
 Alpha virt. eigenvalues --    0.56064   0.56600   0.56742   0.57074   0.57420
 Alpha virt. eigenvalues --    0.57675   0.58244   0.58841   0.59103   0.59610
 Alpha virt. eigenvalues --    0.60164   0.60661   0.60928   0.61110   0.61629
 Alpha virt. eigenvalues --    0.62291   0.62441   0.62555   0.62816   0.63334
 Alpha virt. eigenvalues --    0.63682   0.64381   0.64397   0.64746   0.65117
 Alpha virt. eigenvalues --    0.65639   0.65847   0.66192   0.66500   0.66639
 Alpha virt. eigenvalues --    0.67444   0.67572   0.68015   0.68195   0.68713
 Alpha virt. eigenvalues --    0.69107   0.69321   0.69551   0.69630   0.70561
 Alpha virt. eigenvalues --    0.71073   0.71458   0.71526   0.72188   0.72362
 Alpha virt. eigenvalues --    0.72685   0.72852   0.73293   0.73383   0.74191
 Alpha virt. eigenvalues --    0.74374   0.74705   0.74841   0.75241   0.75526
 Alpha virt. eigenvalues --    0.76025   0.76099   0.76676   0.77073   0.77260
 Alpha virt. eigenvalues --    0.77694   0.77847   0.78128   0.79029   0.79474
 Alpha virt. eigenvalues --    0.79812   0.80411   0.80456   0.81765   0.81899
 Alpha virt. eigenvalues --    0.82396   0.83054   0.83742   0.84738   0.85783
 Alpha virt. eigenvalues --    0.86641   0.87221   0.87611   0.88001   0.88297
 Alpha virt. eigenvalues --    0.88744   0.89021   0.90263   0.90367   0.90983
 Alpha virt. eigenvalues --    0.91776   0.91947   0.92332   0.92604   0.93224
 Alpha virt. eigenvalues --    0.93622   0.93910   0.94284   0.94544   0.95431
 Alpha virt. eigenvalues --    0.96004   0.96107   0.96516   0.96750   0.97411
 Alpha virt. eigenvalues --    0.97818   0.98095   0.99107   0.99996   1.00560
 Alpha virt. eigenvalues --    1.00886   1.01422   1.01601   1.01725   1.02151
 Alpha virt. eigenvalues --    1.02771   1.03553   1.03841   1.04377   1.04752
 Alpha virt. eigenvalues --    1.05067   1.05368   1.05806   1.06036   1.06337
 Alpha virt. eigenvalues --    1.06729   1.07069   1.07836   1.08023   1.08489
 Alpha virt. eigenvalues --    1.09064   1.09333   1.10046   1.10759   1.11139
 Alpha virt. eigenvalues --    1.11283   1.12797   1.13274   1.13766   1.14040
 Alpha virt. eigenvalues --    1.15439   1.15751   1.16209   1.16785   1.17949
 Alpha virt. eigenvalues --    1.18223   1.18808   1.19898   1.20888   1.21467
 Alpha virt. eigenvalues --    1.21914   1.22334   1.23525   1.24709   1.25194
 Alpha virt. eigenvalues --    1.25374   1.26311   1.26532   1.26775   1.27405
 Alpha virt. eigenvalues --    1.27751   1.28171   1.29543   1.30006   1.31576
 Alpha virt. eigenvalues --    1.32161   1.33276   1.33565   1.34265   1.35769
 Alpha virt. eigenvalues --    1.35832   1.36442   1.36892   1.39099   1.40056
 Alpha virt. eigenvalues --    1.40601   1.41318   1.41504   1.42425   1.42596
 Alpha virt. eigenvalues --    1.43278   1.43375   1.43571   1.43846   1.44382
 Alpha virt. eigenvalues --    1.44601   1.45076   1.45475   1.45533   1.45936
 Alpha virt. eigenvalues --    1.46193   1.46653   1.47415   1.48474   1.49815
 Alpha virt. eigenvalues --    1.50304   1.51138   1.51218   1.51556   1.52747
 Alpha virt. eigenvalues --    1.53321   1.53471   1.53894   1.54488   1.54814
 Alpha virt. eigenvalues --    1.54979   1.55472   1.56026   1.56875   1.57296
 Alpha virt. eigenvalues --    1.58786   1.59138   1.60305   1.60864   1.61709
 Alpha virt. eigenvalues --    1.62546   1.62722   1.63318   1.63804   1.64231
 Alpha virt. eigenvalues --    1.64393   1.65329   1.66048   1.66674   1.67061
 Alpha virt. eigenvalues --    1.67981   1.68518   1.69301   1.69478   1.69741
 Alpha virt. eigenvalues --    1.70055   1.70889   1.71071   1.71211   1.71548
 Alpha virt. eigenvalues --    1.73511   1.73926   1.74376   1.74728   1.75306
 Alpha virt. eigenvalues --    1.76498   1.77131   1.77430   1.78221   1.78887
 Alpha virt. eigenvalues --    1.79502   1.80295   1.81263   1.82021   1.82060
 Alpha virt. eigenvalues --    1.83384   1.84356   1.85260   1.85786   1.85943
 Alpha virt. eigenvalues --    1.86596   1.86687   1.87583   1.87978   1.88622
 Alpha virt. eigenvalues --    1.89735   1.90148   1.90718   1.90973   1.91484
 Alpha virt. eigenvalues --    1.91812   1.92314   1.93644   1.94483   1.95395
 Alpha virt. eigenvalues --    1.96088   1.96189   1.96882   1.98045   1.98500
 Alpha virt. eigenvalues --    1.99075   2.00887   2.01289   2.01734   2.01959
 Alpha virt. eigenvalues --    2.02887   2.02895   2.03771   2.04344   2.05251
 Alpha virt. eigenvalues --    2.06155   2.06610   2.07005   2.07630   2.08070
 Alpha virt. eigenvalues --    2.08840   2.09371   2.10897   2.11259   2.11810
 Alpha virt. eigenvalues --    2.12116   2.12482   2.14063   2.14564   2.15257
 Alpha virt. eigenvalues --    2.15534   2.16108   2.17026   2.17823   2.19017
 Alpha virt. eigenvalues --    2.19618   2.20277   2.20704   2.21516   2.21831
 Alpha virt. eigenvalues --    2.22893   2.25912   2.26265   2.26889   2.28625
 Alpha virt. eigenvalues --    2.31600   2.32512   2.33074   2.34233   2.36575
 Alpha virt. eigenvalues --    2.37573   2.39368   2.39948   2.41459   2.43082
 Alpha virt. eigenvalues --    2.43481   2.43911   2.44419   2.45910   2.46409
 Alpha virt. eigenvalues --    2.46662   2.46983   2.48520   2.49053   2.49604
 Alpha virt. eigenvalues --    2.50322   2.51578   2.51763   2.52336   2.52432
 Alpha virt. eigenvalues --    2.53080   2.53337   2.53793   2.54701   2.56151
 Alpha virt. eigenvalues --    2.56681   2.58375   2.58646   2.58897   2.60013
 Alpha virt. eigenvalues --    2.62008   2.63563   2.63931   2.64849   2.66346
 Alpha virt. eigenvalues --    2.66934   2.67745   2.68102   2.68119   2.68424
 Alpha virt. eigenvalues --    2.69069   2.69453   2.70467   2.71119   2.71261
 Alpha virt. eigenvalues --    2.71998   2.72511   2.73348   2.74385   2.75689
 Alpha virt. eigenvalues --    2.75927   2.77395   2.78230   2.78557   2.81058
 Alpha virt. eigenvalues --    2.82408   2.82797   2.83879   2.83889   2.84046
 Alpha virt. eigenvalues --    2.84677   2.85174   2.85909   2.86156   2.87325
 Alpha virt. eigenvalues --    2.87530   2.88309   2.88946   2.89619   2.90265
 Alpha virt. eigenvalues --    2.91885   2.92310   2.93111   2.93852   2.94385
 Alpha virt. eigenvalues --    2.95058   2.95626   2.96677   2.98542   3.00224
 Alpha virt. eigenvalues --    3.00614   3.01855   3.03735   3.04536   3.04937
 Alpha virt. eigenvalues --    3.06285   3.07046   3.08297   3.08515   3.09744
 Alpha virt. eigenvalues --    3.10589   3.12917   3.13970   3.14358   3.15019
 Alpha virt. eigenvalues --    3.16627   3.17215   3.19408   3.21248   3.21761
 Alpha virt. eigenvalues --    3.23542   3.23980   3.24550   3.24907   3.27012
 Alpha virt. eigenvalues --    3.29565   3.29910   3.31249   3.32555   3.34328
 Alpha virt. eigenvalues --    3.34872   3.35124   3.35497   3.36683   3.37769
 Alpha virt. eigenvalues --    3.38244   3.39659   3.41680   3.42842   3.44006
 Alpha virt. eigenvalues --    3.44753   3.46125   3.46643   3.49144   3.49532
 Alpha virt. eigenvalues --    3.51123   3.53798   3.55811   3.57984   3.59976
 Alpha virt. eigenvalues --    3.60684   3.62070   3.65320   3.65752   3.66655
 Alpha virt. eigenvalues --    3.69785   3.71028   3.72385   3.73326   3.76301
 Alpha virt. eigenvalues --    3.76842   3.77116   3.81817   3.82697   3.84769
 Alpha virt. eigenvalues --    3.85234   3.86154   3.90077   3.91850   3.93028
 Alpha virt. eigenvalues --    3.93113   3.94716   3.96540   4.01141   4.03299
 Alpha virt. eigenvalues --    4.04382   4.08370   4.10871   4.12171   4.14704
 Alpha virt. eigenvalues --    4.19509   4.22923   4.25010   4.26851   4.35063
 Alpha virt. eigenvalues --    4.38298   4.39885   4.50143   4.67302   4.84211
 Alpha virt. eigenvalues --    4.86723   4.87182   4.89867   5.02259   5.02943
 Alpha virt. eigenvalues --    5.03851   5.05363   5.05666   5.08782   5.11108
 Alpha virt. eigenvalues --    5.12405   5.24724   5.26560   5.28582   5.31772
 Alpha virt. eigenvalues --    5.42068   5.43503   5.75767   5.77039   5.80043
 Alpha virt. eigenvalues --    5.80671   5.81831   5.85563   8.02923   8.06234
 Alpha virt. eigenvalues --   17.29597  17.35478  17.50142  17.53016  17.59058
 Alpha virt. eigenvalues --   17.63142  23.48656  23.56710  23.72647  23.79205
 Alpha virt. eigenvalues --   23.82333  23.82923  23.84317  23.86834  23.87268
 Alpha virt. eigenvalues --   23.87926  23.88754  23.90494  23.91421  23.93544
 Alpha virt. eigenvalues --   23.94759  23.96048  23.96473  23.99967  24.01363
 Alpha virt. eigenvalues --   24.04163  24.04333  24.05421  24.11617  24.14068
 Alpha virt. eigenvalues --   24.14566  24.15574  35.55657  35.58368  49.96465
 Alpha virt. eigenvalues --   49.97670  50.02040  50.03871  50.05873  50.07310
 Alpha virt. eigenvalues --  189.20137 189.24394
          Condensed to atoms (all electrons):
 Mulliken charges:
               1
     1  C    0.341721
     2  C   -0.032322
     3  C    0.170655
     4  C    0.221814
     5  C    0.233491
     6  C   -0.411204
     7  C    0.210552
     8  C   -0.014909
     9  C    0.291872
    10  C   -0.312138
    11  C    0.267358
    12  C    0.119613
    13  C   -0.457423
    14  C   -0.623916
    15  H    0.160742
    16  H    0.162038
    17  H    0.163915
    18  N   -0.120837
    19  N   -0.141796
    20  O   -0.274325
    21  O   -0.271097
    22  O   -0.276644
    23  O   -0.175901
    24  C   -0.183678
    25  H    0.177103
    26  H    0.178580
    27  H    0.183192
    28  C   -0.197834
    29  H    0.175301
    30  H    0.174232
    31  H    0.182806
    32  C    0.444811
    33  C   -0.514320
    34  S   -0.399552
    35  C   -0.153362
    36  H    0.121510
    37  C    0.398701
    38  O   -0.130165
    39  C    0.846958
    40  C   -0.228055
    41  C    0.017292
    42  S   -0.279180
    43  H    0.165378
    44  H    0.145867
    45  H    0.150695
    46  C   -0.571189
    47  O   -0.142377
    48  C   -0.297206
    49  H    0.129807
    50  C   -0.236661
    51  H    0.158286
    52  H    0.143092
    53  H    0.163818
    54  H    0.144886
 Sum of Mulliken charges =  -0.00000
 Mulliken charges with hydrogens summed into heavy atoms:
               1
     1  C    0.341721
     2  C   -0.032322
     3  C    0.170655
     4  C    0.221814
     5  C    0.233491
     6  C   -0.247289
     7  C    0.210552
     8  C   -0.014909
     9  C    0.291872
    10  C   -0.312138
    11  C    0.267358
    12  C    0.119613
    13  C   -0.295385
    14  C   -0.463174
    18  N   -0.120837
    19  N   -0.141796
    20  O   -0.274325
    21  O   -0.271097
    22  O   -0.276644
    23  O   -0.175901
    24  C    0.355198
    28  C    0.334506
    32  C    0.444811
    33  C   -0.392810
    34  S   -0.399552
    35  C   -0.153362
    37  C    0.398701
    38  O   -0.130165
    39  C    0.846958
    40  C    0.233886
    41  C    0.017292
    42  S   -0.279180
    46  C   -0.441381
    47  O   -0.142377
    48  C   -0.138919
    50  C    0.215136
 Electronic spatial extent (au):  <R**2>=          22140.5735
 Charge=             -0.0000 electrons
 Dipole moment (field-independent basis, Debye):
    X=             -2.6080    Y=             -0.3637    Z=              0.2241  Tot=              2.6428
 Quadrupole moment (field-independent basis, Debye-Ang):
   XX=           -218.1490   YY=           -227.5177   ZZ=           -204.7184
   XY=             -6.6764   XZ=            -11.0030   YZ=             13.3163
 Traceless Quadrupole moment (field-independent basis, Debye-Ang):
   XX=             -1.3540   YY=            -10.7227   ZZ=             12.0766
   XY=             -6.6764   XZ=            -11.0030   YZ=             13.3163
 Octapole moment (field-independent basis, Debye-Ang**2):
  XXX=           -290.4784  YYY=            -22.4370  ZZZ=              1.1557  XYY=            -52.6041
  XXY=             -5.9712  XXZ=             48.9483  XZZ=            -62.7821  YZZ=             -6.0841
  YYZ=            -13.0746  XYZ=            -48.9932
 Hexadecapole moment (field-independent basis, Debye-Ang**3):
 XXXX=         -21317.0717 YYYY=          -6483.7499 ZZZZ=          -2026.2741 XXXY=            -22.1534
 XXXZ=           -587.2434 YYYX=           -444.5848 YYYZ=             25.7478 ZZZX=            -53.1312
 ZZZY=            133.2006 XXYY=          -4612.9772 XXZZ=          -3739.2278 YYZZ=          -1266.8727
 XXYZ=            264.2896 YYXZ=             95.2389 ZZXY=            -49.1447
 N-N= 4.096310093626D+03 E-N=-1.373277811370D+04  KE= 2.352052150412D+03
 Unable to Open any file for archive entry.
 1\1\GINC-CX3-5-29\FOpt\RB3LYP\6-311+G(d,p)\C26H18N2O6S2\NS5018\29-Nov-
 2020\0\\# opt=modredundant b3lyp/6-311+g(d,p)\\NDI_120.pdb\\0,1\C,-2.4
 718954359,-2.9130897684,-0.5411949629\C,-2.2095876017,-1.4723981042,-0
 .2849052826\C,-3.2842237089,-0.5734995722,-0.101056996\C,-4.620327694,
 -1.0264034058,-0.1613359142\C,-4.9178769765,-2.4585307374,-0.434699998
 1\C,-0.9140886876,-1.0117281392,-0.2431838284\C,-3.0019175056,0.793566
 5057,0.1697341764\C,-1.6557534587,1.2542729793,0.2182074617\C,-0.60475
 07626,0.3569578841,-0.0283673371\C,-1.4046496276,2.6535477588,0.670588
 3028\C,-3.8602939584,3.0986023174,0.7215141489\C,-4.0922988507,1.67029
 52526,0.390985782\C,-5.3957165711,1.2066356399,0.3198799834\C,-5.66426
 51902,-0.1402719425,0.0409966181\H,-6.6813238564,-0.5073622731,-0.0113
 15191\H,-6.2011748739,1.9096610295,0.4908454861\H,-0.1067471098,-1.711
 5823528,-0.4175540096\N,-2.5254521008,3.4828194344,0.866497313\N,-3.81
 34073974,-3.3101119859,-0.6034738789\O,-1.5806963693,-3.7270339738,-0.
 6961550394\O,-6.0569628417,-2.8792435984,-0.5062543581\O,-4.7758256376
 ,3.886727719,0.8778615788\O,-0.2967126021,3.1063435212,0.8776904981\C,
 -2.2351407746,4.8659124597,1.2724207399\H,-1.6851422327,4.8657829422,2
 .2134996295\H,-1.6183119452,5.3504145263,0.51527862\H,-3.1816795618,5.
 3854673243,1.3819954212\C,-4.0582821745,-4.735388313,-0.8685263366\H,-
 3.5947471148,-5.0176453014,-1.8138335313\H,-3.6175622888,-5.3389181428
 ,-0.0745999637\H,-5.1320700712,-4.8876686931,-0.9094969255\C,0.8214919
 724,0.7119552482,-0.1192382257\C,1.8378148625,0.2368211735,0.672762191
 1\S,1.4285316117,1.7401543472,-1.3844615334\C,3.1096179939,0.725225899
 5,0.2819004105\H,1.6664027317,-0.4123029436,1.5195759157\C,3.084856007
 1,1.5523386834,-0.8345663475\O,4.2975281773,0.4618237963,0.8921467001\
 C,4.2015953296,2.1671116242,-1.5038773873\C,4.3097667472,-0.4933104227
 ,1.9472987021\C,4.1752604154,2.9897597533,-2.6223765\S,5.8664727244,1.
 9582014654,-0.9751907459\H,5.3497971754,-0.5852486122,2.2554930224\H,3
 .7095142179,-0.1512885883,2.7968926017\H,3.9434632226,-1.4663172973,1.
 6035801375\C,5.4559404742,3.4435151832,-3.0443226122\O,2.981615077,3.2
 845019098,-3.2064125232\C,6.4570370708,2.9636673269,-2.2468422522\H,5.
 6285268816,4.0901698675,-3.8922238775\C,2.9826980813,4.160176276,-4.32
 82162081\H,7.5166439088,3.1481980205,-2.3346033579\H,3.554761857,3.736
 0742059,-5.1600066811\H,1.9407089867,4.2678857338,-4.6244904266\H,3.38
 88394554,5.1417563589,-4.0628632091\\Version=ES64L-G16RevC.01\State=1-
 A\HF=-2359.3355903\RMSD=3.837e-09\RMSF=4.404e-04\Dipole=0.9815668,0.23
 00696,-0.254338\Quadrupole=-6.1131925,-3.3460205,9.459213,3.9107067,-1
 .5180809,-13.2493999\PG=C01 [X(C26H18N2O6S2)]\\@
 The archive entry for this job was punched.


 In the race for quality, there is no finish line.
                               -- David T. Kearns
 Job cpu time:       0 days 22 hours  3 minutes 41.1 seconds.
 Elapsed time:       0 days  2 hours 46 minutes 28.7 seconds.
 File lengths (MBytes):  RWF=    496 Int=      0 D2E=      0 Chk=     61 Scr=      1
 Normal termination of Gaussian 16 at Sun Nov 29 12:52:26 2020.
