 Entering Gaussian System, Link 0=g16
 Input=NDI_-165.gjf
 Output=NDI_-165.log
 Initial command:
 /apps/gaussian/g16-c01-avx/g16/l1.exe "/tmp/pbs.2625174[3].pbs/Gau-3990184.inp" -scrdir="/tmp/pbs.2625174[3].pbs/"
 Entering Link 1 = /apps/gaussian/g16-c01-avx/g16/l1.exe PID=   3990185.
  
 Copyright (c) 1988-2019, Gaussian, Inc.  All Rights Reserved.
  
 This is part of the Gaussian(R) 16 program.  It is based on
 the Gaussian(R) 09 system (copyright 2009, Gaussian, Inc.),
 the Gaussian(R) 03 system (copyright 2003, Gaussian, Inc.),
 the Gaussian(R) 98 system (copyright 1998, Gaussian, Inc.),
 the Gaussian(R) 94 system (copyright 1995, Gaussian, Inc.),
 the Gaussian 92(TM) system (copyright 1992, Gaussian, Inc.),
 the Gaussian 90(TM) system (copyright 1990, Gaussian, Inc.),
 the Gaussian 88(TM) system (copyright 1988, Gaussian, Inc.),
 the Gaussian 86(TM) system (copyright 1986, Carnegie Mellon
 University), and the Gaussian 82(TM) system (copyright 1983,
 Carnegie Mellon University). Gaussian is a federally registered
 trademark of Gaussian, Inc.
  
 This software contains proprietary and confidential information,
 including trade secrets, belonging to Gaussian, Inc.
  
 This software is provided under written license and may be
 used, copied, transmitted, or stored only in accord with that
 written license.
  
 The following legend is applicable only to US Government
 contracts under FAR:
  
                    RESTRICTED RIGHTS LEGEND
  
 Use, reproduction and disclosure by the US Government is
 subject to restrictions as set forth in subparagraphs (a)
 and (c) of the Commercial Computer Software - Restricted
 Rights clause in FAR 52.227-19.
  
 Gaussian, Inc.
 340 Quinnipiac St., Bldg. 40, Wallingford CT 06492
  
  
 ---------------------------------------------------------------
 Warning -- This program may not be used in any manner that
 competes with the business of Gaussian, Inc. or will provide
 assistance to any competitor of Gaussian, Inc.  The licensee
 of this program is prohibited from giving any competitor of
 Gaussian, Inc. access to this program.  By using this program,
 the user acknowledges that Gaussian, Inc. is engaged in the
 business of creating and licensing software in the field of
 computational chemistry and represents and warrants to the
 licensee that it is not a competitor of Gaussian, Inc. and that
 it will not use this program in any manner prohibited above.
 ---------------------------------------------------------------
  

 Cite this work as:
 Gaussian 16, Revision C.01,
 M. J. Frisch, G. W. Trucks, H. B. Schlegel, G. E. Scuseria, 
 M. A. Robb, J. R. Cheeseman, G. Scalmani, V. Barone, 
 G. A. Petersson, H. Nakatsuji, X. Li, M. Caricato, A. V. Marenich, 
 J. Bloino, B. G. Janesko, R. Gomperts, B. Mennucci, H. P. Hratchian, 
 J. V. Ortiz, A. F. Izmaylov, J. L. Sonnenberg, D. Williams-Young, 
 F. Ding, F. Lipparini, F. Egidi, J. Goings, B. Peng, A. Petrone, 
 T. Henderson, D. Ranasinghe, V. G. Zakrzewski, J. Gao, N. Rega, 
 G. Zheng, W. Liang, M. Hada, M. Ehara, K. Toyota, R. Fukuda, 
 J. Hasegawa, M. Ishida, T. Nakajima, Y. Honda, O. Kitao, H. Nakai, 
 T. Vreven, K. Throssell, J. A. Montgomery, Jr., J. E. Peralta, 
 F. Ogliaro, M. J. Bearpark, J. J. Heyd, E. N. Brothers, K. N. Kudin, 
 V. N. Staroverov, T. A. Keith, R. Kobayashi, J. Normand, 
 K. Raghavachari, A. P. Rendell, J. C. Burant, S. S. Iyengar, 
 J. Tomasi, M. Cossi, J. M. Millam, M. Klene, C. Adamo, R. Cammi, 
 J. W. Ochterski, R. L. Martin, K. Morokuma, O. Farkas, 
 J. B. Foresman, and D. J. Fox, Gaussian, Inc., Wallingford CT, 2019.
 
 ******************************************
 Gaussian 16:  ES64L-G16RevC.01  3-Jul-2019
                29-Nov-2020 
 ******************************************
 %mem=10GB
 %nprocshared=8
 Will use up to    8 processors via shared memory.
 -------------------------------------
 # opt=modredundant b3lyp/6-311+g(d,p)
 -------------------------------------
 1/18=120,19=15,26=3,38=1/1,3;
 2/9=110,12=2,17=6,18=5,40=1/2;
 3/5=4,6=6,7=111,11=2,25=1,30=1,71=1,74=-5/1,2,3;
 4//1;
 5/5=2,38=5/2;
 6/7=2,8=2,9=2,10=2,28=1/1;
 7//1,2,3,16;
 1/18=20,19=15,26=3/3(2);
 2/9=110/2;
 99//99;
 2/9=110/2;
 3/5=4,6=6,7=111,11=2,25=1,30=1,71=1,74=-5/1,2,3;
 4/5=5,16=3,69=1/1;
 5/5=2,38=5/2;
 7//1,2,3,16;
 1/18=20,19=15,26=3/3(-5);
 2/9=110/2;
 6/7=2,8=2,9=2,10=2,19=2,28=1/1;
 99/9=1/99;
 ------------
 NDI_-165.pdb
 ------------
 Symbolic Z-matrix:
 Charge =  0 Multiplicity = 1
 C                    -2.563    -2.994    -0.409 
 C                    -2.257    -1.551    -0.224 
 C                    -3.301    -0.607    -0.083 
 C                    -4.65     -1.024    -0.115 
 C                    -4.992    -2.459    -0.304 
 C                    -0.949    -1.137    -0.215 
 C                    -2.962     0.764     0.102 
 C                    -1.595     1.188     0.123 
 C                    -0.561     0.232    -0.072 
 C                    -1.328     2.616     0.446 
 C                    -3.777     3.115     0.508 
 C                    -4.035     1.679     0.268 
 C                    -5.356     1.252     0.23 
 C                    -5.672    -0.098     0.036 
 H                    -6.699    -0.442     0.008 
 H                    -6.133     1.997     0.361 
 H                    -0.19     -1.895    -0.369 
 N                    -2.432     3.476     0.608 
 N                    -3.916    -3.353    -0.438 
 O                    -1.695    -3.847    -0.532 
 O                    -6.149    -2.85     -0.34 
 O                    -4.676     3.938     0.629 
 O                    -0.212     3.097     0.596 
 C                    -2.111     4.875     0.912 
 H                    -1.54      4.931     1.84 
 H                    -1.5       5.299     0.111 
 H                    -3.05      5.414     1.003 
 C                    -4.206    -4.779    -0.625 
 H                    -3.759    -5.126    -1.559 
 H                    -3.775    -5.355     0.196 
 H                    -5.286    -4.897    -0.649 
 C                     0.876     0.482    -0.178 
 C                     1.903    -0.324    -0.63 
 S                     1.53      1.978     0.489 
 C                     3.181     0.241    -0.453 
 H                     1.733    -1.288    -1.081 
 C                     3.177     1.509     0.137 
 O                     4.37     -0.324    -0.797 
 C                     4.304     2.355     0.408 
 C                     4.33     -1.548    -1.523 
 C                     4.3       3.608     1.017 
 S                     5.958     1.915    -0.011 
 H                     5.366    -1.786    -1.768 
 H                     3.906    -2.357    -0.915 
 H                     3.747    -1.443    -2.446 
 C                     5.59      4.199     1.144 
 O                     3.12      4.146     1.422 
 C                     6.572     3.396     0.631 
 H                     5.779     5.166     1.59 
 C                     3.151     5.411     2.073 
 H                     7.635     3.596     0.599 
 H                     3.552     6.189     1.411 
 H                     2.117     5.647     2.322 
 H                     3.749     5.371     2.991 
 
 The following ModRedundant input section has been read:
 D       8       9      32      33 F                                           
 D      33      35      38      40 F                                           
 D      46      41      47      50 F                                           
 D      10      18      24      25 F                                           
 D       1      19      28      30 F                                           
 D       9       8      10      23 F                                           
 D      20       1       2       6 F                                           
 

 GradGradGradGradGradGradGradGradGradGradGradGradGradGradGradGradGradGrad
 Berny optimization.
 Initialization pass.
                           ----------------------------
                           !    Initial Parameters    !
                           ! (Angstroms and Degrees)  !
 --------------------------                            --------------------------
 ! Name  Definition              Value          Derivative Info.                !
 --------------------------------------------------------------------------------
 ! R1    R(1,2)                  1.4866         estimate D2E/DX2                !
 ! R2    R(1,19)                 1.4001         estimate D2E/DX2                !
 ! R3    R(1,20)                 1.2232         estimate D2E/DX2                !
 ! R4    R(2,3)                  1.4146         estimate D2E/DX2                !
 ! R5    R(2,6)                  1.372          estimate D2E/DX2                !
 ! R6    R(3,4)                  1.4123         estimate D2E/DX2                !
 ! R7    R(3,7)                  1.4244         estimate D2E/DX2                !
 ! R8    R(4,5)                  1.4872         estimate D2E/DX2                !
 ! R9    R(4,14)                 1.3874         estimate D2E/DX2                !
 ! R10   R(5,19)                 1.4053         estimate D2E/DX2                !
 ! R11   R(5,21)                 1.2218         estimate D2E/DX2                !
 ! R12   R(6,9)                  1.4301         estimate D2E/DX2                !
 ! R13   R(6,17)                 1.0837         estimate D2E/DX2                !
 ! R14   R(7,8)                  1.4314         estimate D2E/DX2                !
 ! R15   R(7,12)                 1.4199         estimate D2E/DX2                !
 ! R16   R(8,9)                  1.4217         estimate D2E/DX2                !
 ! R17   R(8,10)                 1.4882         estimate D2E/DX2                !
 ! R18   R(9,32)                 1.4624         estimate D2E/DX2                !
 ! R19   R(10,18)                1.4088         estimate D2E/DX2                !
 ! R20   R(10,23)                1.2245         estimate D2E/DX2                !
 ! R21   R(11,12)                1.4786         estimate D2E/DX2                !
 ! R22   R(11,18)                1.3962         estimate D2E/DX2                !
 ! R23   R(11,22)                1.2248         estimate D2E/DX2                !
 ! R24   R(12,13)                1.3888         estimate D2E/DX2                !
 ! R25   R(13,14)                1.4            estimate D2E/DX2                !
 ! R26   R(13,16)                1.0844         estimate D2E/DX2                !
 ! R27   R(14,15)                1.0834         estimate D2E/DX2                !
 ! R28   R(18,24)                1.4672         estimate D2E/DX2                !
 ! R29   R(19,28)                1.4672         estimate D2E/DX2                !
 ! R30   R(24,25)                1.091          estimate D2E/DX2                !
 ! R31   R(24,26)                1.093          estimate D2E/DX2                !
 ! R32   R(24,27)                1.0865         estimate D2E/DX2                !
 ! R33   R(28,29)                1.0921         estimate D2E/DX2                !
 ! R34   R(28,30)                1.0916         estimate D2E/DX2                !
 ! R35   R(28,31)                1.0867         estimate D2E/DX2                !
 ! R36   R(32,33)                1.3815         estimate D2E/DX2                !
 ! R37   R(32,34)                1.7637         estimate D2E/DX2                !
 ! R38   R(33,35)                1.4085         estimate D2E/DX2                !
 ! R39   R(33,36)                1.0778         estimate D2E/DX2                !
 ! R40   R(34,37)                1.7483         estimate D2E/DX2                !
 ! R41   R(35,37)                1.3985         estimate D2E/DX2                !
 ! R42   R(35,38)                1.3606         estimate D2E/DX2                !
 ! R43   R(37,39)                1.435          estimate D2E/DX2                !
 ! R44   R(38,40)                1.4237         estimate D2E/DX2                !
 ! R45   R(39,41)                1.3932         estimate D2E/DX2                !
 ! R46   R(39,42)                1.7621         estimate D2E/DX2                !
 ! R47   R(40,43)                1.0909         estimate D2E/DX2                !
 ! R48   R(40,44)                1.0972         estimate D2E/DX2                !
 ! R49   R(40,45)                1.0967         estimate D2E/DX2                !
 ! R50   R(41,46)                1.4246         estimate D2E/DX2                !
 ! R51   R(41,47)                1.3586         estimate D2E/DX2                !
 ! R52   R(42,48)                1.727          estimate D2E/DX2                !
 ! R53   R(46,48)                1.3683         estimate D2E/DX2                !
 ! R54   R(46,49)                1.0815         estimate D2E/DX2                !
 ! R55   R(47,50)                1.423          estimate D2E/DX2                !
 ! R56   R(48,51)                1.0821         estimate D2E/DX2                !
 ! R57   R(50,52)                1.0974         estimate D2E/DX2                !
 ! R58   R(50,53)                1.0894         estimate D2E/DX2                !
 ! R59   R(50,54)                1.0963         estimate D2E/DX2                !
 ! A1    A(2,1,19)             116.767          estimate D2E/DX2                !
 ! A2    A(2,1,20)             122.9113         estimate D2E/DX2                !
 ! A3    A(19,1,20)            120.3217         estimate D2E/DX2                !
 ! A4    A(1,2,3)              120.5473         estimate D2E/DX2                !
 ! A5    A(1,2,6)              119.3369         estimate D2E/DX2                !
 ! A6    A(3,2,6)              120.1056         estimate D2E/DX2                !
 ! A7    A(2,3,4)              120.3743         estimate D2E/DX2                !
 ! A8    A(2,3,7)              118.662          estimate D2E/DX2                !
 ! A9    A(4,3,7)              120.9617         estimate D2E/DX2                !
 ! A10   A(3,4,5)              120.4909         estimate D2E/DX2                !
 ! A11   A(3,4,14)             120.2702         estimate D2E/DX2                !
 ! A12   A(5,4,14)             119.2382         estimate D2E/DX2                !
 ! A13   A(4,5,19)             116.7341         estimate D2E/DX2                !
 ! A14   A(4,5,21)             122.024          estimate D2E/DX2                !
 ! A15   A(19,5,21)            121.2418         estimate D2E/DX2                !
 ! A16   A(2,6,9)              123.2421         estimate D2E/DX2                !
 ! A17   A(2,6,17)             117.1119         estimate D2E/DX2                !
 ! A18   A(9,6,17)             119.589          estimate D2E/DX2                !
 ! A19   A(3,7,8)              120.9519         estimate D2E/DX2                !
 ! A20   A(3,7,12)             117.1037         estimate D2E/DX2                !
 ! A21   A(8,7,12)             121.944          estimate D2E/DX2                !
 ! A22   A(7,8,9)              119.5639         estimate D2E/DX2                !
 ! A23   A(7,8,10)             117.3064         estimate D2E/DX2                !
 ! A24   A(9,8,10)             122.9922         estimate D2E/DX2                !
 ! A25   A(6,9,8)              117.3944         estimate D2E/DX2                !
 ! A26   A(6,9,32)             115.0236         estimate D2E/DX2                !
 ! A27   A(8,9,32)             127.5648         estimate D2E/DX2                !
 ! A28   A(8,10,18)            118.042          estimate D2E/DX2                !
 ! A29   A(8,10,23)            124.5436         estimate D2E/DX2                !
 ! A30   A(18,10,23)           117.4097         estimate D2E/DX2                !
 ! A31   A(12,11,18)           115.5202         estimate D2E/DX2                !
 ! A32   A(12,11,22)           122.7205         estimate D2E/DX2                !
 ! A33   A(18,11,22)           121.7534         estimate D2E/DX2                !
 ! A34   A(7,12,11)            120.8614         estimate D2E/DX2                !
 ! A35   A(7,12,13)            121.162          estimate D2E/DX2                !
 ! A36   A(11,12,13)           117.9699         estimate D2E/DX2                !
 ! A37   A(12,13,14)           120.9948         estimate D2E/DX2                !
 ! A38   A(12,13,16)           117.8401         estimate D2E/DX2                !
 ! A39   A(14,13,16)           121.1642         estimate D2E/DX2                !
 ! A40   A(4,14,13)            119.5003         estimate D2E/DX2                !
 ! A41   A(4,14,15)            118.9169         estimate D2E/DX2                !
 ! A42   A(13,14,15)           121.5811         estimate D2E/DX2                !
 ! A43   A(10,18,11)           126.0753         estimate D2E/DX2                !
 ! A44   A(10,18,24)           115.7508         estimate D2E/DX2                !
 ! A45   A(11,18,24)           118.1737         estimate D2E/DX2                !
 ! A46   A(1,19,5)             125.0856         estimate D2E/DX2                !
 ! A47   A(1,19,28)            116.2868         estimate D2E/DX2                !
 ! A48   A(5,19,28)            118.6276         estimate D2E/DX2                !
 ! A49   A(18,24,25)           109.8574         estimate D2E/DX2                !
 ! A50   A(18,24,26)           109.8979         estimate D2E/DX2                !
 ! A51   A(18,24,27)           107.5355         estimate D2E/DX2                !
 ! A52   A(25,24,26)           108.1108         estimate D2E/DX2                !
 ! A53   A(25,24,27)           110.8301         estimate D2E/DX2                !
 ! A54   A(26,24,27)           110.6124         estimate D2E/DX2                !
 ! A55   A(19,28,29)           109.6906         estimate D2E/DX2                !
 ! A56   A(19,28,30)           109.8136         estimate D2E/DX2                !
 ! A57   A(19,28,31)           107.7461         estimate D2E/DX2                !
 ! A58   A(29,28,30)           108.2991         estimate D2E/DX2                !
 ! A59   A(29,28,31)           110.6959         estimate D2E/DX2                !
 ! A60   A(30,28,31)           110.5924         estimate D2E/DX2                !
 ! A61   A(9,32,33)            130.8761         estimate D2E/DX2                !
 ! A62   A(9,32,34)            118.8131         estimate D2E/DX2                !
 ! A63   A(33,32,34)           110.0557         estimate D2E/DX2                !
 ! A64   A(32,33,35)           113.5382         estimate D2E/DX2                !
 ! A65   A(32,33,36)           122.7838         estimate D2E/DX2                !
 ! A66   A(35,33,36)           123.6762         estimate D2E/DX2                !
 ! A67   A(32,34,37)            92.6159         estimate D2E/DX2                !
 ! A68   A(33,35,37)           114.4635         estimate D2E/DX2                !
 ! A69   A(33,35,38)           126.4815         estimate D2E/DX2                !
 ! A70   A(37,35,38)           119.055          estimate D2E/DX2                !
 ! A71   A(34,37,35)           109.3207         estimate D2E/DX2                !
 ! A72   A(34,37,39)           122.9348         estimate D2E/DX2                !
 ! A73   A(35,37,39)           127.7291         estimate D2E/DX2                !
 ! A74   A(35,38,40)           117.4767         estimate D2E/DX2                !
 ! A75   A(37,39,41)           127.6273         estimate D2E/DX2                !
 ! A76   A(37,39,42)           123.0295         estimate D2E/DX2                !
 ! A77   A(41,39,42)           109.3432         estimate D2E/DX2                !
 ! A78   A(38,40,43)           105.9874         estimate D2E/DX2                !
 ! A79   A(38,40,44)           111.2343         estimate D2E/DX2                !
 ! A80   A(38,40,45)           111.2101         estimate D2E/DX2                !
 ! A81   A(43,40,44)           109.3042         estimate D2E/DX2                !
 ! A82   A(43,40,45)           109.6769         estimate D2E/DX2                !
 ! A83   A(44,40,45)           109.3606         estimate D2E/DX2                !
 ! A84   A(39,41,46)           114.1723         estimate D2E/DX2                !
 ! A85   A(39,41,47)           119.2715         estimate D2E/DX2                !
 ! A86   A(46,41,47)           126.556          estimate D2E/DX2                !
 ! A87   A(39,42,48)            91.7874         estimate D2E/DX2                !
 ! A88   A(41,46,48)           111.8995         estimate D2E/DX2                !
 ! A89   A(41,46,49)           124.4661         estimate D2E/DX2                !
 ! A90   A(48,46,49)           123.6345         estimate D2E/DX2                !
 ! A91   A(41,47,50)           117.9997         estimate D2E/DX2                !
 ! A92   A(42,48,46)           112.7976         estimate D2E/DX2                !
 ! A93   A(42,48,51)           119.7852         estimate D2E/DX2                !
 ! A94   A(46,48,51)           127.4168         estimate D2E/DX2                !
 ! A95   A(47,50,52)           111.2357         estimate D2E/DX2                !
 ! A96   A(47,50,53)           106.0489         estimate D2E/DX2                !
 ! A97   A(47,50,54)           111.2547         estimate D2E/DX2                !
 ! A98   A(52,50,53)           109.3363         estimate D2E/DX2                !
 ! A99   A(52,50,54)           109.37           estimate D2E/DX2                !
 ! A100  A(53,50,54)           109.5256         estimate D2E/DX2                !
 ! D1    D(19,1,2,3)             0.1578         estimate D2E/DX2                !
 ! D2    D(19,1,2,6)          -178.6792         estimate D2E/DX2                !
 ! D3    D(20,1,2,3)          -179.8231         estimate D2E/DX2                !
 ! D4    D(20,1,2,6)             1.3399         Frozen                          !
 ! D5    D(2,1,19,5)            -0.124          estimate D2E/DX2                !
 ! D6    D(2,1,19,28)          179.8267         estimate D2E/DX2                !
 ! D7    D(20,1,19,5)          179.8575         estimate D2E/DX2                !
 ! D8    D(20,1,19,28)          -0.1919         estimate D2E/DX2                !
 ! D9    D(1,2,3,4)              0.0571         estimate D2E/DX2                !
 ! D10   D(1,2,3,7)            179.5453         estimate D2E/DX2                !
 ! D11   D(6,2,3,4)            178.8851         estimate D2E/DX2                !
 ! D12   D(6,2,3,7)             -1.6266         estimate D2E/DX2                !
 ! D13   D(1,2,6,9)            178.625          estimate D2E/DX2                !
 ! D14   D(1,2,6,17)             1.3881         estimate D2E/DX2                !
 ! D15   D(3,2,6,9)             -0.2173         estimate D2E/DX2                !
 ! D16   D(3,2,6,17)          -177.4541         estimate D2E/DX2                !
 ! D17   D(2,3,4,5)             -0.3074         estimate D2E/DX2                !
 ! D18   D(2,3,4,14)           179.3968         estimate D2E/DX2                !
 ! D19   D(7,3,4,5)           -179.7837         estimate D2E/DX2                !
 ! D20   D(7,3,4,14)            -0.0795         estimate D2E/DX2                !
 ! D21   D(2,3,7,8)              1.0523         estimate D2E/DX2                !
 ! D22   D(2,3,7,12)          -178.712          estimate D2E/DX2                !
 ! D23   D(4,3,7,8)           -179.4626         estimate D2E/DX2                !
 ! D24   D(4,3,7,12)             0.7731         estimate D2E/DX2                !
 ! D25   D(3,4,5,19)             0.3343         estimate D2E/DX2                !
 ! D26   D(3,4,5,21)          -179.7799         estimate D2E/DX2                !
 ! D27   D(14,4,5,19)         -179.3729         estimate D2E/DX2                !
 ! D28   D(14,4,5,21)            0.5129         estimate D2E/DX2                !
 ! D29   D(3,4,14,13)           -0.4559         estimate D2E/DX2                !
 ! D30   D(3,4,14,15)         -179.9937         estimate D2E/DX2                !
 ! D31   D(5,4,14,13)          179.252          estimate D2E/DX2                !
 ! D32   D(5,4,14,15)           -0.2858         estimate D2E/DX2                !
 ! D33   D(4,5,19,1)            -0.1141         estimate D2E/DX2                !
 ! D34   D(4,5,19,28)          179.9364         estimate D2E/DX2                !
 ! D35   D(21,5,19,1)          179.9992         estimate D2E/DX2                !
 ! D36   D(21,5,19,28)           0.0496         estimate D2E/DX2                !
 ! D37   D(2,6,9,8)              2.5984         estimate D2E/DX2                !
 ! D38   D(2,6,9,32)          -176.0103         estimate D2E/DX2                !
 ! D39   D(17,6,9,8)           179.77           estimate D2E/DX2                !
 ! D40   D(17,6,9,32)            1.1613         estimate D2E/DX2                !
 ! D41   D(3,7,8,9)              1.3551         estimate D2E/DX2                !
 ! D42   D(3,7,8,10)          -174.5099         estimate D2E/DX2                !
 ! D43   D(12,7,8,9)          -178.8921         estimate D2E/DX2                !
 ! D44   D(12,7,8,10)            5.2428         estimate D2E/DX2                !
 ! D45   D(3,7,12,11)          178.0768         estimate D2E/DX2                !
 ! D46   D(3,7,12,13)           -0.9621         estimate D2E/DX2                !
 ! D47   D(8,7,12,11)           -1.685          estimate D2E/DX2                !
 ! D48   D(8,7,12,13)          179.2761         estimate D2E/DX2                !
 ! D49   D(7,8,9,6)             -3.0809         estimate D2E/DX2                !
 ! D50   D(7,8,9,32)           175.3285         estimate D2E/DX2                !
 ! D51   D(10,8,9,6)           172.5381         estimate D2E/DX2                !
 ! D52   D(10,8,9,32)           -9.0525         estimate D2E/DX2                !
 ! D53   D(7,8,10,18)           -4.7549         estimate D2E/DX2                !
 ! D54   D(7,8,10,23)          174.4235         estimate D2E/DX2                !
 ! D55   D(9,8,10,18)          179.5335         estimate D2E/DX2                !
 ! D56   D(9,8,10,23)           -1.2882         Frozen                          !
 ! D57   D(6,9,32,33)           13.461          estimate D2E/DX2                !
 ! D58   D(6,9,32,34)         -160.1005         estimate D2E/DX2                !
 ! D59   D(8,9,32,33)         -164.9805         Frozen                          !
 ! D60   D(8,9,32,34)           21.458          estimate D2E/DX2                !
 ! D61   D(8,10,18,11)           0.7189         estimate D2E/DX2                !
 ! D62   D(8,10,18,24)        -179.4089         estimate D2E/DX2                !
 ! D63   D(23,10,18,11)       -178.5188         estimate D2E/DX2                !
 ! D64   D(23,10,18,24)          1.3535         estimate D2E/DX2                !
 ! D65   D(18,11,12,7)          -2.3856         estimate D2E/DX2                !
 ! D66   D(18,11,12,13)        176.6833         estimate D2E/DX2                !
 ! D67   D(22,11,12,7)         178.4862         estimate D2E/DX2                !
 ! D68   D(22,11,12,13)         -2.445          estimate D2E/DX2                !
 ! D69   D(12,11,18,10)          2.8444         estimate D2E/DX2                !
 ! D70   D(12,11,18,24)       -177.0251         estimate D2E/DX2                !
 ! D71   D(22,11,18,10)       -178.0181         estimate D2E/DX2                !
 ! D72   D(22,11,18,24)          2.1124         estimate D2E/DX2                !
 ! D73   D(7,12,13,14)           0.461          estimate D2E/DX2                !
 ! D74   D(7,12,13,16)        -179.8781         estimate D2E/DX2                !
 ! D75   D(11,12,13,14)       -178.6049         estimate D2E/DX2                !
 ! D76   D(11,12,13,16)          1.056          estimate D2E/DX2                !
 ! D77   D(12,13,14,4)           0.2708         estimate D2E/DX2                !
 ! D78   D(12,13,14,15)        179.7958         estimate D2E/DX2                !
 ! D79   D(16,13,14,4)        -179.3788         estimate D2E/DX2                !
 ! D80   D(16,13,14,15)          0.1463         estimate D2E/DX2                !
 ! D81   D(10,18,24,25)        -59.609          Frozen                          !
 ! D82   D(10,18,24,26)         59.2209         estimate D2E/DX2                !
 ! D83   D(10,18,24,27)        179.6858         estimate D2E/DX2                !
 ! D84   D(11,18,24,25)        120.2739         estimate D2E/DX2                !
 ! D85   D(11,18,24,26)       -120.8962         estimate D2E/DX2                !
 ! D86   D(11,18,24,27)         -0.4313         estimate D2E/DX2                !
 ! D87   D(1,19,28,29)         -58.1407         estimate D2E/DX2                !
 ! D88   D(1,19,28,30)          60.7668         Frozen                          !
 ! D89   D(1,19,28,31)        -178.7139         estimate D2E/DX2                !
 ! D90   D(5,19,28,29)         121.8132         estimate D2E/DX2                !
 ! D91   D(5,19,28,30)        -119.2792         estimate D2E/DX2                !
 ! D92   D(5,19,28,31)           1.2401         estimate D2E/DX2                !
 ! D93   D(9,32,33,35)        -174.2227         estimate D2E/DX2                !
 ! D94   D(9,32,33,36)           6.2496         estimate D2E/DX2                !
 ! D95   D(34,32,33,35)         -0.2266         estimate D2E/DX2                !
 ! D96   D(34,32,33,36)       -179.7544         estimate D2E/DX2                !
 ! D97   D(9,32,34,37)         175.3687         estimate D2E/DX2                !
 ! D98   D(33,32,34,37)          0.5474         estimate D2E/DX2                !
 ! D99   D(32,33,35,37)         -0.3362         estimate D2E/DX2                !
 ! D100  D(32,33,35,38)        179.7313         estimate D2E/DX2                !
 ! D101  D(36,33,35,37)        179.1868         estimate D2E/DX2                !
 ! D102  D(36,33,35,38)         -0.7457         estimate D2E/DX2                !
 ! D103  D(32,34,37,35)         -0.7194         estimate D2E/DX2                !
 ! D104  D(32,34,37,39)        177.9552         estimate D2E/DX2                !
 ! D105  D(33,35,37,34)          0.7334         estimate D2E/DX2                !
 ! D106  D(33,35,37,39)       -177.8601         estimate D2E/DX2                !
 ! D107  D(38,35,37,34)       -179.3287         estimate D2E/DX2                !
 ! D108  D(38,35,37,39)          2.0778         estimate D2E/DX2                !
 ! D109  D(33,35,38,40)          6.4907         Frozen                          !
 ! D110  D(37,35,38,40)       -173.4391         estimate D2E/DX2                !
 ! D111  D(34,37,39,41)          2.7987         estimate D2E/DX2                !
 ! D112  D(34,37,39,42)       -177.1987         estimate D2E/DX2                !
 ! D113  D(35,37,39,41)       -178.7828         estimate D2E/DX2                !
 ! D114  D(35,37,39,42)          1.2198         estimate D2E/DX2                !
 ! D115  D(35,38,40,43)        175.4771         estimate D2E/DX2                !
 ! D116  D(35,38,40,44)        -65.8207         estimate D2E/DX2                !
 ! D117  D(35,38,40,45)         56.34           estimate D2E/DX2                !
 ! D118  D(37,39,41,46)        179.9975         estimate D2E/DX2                !
 ! D119  D(37,39,41,47)         -0.1166         estimate D2E/DX2                !
 ! D120  D(42,39,41,46)         -0.0048         estimate D2E/DX2                !
 ! D121  D(42,39,41,47)        179.881          estimate D2E/DX2                !
 ! D122  D(37,39,42,48)        179.9679         estimate D2E/DX2                !
 ! D123  D(41,39,42,48)         -0.03           estimate D2E/DX2                !
 ! D124  D(39,41,46,48)          0.0494         estimate D2E/DX2                !
 ! D125  D(39,41,46,49)        179.9904         estimate D2E/DX2                !
 ! D126  D(47,41,46,48)       -179.8266         estimate D2E/DX2                !
 ! D127  D(47,41,46,49)          0.1143         estimate D2E/DX2                !
 ! D128  D(39,41,47,50)        178.351          estimate D2E/DX2                !
 ! D129  D(46,41,47,50)         -1.7786         Frozen                          !
 ! D130  D(39,42,48,46)          0.0595         estimate D2E/DX2                !
 ! D131  D(39,42,48,51)        179.8295         estimate D2E/DX2                !
 ! D132  D(41,46,48,42)         -0.0721         estimate D2E/DX2                !
 ! D133  D(41,46,48,51)       -179.8208         estimate D2E/DX2                !
 ! D134  D(49,46,48,42)        179.9864         estimate D2E/DX2                !
 ! D135  D(49,46,48,51)          0.2377         estimate D2E/DX2                !
 ! D136  D(41,47,50,52)         61.9904         estimate D2E/DX2                !
 ! D137  D(41,47,50,53)       -179.2311         estimate D2E/DX2                !
 ! D138  D(41,47,50,54)        -60.2147         estimate D2E/DX2                !
 --------------------------------------------------------------------------------
 Trust Radius=3.00D-01 FncErr=1.00D-07 GrdErr=1.00D-06 EigMax=2.50D+02 EigMin=1.00D-04
 Number of steps in this run=    307 maximum allowed number of steps=    324.
 GradGradGradGradGradGradGradGradGradGradGradGradGradGradGradGradGradGrad

 Stoichiometry    C26H18N2O6S2
 Framework group  C1[X(C26H18N2O6S2)]
 Deg. of freedom   156
 Full point group                 C1      NOp   1
 Largest Abelian subgroup         C1      NOp   1
 Largest concise Abelian subgroup C1      NOp   1
                         Standard orientation:                         
 ---------------------------------------------------------------------
 Center     Atomic      Atomic             Coordinates (Angstroms)
 Number     Number       Type             X           Y           Z
 ---------------------------------------------------------------------
      1          6           0       -3.825626   -2.549011    0.310315
      2          6           0       -2.944997   -1.362032    0.150058
      3          6           0       -3.500107   -0.067990    0.014916
      4          6           0       -4.900623    0.113632    0.031711
      5          6           0       -5.811011   -1.052429    0.184704
      6          6           0       -1.584531   -1.534873    0.110071
      7          6           0       -2.618879    1.042070   -0.126473
      8          6           0       -1.199835    0.856565   -0.154915
      9          6           0       -0.662264   -0.456771   -0.069574
     10          6           0       -0.351819    2.079298   -0.179348
     11          6           0       -2.372939    3.542221   -0.338649
     12          6           0       -3.210608    2.328514   -0.231478
     13          6           0       -4.590118    2.488373   -0.216943
     14          6           0       -5.442413    1.385158   -0.088476
     15          1           0       -6.519720    1.499224   -0.072747
     16          1           0       -4.984210    3.494985   -0.302611
     17          1           0       -1.213643   -2.550977    0.175902
     18          7           0       -0.994516    3.329197   -0.276060
     19          7           0       -5.205873   -2.314019    0.315719
     20          8           0       -3.392337   -3.686201    0.433693
     21          8           0       -7.026390   -0.928024    0.198949
     22          8           0       -2.846843    4.665327   -0.457890
     23          8           0        0.870489    2.078094   -0.106699
     24          6           0       -0.110446    4.499645   -0.309680
     25          1           0        0.492855    4.534611    0.598706
     26          1           0        0.566725    4.429916   -1.164826
     27          1           0       -0.738840    5.382330   -0.390361
     28          6           0       -6.065118   -3.493119    0.470533
     29          1           0       -5.861160   -4.204983   -0.332104
     30          1           0       -5.854651   -3.981745    1.423699
     31          1           0       -7.098001   -3.157504    0.432933
     32          6           0        0.741053   -0.854397   -0.175873
     33          6           0        1.316786   -2.094149   -0.376411
     34         16           0        1.991622    0.350581    0.131906
     35          6           0        2.722664   -2.081814   -0.291608
     36          1           0        0.738415   -2.979289   -0.585243
     37          6           0        3.276034   -0.824505   -0.029130
     38          8           0        3.551454   -3.150663   -0.439772
     39          6           0        4.665502   -0.480426    0.072239
     40          6           0        2.967135   -4.383538   -0.846518
     41          6           0        5.213980    0.768218    0.356785
     42         16           0        5.963764   -1.648852   -0.160511
     43          1           0        3.796829   -5.078173   -0.984563
     44          1           0        2.290151   -4.775433   -0.077082
     45          1           0        2.419066   -4.270778   -1.789782
     46          6           0        6.638144    0.786562    0.387279
     47          8           0        4.386330    1.824142    0.570999
     48          6           0        7.170155   -0.446535    0.125103
     49          1           0        7.234710    1.665319    0.591293
     50          6           0        4.974318    3.078919    0.894716
     51          1           0        8.217432   -0.716369    0.087771
     52          1           0        5.614162    3.440168    0.079592
     53          1           0        4.145889    3.771923    1.037205
     54          1           0        5.562291    3.015949    1.817890
 ---------------------------------------------------------------------
 Rotational constants (GHZ):           0.1740368           0.0584502           0.0442705
 Standard basis: 6-311+G(d,p) (5D, 7F)
 There are   952 symmetry adapted cartesian basis functions of A   symmetry.
 There are   916 symmetry adapted basis functions of A   symmetry.
   916 basis functions,  1468 primitive gaussians,   952 cartesian basis functions
   134 alpha electrons      134 beta electrons
       nuclear repulsion energy      4126.2357160499 Hartrees.
 NAtoms=   54 NActive=   54 NUniq=   54 SFac= 1.00D+00 NAtFMM=   60 NAOKFM=F Big=F
 Integral buffers will be    131072 words long.
 Raffenetti 2 integral format.
 Two-electron integral symmetry is turned on.
 One-electron integrals computed using PRISM.
 NBasis=   916 RedAO= T EigKep=  1.25D-06  NBF=   916
 NBsUse=   901 1.00D-06 EigRej=  6.66D-07 NBFU=   901
 ExpMin= 4.05D-02 ExpMax= 9.34D+04 ExpMxC= 3.17D+03 IAcc=3 IRadAn=         5 AccDes= 0.00D+00
 Harris functional with IExCor=  402 and IRadAn=       5 diagonalized for initial guess.
 HarFok:  IExCor=  402 AccDes= 0.00D+00 IRadAn=         5 IDoV= 1 UseB2=F ITyADJ=14
 ICtDFT=  3500011 ScaDFX=  1.000000  1.000000  1.000000  1.000000
 FoFCou: FMM=F IPFlag=           0 FMFlag=      100000 FMFlg1=           0
         NFxFlg=           0 DoJE=T BraDBF=F KetDBF=T FulRan=T
         wScrn=  0.000000 ICntrl=       500 IOpCl=  0 I1Cent=   200000004 NGrid=           0
         NMat0=    1 NMatS0=      1 NMatT0=    0 NMatD0=    1 NMtDS0=    0 NMtDT0=    0
 Petite list used in FoFCou.
 Requested convergence on RMS density matrix=1.00D-08 within 128 cycles.
 Requested convergence on MAX density matrix=1.00D-06.
 Requested convergence on             energy=1.00D-06.
 No special actions if energy rises.
 SCF Done:  E(RB3LYP) =  -2359.29987139     A.U. after   17 cycles
            NFock= 17  Conv=0.85D-08     -V/T= 2.0030

 **********************************************************************

            Population analysis using the SCF Density.

 **********************************************************************

 Orbital symmetries:
       Occupied  (A) (A) (A) (A) (A) (A) (A) (A) (A) (A) (A) (A)
                 (A) (A) (A) (A) (A) (A) (A) (A) (A) (A) (A) (A)
                 (A) (A) (A) (A) (A) (A) (A) (A) (A) (A) (A) (A)
                 (A) (A) (A) (A) (A) (A) (A) (A) (A) (A) (A) (A)
                 (A) (A) (A) (A) (A) (A) (A) (A) (A) (A) (A) (A)
                 (A) (A) (A) (A) (A) (A) (A) (A) (A) (A) (A) (A)
                 (A) (A) (A) (A) (A) (A) (A) (A) (A) (A) (A) (A)
                 (A) (A) (A) (A) (A) (A) (A) (A) (A) (A) (A) (A)
                 (A) (A) (A) (A) (A) (A) (A) (A) (A) (A) (A) (A)
                 (A) (A) (A) (A) (A) (A) (A) (A) (A) (A) (A) (A)
                 (A) (A) (A) (A) (A) (A) (A) (A) (A) (A) (A) (A)
                 (A) (A)
       Virtual   (A) (A) (A) (A) (A) (A) (A) (A) (A) (A) (A) (A)
                 (A) (A) (A) (A) (A) (A) (A) (A) (A) (A) (A) (A)
                 (A) (A) (A) (A) (A) (A) (A) (A) (A) (A) (A) (A)
                 (A) (A) (A) (A) (A) (A) (A) (A) (A) (A) (A) (A)
                 (A) (A) (A) (A) (A) (A) (A) (A) (A) (A) (A) (A)
                 (A) (A) (A) (A) (A) (A) (A) (A) (A) (A) (A) (A)
                 (A) (A) (A) (A) (A) (A) (A) (A) (A) (A) (A) (A)
                 (A) (A) (A) (A) (A) (A) (A) (A) (A) (A) (A) (A)
                 (A) (A) (A) (A) (A) (A) (A) (A) (A) (A) (A) (A)
                 (A) (A) (A) (A) (A) (A) (A) (A) (A) (A) (A) (A)
                 (A) (A) (A) (A) (A) (A) (A) (A) (A) (A) (A) (A)
                 (A) (A) (A) (A) (A) (A) (A) (A) (A) (A) (A) (A)
                 (A) (A) (A) (A) (A) (A) (A) (A) (A) (A) (A) (A)
                 (A) (A) (A) (A) (A) (A) (A) (A) (A) (A) (A) (A)
                 (A) (A) (A) (A) (A) (A) (A) (A) (A) (A) (A) (A)
                 (A) (A) (A) (A) (A) (A) (A) (A) (A) (A) (A) (A)
                 (A) (A) (A) (A) (A) (A) (A) (A) (A) (A) (A) (A)
                 (A) (A) (A) (A) (A) (A) (A) (A) (A) (A) (A) (A)
                 (A) (A) (A) (A) (A) (A) (A) (A) (A) (A) (A) (A)
                 (A) (A) (A) (A) (A) (A) (A) (A) (A) (A) (A) (A)
                 (A) (A) (A) (A) (A) (A) (A) (A) (A) (A) (A) (A)
                 (A) (A) (A) (A) (A) (A) (A) (A) (A) (A) (A) (A)
                 (A) (A) (A) (A) (A) (A) (A) (A) (A) (A) (A) (A)
                 (A) (A) (A) (A) (A) (A) (A) (A) (A) (A) (A) (A)
                 (A) (A) (A) (A) (A) (A) (A) (A) (A) (A) (A) (A)
                 (A) (A) (A) (A) (A) (A) (A) (A) (A) (A) (A) (A)
                 (A) (A) (A) (A) (A) (A) (A) (A) (A) (A) (A) (A)
                 (A) (A) (A) (A) (A) (A) (A) (A) (A) (A) (A) (A)
                 (A) (A) (A) (A) (A) (A) (A) (A) (A) (A) (A) (A)
                 (A) (A) (A) (A) (A) (A) (A) (A) (A) (A) (A) (A)
                 (A) (A) (A) (A) (A) (A) (A) (A) (A) (A) (A) (A)
                 (A) (A) (A) (A) (A) (A) (A) (A) (A) (A) (A) (A)
                 (A) (A) (A) (A) (A) (A) (A) (A) (A) (A) (A) (A)
                 (A) (A) (A) (A) (A) (A) (A) (A) (A) (A) (A) (A)
                 (A) (A) (A) (A) (A) (A) (A) (A) (A) (A) (A) (A)
                 (A) (A) (A) (A) (A) (A) (A) (A) (A) (A) (A) (A)
                 (A) (A) (A) (A) (A) (A) (A) (A) (A) (A) (A) (A)
                 (A) (A) (A) (A) (A) (A) (A) (A) (A) (A) (A) (A)
                 (A) (A) (A) (A) (A) (A) (A) (A) (A) (A) (A) (A)
                 (A) (A) (A) (A) (A) (A) (A) (A) (A) (A) (A) (A)
                 (A) (A) (A) (A) (A) (A) (A) (A) (A) (A) (A) (A)
                 (A) (A) (A) (A) (A) (A) (A) (A) (A) (A) (A) (A)
                 (A) (A) (A) (A) (A) (A) (A) (A) (A) (A) (A) (A)
                 (A) (A) (A) (A) (A) (A) (A) (A) (A) (A) (A) (A)
                 (A) (A) (A) (A) (A) (A) (A) (A) (A) (A) (A) (A)
                 (A) (A) (A) (A) (A) (A) (A) (A) (A) (A) (A) (A)
                 (A) (A) (A) (A) (A) (A) (A) (A) (A) (A) (A) (A)
                 (A) (A) (A) (A) (A) (A) (A) (A) (A) (A) (A) (A)
                 (A) (A) (A) (A) (A) (A) (A) (A) (A) (A) (A) (A)
                 (A) (A) (A) (A) (A) (A) (A) (A) (A) (A) (A) (A)
                 (A) (A) (A) (A) (A) (A) (A) (A) (A) (A) (A) (A)
                 (A) (A) (A) (A) (A) (A) (A) (A) (A) (A) (A) (A)
                 (A) (A) (A) (A) (A) (A) (A) (A) (A) (A) (A) (A)
                 (A) (A) (A) (A) (A) (A) (A) (A) (A) (A) (A) (A)
                 (A) (A) (A) (A) (A) (A) (A) (A) (A) (A) (A) (A)
                 (A) (A) (A) (A) (A) (A) (A) (A) (A) (A) (A) (A)
                 (A) (A) (A) (A) (A) (A) (A) (A) (A) (A) (A) (A)
                 (A) (A) (A) (A) (A) (A) (A) (A) (A) (A) (A) (A)
                 (A) (A) (A) (A) (A) (A) (A) (A) (A) (A) (A) (A)
                 (A) (A) (A) (A) (A) (A) (A) (A) (A) (A) (A) (A)
                 (A) (A) (A) (A) (A) (A) (A) (A) (A) (A) (A) (A)
                 (A) (A) (A) (A) (A) (A) (A) (A) (A) (A) (A) (A)
                 (A) (A) (A) (A) (A) (A) (A) (A) (A) (A) (A) (A)
                 (A) (A) (A) (A) (A) (A) (A) (A) (A) (A) (A)
 The electronic state is 1-A.
 Alpha  occ. eigenvalues --  -88.88196 -88.87097 -19.16868 -19.16827 -19.13182
 Alpha  occ. eigenvalues --  -19.12397 -19.12336 -19.11579 -14.38623 -14.38531
 Alpha  occ. eigenvalues --  -10.31349 -10.30979 -10.30925 -10.30271 -10.24756
 Alpha  occ. eigenvalues --  -10.24411 -10.24061 -10.23697 -10.23626 -10.22916
 Alpha  occ. eigenvalues --  -10.22576 -10.22370 -10.22253 -10.22226 -10.22071
 Alpha  occ. eigenvalues --  -10.21710 -10.21602 -10.21423 -10.21047 -10.21014
 Alpha  occ. eigenvalues --  -10.20989 -10.20820 -10.20678 -10.20550 -10.19048
 Alpha  occ. eigenvalues --  -10.18921  -7.96746  -7.95555  -5.93052  -5.92668
 Alpha  occ. eigenvalues --   -5.92319  -5.91883  -5.91446  -5.91076  -1.09586
 Alpha  occ. eigenvalues --   -1.08446  -1.08380  -1.08353  -1.06509  -1.06496
 Alpha  occ. eigenvalues --   -0.96246  -0.96103  -0.92207  -0.89818  -0.88485
 Alpha  occ. eigenvalues --   -0.86349  -0.84100  -0.80233  -0.78306  -0.77404
 Alpha  occ. eigenvalues --   -0.76271  -0.75209  -0.75135  -0.72984  -0.72579
 Alpha  occ. eigenvalues --   -0.71791  -0.70318  -0.68723  -0.67178  -0.65898
 Alpha  occ. eigenvalues --   -0.65385  -0.64997  -0.60664  -0.59752  -0.58688
 Alpha  occ. eigenvalues --   -0.57534  -0.56735  -0.56269  -0.55372  -0.54598
 Alpha  occ. eigenvalues --   -0.53725  -0.51751  -0.50799  -0.50194  -0.49762
 Alpha  occ. eigenvalues --   -0.49486  -0.49127  -0.48554  -0.48536  -0.48276
 Alpha  occ. eigenvalues --   -0.48129  -0.47874  -0.46704  -0.46188  -0.46127
 Alpha  occ. eigenvalues --   -0.45488  -0.45067  -0.44418  -0.44189  -0.43763
 Alpha  occ. eigenvalues --   -0.42990  -0.42726  -0.42106  -0.41902  -0.41729
 Alpha  occ. eigenvalues --   -0.41510  -0.41265  -0.41219  -0.40697  -0.40030
 Alpha  occ. eigenvalues --   -0.39616  -0.38927  -0.38630  -0.37460  -0.36927
 Alpha  occ. eigenvalues --   -0.36274  -0.35690  -0.34179  -0.33940  -0.33631
 Alpha  occ. eigenvalues --   -0.33321  -0.32204  -0.30576  -0.30053  -0.29481
 Alpha  occ. eigenvalues --   -0.29260  -0.29223  -0.28579  -0.27283  -0.26282
 Alpha  occ. eigenvalues --   -0.25813  -0.24575  -0.23215  -0.19311
 Alpha virt. eigenvalues --   -0.12905  -0.07355  -0.06660  -0.04695  -0.03670
 Alpha virt. eigenvalues --   -0.00890  -0.00466  -0.00378  -0.00050   0.00528
 Alpha virt. eigenvalues --    0.00943   0.00956   0.01285   0.01899   0.01963
 Alpha virt. eigenvalues --    0.02213   0.02534   0.02781   0.03047   0.03470
 Alpha virt. eigenvalues --    0.03519   0.03772   0.04038   0.04607   0.04752
 Alpha virt. eigenvalues --    0.04830   0.05018   0.05406   0.05652   0.06042
 Alpha virt. eigenvalues --    0.06124   0.06409   0.06812   0.06940   0.07055
 Alpha virt. eigenvalues --    0.07595   0.07619   0.07874   0.08341   0.08408
 Alpha virt. eigenvalues --    0.08627   0.08886   0.09119   0.09392   0.09692
 Alpha virt. eigenvalues --    0.09803   0.10006   0.10205   0.10474   0.10784
 Alpha virt. eigenvalues --    0.11009   0.11404   0.11548   0.12040   0.12480
 Alpha virt. eigenvalues --    0.12605   0.12738   0.13179   0.13291   0.13531
 Alpha virt. eigenvalues --    0.13642   0.13758   0.14012   0.14338   0.14450
 Alpha virt. eigenvalues --    0.14750   0.14852   0.14984   0.15229   0.15455
 Alpha virt. eigenvalues --    0.15553   0.15852   0.16074   0.16239   0.16776
 Alpha virt. eigenvalues --    0.16866   0.17118   0.17429   0.17496   0.17797
 Alpha virt. eigenvalues --    0.17874   0.18070   0.18235   0.18513   0.18637
 Alpha virt. eigenvalues --    0.19090   0.19309   0.19437   0.19579   0.19787
 Alpha virt. eigenvalues --    0.19884   0.19994   0.20160   0.20478   0.20580
 Alpha virt. eigenvalues --    0.20844   0.21019   0.21109   0.21304   0.21338
 Alpha virt. eigenvalues --    0.21544   0.21864   0.22311   0.22474   0.22609
 Alpha virt. eigenvalues --    0.22821   0.22914   0.23285   0.23694   0.23779
 Alpha virt. eigenvalues --    0.23868   0.24104   0.24320   0.24424   0.24716
 Alpha virt. eigenvalues --    0.24877   0.24938   0.25133   0.25142   0.25503
 Alpha virt. eigenvalues --    0.25677   0.25897   0.26239   0.26327   0.26516
 Alpha virt. eigenvalues --    0.26656   0.26818   0.27090   0.27126   0.27474
 Alpha virt. eigenvalues --    0.27522   0.27791   0.28023   0.28319   0.28598
 Alpha virt. eigenvalues --    0.28816   0.28855   0.29176   0.29199   0.29422
 Alpha virt. eigenvalues --    0.29636   0.30019   0.30636   0.30936   0.31123
 Alpha virt. eigenvalues --    0.31327   0.31529   0.31935   0.32095   0.32311
 Alpha virt. eigenvalues --    0.32575   0.32639   0.32778   0.33149   0.33613
 Alpha virt. eigenvalues --    0.34051   0.34204   0.34344   0.34687   0.34835
 Alpha virt. eigenvalues --    0.35283   0.35664   0.35813   0.36169   0.36391
 Alpha virt. eigenvalues --    0.36900   0.37208   0.37667   0.37887   0.37939
 Alpha virt. eigenvalues --    0.38144   0.39023   0.39220   0.39771   0.40017
 Alpha virt. eigenvalues --    0.40669   0.41207   0.41768   0.42160   0.42761
 Alpha virt. eigenvalues --    0.43005   0.43264   0.43671   0.43939   0.44402
 Alpha virt. eigenvalues --    0.44635   0.44656   0.44952   0.45458   0.45752
 Alpha virt. eigenvalues --    0.45867   0.45964   0.46399   0.46698   0.47293
 Alpha virt. eigenvalues --    0.48160   0.48344   0.48652   0.49164   0.49636
 Alpha virt. eigenvalues --    0.49857   0.50076   0.50813   0.51312   0.51971
 Alpha virt. eigenvalues --    0.52470   0.52998   0.53323   0.53829   0.54293
 Alpha virt. eigenvalues --    0.54394   0.54827   0.55214   0.55454   0.55630
 Alpha virt. eigenvalues --    0.56048   0.56444   0.56672   0.57024   0.57482
 Alpha virt. eigenvalues --    0.57932   0.58111   0.58770   0.59275   0.59330
 Alpha virt. eigenvalues --    0.59904   0.60029   0.60866   0.61421   0.61509
 Alpha virt. eigenvalues --    0.61819   0.62310   0.62686   0.63010   0.63632
 Alpha virt. eigenvalues --    0.63888   0.64079   0.64192   0.64650   0.65083
 Alpha virt. eigenvalues --    0.65260   0.65417   0.65630   0.66173   0.66488
 Alpha virt. eigenvalues --    0.66843   0.67199   0.67391   0.68136   0.68197
 Alpha virt. eigenvalues --    0.68657   0.69328   0.69725   0.69922   0.70325
 Alpha virt. eigenvalues --    0.70562   0.71114   0.71425   0.71879   0.72041
 Alpha virt. eigenvalues --    0.72258   0.73083   0.73182   0.73397   0.74159
 Alpha virt. eigenvalues --    0.74551   0.74825   0.74977   0.75314   0.75996
 Alpha virt. eigenvalues --    0.76078   0.76404   0.76893   0.77466   0.77550
 Alpha virt. eigenvalues --    0.77930   0.78443   0.79054   0.79640   0.80112
 Alpha virt. eigenvalues --    0.80364   0.81105   0.81709   0.82199   0.82875
 Alpha virt. eigenvalues --    0.83722   0.84162   0.85012   0.85195   0.86699
 Alpha virt. eigenvalues --    0.87018   0.87308   0.88274   0.88434   0.88564
 Alpha virt. eigenvalues --    0.88921   0.89483   0.90828   0.91105   0.92078
 Alpha virt. eigenvalues --    0.92329   0.92380   0.92530   0.93203   0.93611
 Alpha virt. eigenvalues --    0.94051   0.94141   0.94507   0.94993   0.95577
 Alpha virt. eigenvalues --    0.95967   0.96910   0.97155   0.97284   0.97793
 Alpha virt. eigenvalues --    0.98248   0.98870   0.99420   0.99949   1.00562
 Alpha virt. eigenvalues --    1.01121   1.01272   1.01737   1.02599   1.02811
 Alpha virt. eigenvalues --    1.02980   1.03318   1.04049   1.04246   1.04747
 Alpha virt. eigenvalues --    1.05142   1.05728   1.05991   1.06364   1.06547
 Alpha virt. eigenvalues --    1.07025   1.08144   1.08346   1.09015   1.09340
 Alpha virt. eigenvalues --    1.09662   1.10292   1.10314   1.10642   1.11289
 Alpha virt. eigenvalues --    1.11780   1.13344   1.13489   1.14859   1.15254
 Alpha virt. eigenvalues --    1.15428   1.17086   1.17656   1.17830   1.18431
 Alpha virt. eigenvalues --    1.18892   1.19865   1.20110   1.20768   1.21549
 Alpha virt. eigenvalues --    1.22647   1.22992   1.24214   1.25196   1.25522
 Alpha virt. eigenvalues --    1.25839   1.26263   1.26657   1.27067   1.27750
 Alpha virt. eigenvalues --    1.28536   1.29716   1.30284   1.30940   1.31311
 Alpha virt. eigenvalues --    1.32727   1.33237   1.34149   1.35196   1.35304
 Alpha virt. eigenvalues --    1.36191   1.37510   1.37612   1.38224   1.40471
 Alpha virt. eigenvalues --    1.41259   1.41826   1.42270   1.42586   1.42728
 Alpha virt. eigenvalues --    1.42973   1.43051   1.43555   1.43886   1.44559
 Alpha virt. eigenvalues --    1.45057   1.45258   1.45626   1.45743   1.46277
 Alpha virt. eigenvalues --    1.47055   1.47781   1.48182   1.49185   1.49579
 Alpha virt. eigenvalues --    1.50403   1.51062   1.51330   1.52301   1.52693
 Alpha virt. eigenvalues --    1.53687   1.54088   1.54134   1.54537   1.55140
 Alpha virt. eigenvalues --    1.55321   1.55689   1.55910   1.56319   1.57313
 Alpha virt. eigenvalues --    1.58446   1.58534   1.59622   1.60983   1.61288
 Alpha virt. eigenvalues --    1.62463   1.62860   1.63397   1.63996   1.65192
 Alpha virt. eigenvalues --    1.66184   1.66613   1.66764   1.67329   1.67434
 Alpha virt. eigenvalues --    1.68225   1.68792   1.68896   1.69562   1.69910
 Alpha virt. eigenvalues --    1.70135   1.70704   1.70942   1.71071   1.71781
 Alpha virt. eigenvalues --    1.72980   1.73780   1.74404   1.75038   1.75622
 Alpha virt. eigenvalues --    1.76588   1.76985   1.77059   1.77979   1.78788
 Alpha virt. eigenvalues --    1.79394   1.79865   1.80231   1.81335   1.82593
 Alpha virt. eigenvalues --    1.83700   1.84328   1.84850   1.86258   1.86696
 Alpha virt. eigenvalues --    1.86790   1.87413   1.87717   1.87858   1.88757
 Alpha virt. eigenvalues --    1.89063   1.89617   1.90490   1.91002   1.91775
 Alpha virt. eigenvalues --    1.92396   1.92920   1.94008   1.94643   1.95689
 Alpha virt. eigenvalues --    1.96069   1.96461   1.97349   1.98150   1.99652
 Alpha virt. eigenvalues --    2.00714   2.01001   2.01625   2.01879   2.02315
 Alpha virt. eigenvalues --    2.03112   2.03492   2.03802   2.04210   2.04540
 Alpha virt. eigenvalues --    2.06042   2.06303   2.06729   2.08199   2.08336
 Alpha virt. eigenvalues --    2.08981   2.09684   2.10777   2.11766   2.12140
 Alpha virt. eigenvalues --    2.13365   2.13433   2.14669   2.14783   2.15332
 Alpha virt. eigenvalues --    2.15971   2.17051   2.17795   2.18643   2.19758
 Alpha virt. eigenvalues --    2.19987   2.20279   2.20748   2.22198   2.23064
 Alpha virt. eigenvalues --    2.24677   2.25422   2.26265   2.27958   2.28589
 Alpha virt. eigenvalues --    2.32367   2.33005   2.34228   2.35055   2.36342
 Alpha virt. eigenvalues --    2.37681   2.39533   2.39969   2.41080   2.42785
 Alpha virt. eigenvalues --    2.43009   2.43512   2.44017   2.45744   2.46183
 Alpha virt. eigenvalues --    2.46509   2.46811   2.47480   2.48105   2.49608
 Alpha virt. eigenvalues --    2.50225   2.51800   2.52253   2.52569   2.52718
 Alpha virt. eigenvalues --    2.52885   2.53230   2.53566   2.54714   2.56254
 Alpha virt. eigenvalues --    2.56952   2.58704   2.58948   2.59273   2.59759
 Alpha virt. eigenvalues --    2.62538   2.63554   2.63903   2.65154   2.66107
 Alpha virt. eigenvalues --    2.67240   2.67616   2.68066   2.68420   2.68539
 Alpha virt. eigenvalues --    2.69412   2.69753   2.70387   2.71219   2.71736
 Alpha virt. eigenvalues --    2.72905   2.72989   2.73948   2.74283   2.75151
 Alpha virt. eigenvalues --    2.75954   2.76821   2.78130   2.79198   2.80559
 Alpha virt. eigenvalues --    2.80781   2.81741   2.82056   2.83883   2.84188
 Alpha virt. eigenvalues --    2.84427   2.84752   2.85482   2.85743   2.86794
 Alpha virt. eigenvalues --    2.87466   2.87954   2.88548   2.88889   2.89653
 Alpha virt. eigenvalues --    2.91610   2.91974   2.93100   2.93598   2.94705
 Alpha virt. eigenvalues --    2.94930   2.96286   2.96681   2.97327   2.98524
 Alpha virt. eigenvalues --    3.00278   3.01509   3.02599   3.03704   3.04458
 Alpha virt. eigenvalues --    3.05237   3.05846   3.08858   3.09092   3.10340
 Alpha virt. eigenvalues --    3.11500   3.12747   3.14234   3.14634   3.15353
 Alpha virt. eigenvalues --    3.17194   3.18136   3.18687   3.20459   3.22025
 Alpha virt. eigenvalues --    3.23096   3.23472   3.24014   3.24694   3.27430
 Alpha virt. eigenvalues --    3.28530   3.30614   3.31917   3.32166   3.33245
 Alpha virt. eigenvalues --    3.33990   3.34464   3.34907   3.35163   3.37912
 Alpha virt. eigenvalues --    3.38758   3.40324   3.41858   3.42389   3.43275
 Alpha virt. eigenvalues --    3.44518   3.45630   3.46601   3.48801   3.49724
 Alpha virt. eigenvalues --    3.51053   3.54063   3.55351   3.57931   3.59651
 Alpha virt. eigenvalues --    3.60252   3.61580   3.64935   3.66333   3.66598
 Alpha virt. eigenvalues --    3.69833   3.71112   3.72134   3.72376   3.75869
 Alpha virt. eigenvalues --    3.76104   3.76454   3.80371   3.82851   3.84687
 Alpha virt. eigenvalues --    3.85439   3.86379   3.89290   3.90950   3.92866
 Alpha virt. eigenvalues --    3.93111   3.94074   3.97384   4.01506   4.03973
 Alpha virt. eigenvalues --    4.05153   4.08503   4.10793   4.13130   4.14630
 Alpha virt. eigenvalues --    4.20758   4.24090   4.25643   4.27430   4.35554
 Alpha virt. eigenvalues --    4.40448   4.41129   4.53334   4.70817   4.84358
 Alpha virt. eigenvalues --    4.85814   4.87513   4.90382   5.02042   5.02588
 Alpha virt. eigenvalues --    5.03918   5.05419   5.05718   5.06394   5.11337
 Alpha virt. eigenvalues --    5.13542   5.25024   5.27171   5.29583   5.36535
 Alpha virt. eigenvalues --    5.43030   5.43836   5.75913   5.76660   5.80372
 Alpha virt. eigenvalues --    5.80800   5.81972   5.84882   8.03006   8.11170
 Alpha virt. eigenvalues --   17.29278  17.33751  17.50257  17.53364  17.60980
 Alpha virt. eigenvalues --   17.73568  23.48877  23.58425  23.71561  23.78609
 Alpha virt. eigenvalues --   23.82107  23.82643  23.84768  23.86548  23.86820
 Alpha virt. eigenvalues --   23.88183  23.89580  23.90060  23.91427  23.92968
 Alpha virt. eigenvalues --   23.94546  23.95371  23.96008  23.98340  24.00637
 Alpha virt. eigenvalues --   24.02236  24.03170  24.05190  24.12232  24.13055
 Alpha virt. eigenvalues --   24.14259  24.14402  35.56361  35.59526  49.96336
 Alpha virt. eigenvalues --   49.97928  50.01975  50.04103  50.05573  50.07110
 Alpha virt. eigenvalues --  189.20394 189.29438
          Condensed to atoms (all electrons):
 Mulliken charges:
               1
     1  C    0.386407
     2  C   -0.101585
     3  C    0.190697
     4  C    0.195368
     5  C    0.302914
     6  C   -0.273657
     7  C    0.096216
     8  C    0.239239
     9  C    0.601251
    10  C   -0.208186
    11  C    0.095985
    12  C    0.199355
    13  C   -0.498497
    14  C   -0.659655
    15  H    0.158872
    16  H    0.160783
    17  H    0.157880
    18  N   -0.161977
    19  N   -0.134515
    20  O   -0.285446
    21  O   -0.271362
    22  O   -0.272873
    23  O   -0.052654
    24  C   -0.196019
    25  H    0.173625
    26  H    0.176725
    27  H    0.189547
    28  C   -0.200070
    29  H    0.173705
    30  H    0.174066
    31  H    0.183119
    32  C   -0.100946
    33  C   -0.395521
    34  S    0.078778
    35  C   -0.771404
    36  H    0.130574
    37  C    0.266286
    38  O   -0.120735
    39  C    0.839395
    40  C   -0.238361
    41  C   -0.035397
    42  S   -0.272710
    43  H    0.167023
    44  H    0.147574
    45  H    0.147639
    46  C   -0.485450
    47  O   -0.092433
    48  C   -0.300705
    49  H    0.131917
    50  C   -0.250311
    51  H    0.160733
    52  H    0.143696
    53  H    0.167541
    54  H    0.143558
 Sum of Mulliken charges =  -0.00000
 Mulliken charges with hydrogens summed into heavy atoms:
               1
     1  C    0.386407
     2  C   -0.101585
     3  C    0.190697
     4  C    0.195368
     5  C    0.302914
     6  C   -0.115776
     7  C    0.096216
     8  C    0.239239
     9  C    0.601251
    10  C   -0.208186
    11  C    0.095985
    12  C    0.199355
    13  C   -0.337714
    14  C   -0.500782
    18  N   -0.161977
    19  N   -0.134515
    20  O   -0.285446
    21  O   -0.271362
    22  O   -0.272873
    23  O   -0.052654
    24  C    0.343878
    28  C    0.330819
    32  C   -0.100946
    33  C   -0.264947
    34  S    0.078778
    35  C   -0.771404
    37  C    0.266286
    38  O   -0.120735
    39  C    0.839395
    40  C    0.223874
    41  C   -0.035397
    42  S   -0.272710
    46  C   -0.353533
    47  O   -0.092433
    48  C   -0.139971
    50  C    0.204484
 Electronic spatial extent (au):  <R**2>=          22189.2995
 Charge=             -0.0000 electrons
 Dipole moment (field-independent basis, Debye):
    X=              4.4887    Y=             -0.2678    Z=             -0.0924  Tot=              4.4976
 Quadrupole moment (field-independent basis, Debye-Ang):
   XX=           -216.5246   YY=           -213.6776   ZZ=           -222.4088
   XY=             13.9691   XZ=              1.5149   YZ=              8.3362
 Traceless Quadrupole moment (field-independent basis, Debye-Ang):
   XX=              1.0124   YY=              3.8594   ZZ=             -4.8718
   XY=             13.9691   XZ=              1.5149   YZ=              8.3362
 Octapole moment (field-independent basis, Debye-Ang**2):
  XXX=            360.1537  YYY=            -63.5333  ZZZ=              2.5938  XYY=            123.3022
  XXY=             30.9522  XXZ=             20.8398  XZZ=             -9.5189  YZZ=              0.4738
  YYZ=             -3.7276  XYZ=             18.8304
 Hexadecapole moment (field-independent basis, Debye-Ang**3):
 XXXX=         -21807.2175 YYYY=          -7571.6121 ZZZZ=           -433.6185 XXXY=            432.8773
 XXXZ=            132.4686 YYYX=            347.4830 YYYZ=            171.5769 ZZZX=            -17.5311
 ZZZY=              0.6059 XXYY=          -4579.6927 XXZZ=          -3859.4490 YYZZ=          -1296.6178
 XXYZ=            106.8523 YYXZ=            -43.9059 ZZXY=             62.1482
 N-N= 4.126235716050D+03 E-N=-1.379275726256D+04  KE= 2.352128414529D+03
 Calling FoFJK, ICntrl=      2127 FMM=F ISym2X=0 I1Cent= 0 IOpClX= 0 NMat=1 NMatS=1 NMatT=0.
 ***** Axes restored to original set *****
 -------------------------------------------------------------------
 Center     Atomic                   Forces (Hartrees/Bohr)
 Number     Number              X              Y              Z
 -------------------------------------------------------------------
      1        6           0.003664274   -0.005310639    0.000290554
      2        6           0.006359910    0.000206410   -0.000968272
      3        6          -0.003866977    0.001334985    0.000058182
      4        6           0.003513399    0.001198340    0.000459972
      5        6          -0.006032701   -0.001245783   -0.000036728
      6        6          -0.003054125   -0.002019971   -0.007676990
      7        6          -0.001719330    0.000574205    0.001423519
      8        6          -0.000327008    0.009009855    0.008332685
      9        6           0.014550914   -0.005651045   -0.005885791
     10        6          -0.028989818   -0.009530361   -0.004813634
     11        6          -0.006493265    0.001604160   -0.000541995
     12        6           0.002634111    0.001056049    0.000435032
     13        6          -0.002301336   -0.003375116   -0.000639708
     14        6          -0.000235506    0.003397111    0.000495942
     15        1           0.000650192    0.000817039    0.000027047
     16        1           0.000576328   -0.001160824   -0.000301730
     17        1          -0.000809895    0.001173229    0.002698083
     18        7           0.005348352   -0.002099114   -0.002116960
     19        7           0.001586536    0.001141532   -0.000095768
     20        8          -0.005467291    0.005799416    0.000523178
     21        8           0.007611227    0.002035200    0.000145800
     22        8           0.006344957   -0.004463198   -0.000238809
     23        8          -0.048011797    0.020526447    0.003035369
     24        6           0.001061964    0.002580794   -0.000912191
     25        1          -0.000806060   -0.000007186   -0.000090250
     26        1          -0.001374024   -0.000453912    0.001031124
     27        1           0.000978145   -0.000015462    0.000113445
     28        6          -0.000441558   -0.001983480   -0.000673754
     29        1          -0.000696269    0.000370583    0.000984052
     30        1          -0.000467502    0.000392398   -0.000500631
     31        1           0.000943921   -0.000352412   -0.000021399
     32        6          -0.017259566    0.023461316    0.014850621
     33        6           0.006115947   -0.006753831   -0.000522437
     34       16           0.066503855   -0.009376504   -0.003168097
     35        6           0.001502378   -0.004198656   -0.003031882
     36        1           0.000779956   -0.001704099   -0.001057081
     37        6          -0.003178831   -0.013220957    0.001657798
     38        8          -0.002234073   -0.002021862   -0.004051995
     39        6          -0.000300898   -0.002084863    0.000238675
     40        6           0.001755620   -0.002187180   -0.000592492
     41        6          -0.000828559    0.000530350    0.000276263
     42       16           0.000843911    0.002084272    0.001067859
     43        1          -0.001493183    0.000007161    0.000101337
     44        1           0.000538154    0.001167162   -0.000323668
     45        1           0.001095910    0.000350820    0.000806557
     46        6          -0.001653186   -0.000389747   -0.000315246
     47        8           0.003667882    0.000332584    0.000536535
     48        6           0.001031833   -0.000369678   -0.000283277
     49        1           0.000103361   -0.000951130   -0.000436879
     50        6           0.000963742    0.002209943   -0.000053456
     51        1          -0.001836803   -0.000441593   -0.000015714
     52        1          -0.000741597   -0.001084642    0.000586239
     53        1           0.000615343   -0.000558960   -0.000275910
     54        1          -0.000720963   -0.000349156   -0.000533124
 -------------------------------------------------------------------
 Cartesian Forces:  Max     0.066503855 RMS     0.008115550

 GradGradGradGradGradGradGradGradGradGradGradGradGradGradGradGradGradGrad
 Berny optimization.
 FormGI is forming the generalized inverse of G from B-inverse, IUseBI=4.
 Internal  Forces:  Max     0.202719159 RMS     0.023966312
 Search for a local minimum.
 Step number   1 out of a maximum of  307
 All quantities printed in internal units (Hartrees-Bohrs-Radians)
 Mixed Optimization -- RFO/linear search
 Second derivative matrix not updated -- first step.
 ITU=  0
     Eigenvalues ---    0.01155   0.01172   0.01239   0.01297   0.01379
     Eigenvalues ---    0.01387   0.01397   0.01410   0.01452   0.01470
     Eigenvalues ---    0.01512   0.01544   0.01567   0.01588   0.01625
     Eigenvalues ---    0.01652   0.01679   0.01696   0.01715   0.01719
     Eigenvalues ---    0.01721   0.01763   0.01799   0.01845   0.01972
     Eigenvalues ---    0.02039   0.02048   0.02077   0.02087   0.02098
     Eigenvalues ---    0.02133   0.02149   0.02162   0.02179   0.02197
     Eigenvalues ---    0.02251   0.04601   0.04620   0.07665   0.07667
     Eigenvalues ---    0.10068   0.10071   0.10633   0.10637   0.15983
     Eigenvalues ---    0.15999   0.15999   0.16000   0.16000   0.16000
     Eigenvalues ---    0.16000   0.16000   0.16000   0.16000   0.16000
     Eigenvalues ---    0.16000   0.16000   0.16000   0.16000   0.16000
     Eigenvalues ---    0.16000   0.16000   0.22530   0.22583   0.23517
     Eigenvalues ---    0.23582   0.24513   0.24747   0.24865   0.24906
     Eigenvalues ---    0.24952   0.24985   0.24986   0.24988   0.24992
     Eigenvalues ---    0.24994   0.24996   0.24997   0.24998   0.24998
     Eigenvalues ---    0.25000   0.25000   0.25000   0.25000   0.25000
     Eigenvalues ---    0.25000   0.25000   0.25000   0.25000   0.25000
     Eigenvalues ---    0.28839   0.28855   0.30108   0.32077   0.32582
     Eigenvalues ---    0.32774   0.33104   0.33787   0.33969   0.33990
     Eigenvalues ---    0.34045   0.34092   0.34353   0.34466   0.34577
     Eigenvalues ---    0.34629   0.34693   0.34714   0.34879   0.35198
     Eigenvalues ---    0.35218   0.35468   0.35553   0.35582   0.35739
     Eigenvalues ---    0.35809   0.36078   0.36083   0.36265   0.36393
     Eigenvalues ---    0.36662   0.39348   0.40194   0.40276   0.40602
     Eigenvalues ---    0.40651   0.41524   0.41912   0.42009   0.42300
     Eigenvalues ---    0.42761   0.43455   0.43905   0.44092   0.44594
     Eigenvalues ---    0.44683   0.45014   0.45405   0.46251   0.47305
     Eigenvalues ---    0.47572   0.49309   0.49674   0.52823   0.53226
     Eigenvalues ---    0.93281   0.93432   0.93989   0.945851000.00000
     Eigenvalues --- 1000.000001000.000001000.000001000.000001000.00000
     Eigenvalues --- 1000.000001000.000001000.000001000.000001000.00000
     Eigenvalues --- 1000.000001000.000001000.000001000.000001000.00000
     Eigenvalues --- 1000.000001000.000001000.000001000.000001000.00000
     Eigenvalues --- 1000.000001000.000001000.000001000.000001000.00000
     Eigenvalues --- 1000.000001000.000001000.000001000.000001000.00000
     Eigenvalues --- 1000.000001000.000001000.000001000.000001000.00000
     Eigenvalues --- 1000.000001000.000001000.000001000.000001000.00000
     Eigenvalues --- 1000.000001000.000001000.000001000.000001000.00000
     Eigenvalues --- 1000.000001000.000001000.000001000.000001000.00000
     Eigenvalues --- 1000.000001000.000001000.000001000.000001000.00000
     Eigenvalues --- 1000.000001000.000001000.000001000.000001000.00000
     Eigenvalues --- 1000.000001000.000001000.000001000.000001000.00000
     Eigenvalues --- 1000.000001000.000001000.000001000.000001000.00000
     Eigenvalues --- 1000.000001000.000001000.000001000.000001000.00000
     Eigenvalues --- 1000.000001000.000001000.000001000.000001000.00000
     Eigenvalues --- 1000.000001000.000001000.000001000.000001000.00000
     Eigenvalues --- 1000.000001000.000001000.000001000.000001000.00000
     Eigenvalues --- 1000.000001000.000001000.000001000.000001000.00000
     Eigenvalues --- 1000.000001000.000001000.000001000.000001000.00000
     Eigenvalues --- 1000.000001000.000001000.000001000.000001000.00000
     Eigenvalues --- 1000.000001000.000001000.000001000.000001000.00000
     Eigenvalues --- 1000.000001000.000001000.000001000.000001000.00000
     Eigenvalues --- 1000.000001000.000001000.000001000.000001000.00000
     Eigenvalues --- 1000.000001000.000001000.000001000.000001000.00000
     Eigenvalues --- 1000.000001000.000001000.000001000.000001000.00000
     Eigenvalues --- 1000.000001000.000001000.000001000.000001000.00000
     Eigenvalues --- 1000.000001000.000001000.000001000.000001000.00000
     Eigenvalues --- 1000.000001000.000001000.000001000.000001000.00000
     Eigenvalues --- 1000.000001000.00000
 RFO step:  Lambda=-3.01398880D-01 EMin= 1.15532237D-02
 Linear search not attempted -- first point.
 Maximum step size (   0.300) exceeded in Quadratic search.
    -- Step size scaled by   0.413
 Iteration  1 RMS(Cart)=  0.30934289 RMS(Int)=  0.00796094
 Iteration  2 RMS(Cart)=  0.13901368 RMS(Int)=  0.00120980
 Iteration  3 RMS(Cart)=  0.00424690 RMS(Int)=  0.00017606
 Iteration  4 RMS(Cart)=  0.00000108 RMS(Int)=  0.00017606
 Iteration  5 RMS(Cart)=  0.00000000 RMS(Int)=  0.00017606
 Iteration  1 RMS(Cart)=  0.00010231 RMS(Int)=  0.00001565
 Iteration  2 RMS(Cart)=  0.00005610 RMS(Int)=  0.00001747
 Iteration  3 RMS(Cart)=  0.00003102 RMS(Int)=  0.00001976
 Iteration  4 RMS(Cart)=  0.00001725 RMS(Int)=  0.00002131
 Iteration  5 RMS(Cart)=  0.00000963 RMS(Int)=  0.00002224
 Iteration  6 RMS(Cart)=  0.00000539 RMS(Int)=  0.00002278
 Iteration  7 RMS(Cart)=  0.00000303 RMS(Int)=  0.00002309
 Iteration  8 RMS(Cart)=  0.00000170 RMS(Int)=  0.00002326
 Iteration  9 RMS(Cart)=  0.00000096 RMS(Int)=  0.00002336
 Variable       Old X    -DE/DX   Delta X   Delta X   Delta X     New X
                                 (Linear)    (Quad)   (Total)
    R1        2.80935   0.00009   0.00000  -0.00022  -0.00021   2.80914
    R2        2.64584  -0.00742   0.00000  -0.00413  -0.00412   2.64172
    R3        2.31147  -0.00798   0.00000  -0.00265  -0.00265   2.30882
    R4        2.67311  -0.01960   0.00000  -0.01251  -0.01259   2.66052
    R5        2.59267  -0.02751   0.00000  -0.01571  -0.01573   2.57694
    R6        2.66894   0.00366   0.00000   0.00209   0.00207   2.67102
    R7        2.69164   0.00667   0.00000   0.00498   0.00494   2.69658
    R8        2.81049  -0.00099   0.00000  -0.00036  -0.00037   2.81013
    R9        2.62173  -0.01075   0.00000  -0.00636  -0.00638   2.61535
   R10        2.65570  -0.00659   0.00000  -0.00350  -0.00349   2.65220
   R11        2.30889  -0.00786   0.00000  -0.00260  -0.00260   2.30629
   R12        2.70248   0.00291   0.00000   0.00110   0.00115   2.70363
   R13        2.04786  -0.00177   0.00000  -0.00111  -0.00111   2.04674
   R14        2.70495   0.04730   0.00000   0.03074   0.03082   2.73577
   R15        2.68322   0.01390   0.00000   0.00935   0.00934   2.69256
   R16        2.68655   0.09311   0.00000   0.05449   0.05456   2.74111
   R17        2.81233   0.01761   0.00000   0.01194   0.01203   2.82436
   R18        2.76359   0.05126   0.00000   0.03166   0.03166   2.79526
   R19        2.66221  -0.01125   0.00000  -0.00703  -0.00700   2.65520
   R20        2.31391  -0.03532   0.00000  -0.01180  -0.01180   2.30211
   R21        2.79415  -0.02345   0.00000  -0.01549  -0.01559   2.77856
   R22        2.63842  -0.02606   0.00000  -0.01528  -0.01534   2.62307
   R23        2.31456  -0.00768   0.00000  -0.00257  -0.00257   2.31200
   R24        2.62448  -0.00146   0.00000  -0.00073  -0.00072   2.62376
   R25        2.64561  -0.01764   0.00000  -0.01023  -0.01025   2.63536
   R26        2.04921  -0.00125   0.00000  -0.00078  -0.00078   2.04843
   R27        2.04741  -0.00088   0.00000  -0.00055  -0.00055   2.04686
   R28        2.77259   0.00201   0.00000   0.00125   0.00125   2.77384
   R29        2.77252   0.00169   0.00000   0.00105   0.00105   2.77357
   R30        2.06176  -0.00050   0.00000  -0.00032  -0.00032   2.06144
   R31        2.06551  -0.00170   0.00000  -0.00109  -0.00109   2.06443
   R32        2.05322  -0.00084   0.00000  -0.00053  -0.00053   2.05269
   R33        2.06368  -0.00124   0.00000  -0.00079  -0.00079   2.06288
   R34        2.06281  -0.00077   0.00000  -0.00049  -0.00049   2.06232
   R35        2.05355  -0.00090   0.00000  -0.00057  -0.00057   2.05298
   R36        2.61074   0.02220   0.00000   0.01190   0.01194   2.62268
   R37        3.33290   0.01981   0.00000   0.01446   0.01450   3.34740
   R38        2.66166  -0.01522   0.00000  -0.00875  -0.00875   2.65291
   R39        2.03670   0.00184   0.00000   0.00115   0.00115   2.03784
   R40        3.30377   0.00340   0.00000   0.00219   0.00215   3.30592
   R41        2.64288  -0.01463   0.00000  -0.00850  -0.00854   2.63434
   R42        2.57120   0.00185   0.00000   0.00092   0.00092   2.57211
   R43        2.71180   0.00042   0.00000   0.00024   0.00024   2.71204
   R44        2.69036   0.00052   0.00000   0.00030   0.00030   2.69066
   R45        2.63270   0.00118   0.00000   0.00066   0.00066   2.63336
   R46        3.32982   0.00035   0.00000   0.00029   0.00029   3.33011
   R47        2.06142  -0.00144   0.00000  -0.00092  -0.00092   2.06050
   R48        2.07347  -0.00125   0.00000  -0.00080  -0.00080   2.07267
   R49        2.07254  -0.00123   0.00000  -0.00079  -0.00079   2.07175
   R50        2.69212  -0.00171   0.00000  -0.00099  -0.00099   2.69113
   R51        2.56743  -0.00299   0.00000  -0.00148  -0.00148   2.56595
   R52        3.26355  -0.00238   0.00000  -0.00159  -0.00159   3.26197
   R53        2.58575  -0.00128   0.00000  -0.00069  -0.00069   2.58506
   R54        2.04381  -0.00101   0.00000  -0.00063  -0.00063   2.04318
   R55        2.68912   0.00007   0.00000   0.00004   0.00004   2.68916
   R56        2.04492  -0.00189   0.00000  -0.00118  -0.00118   2.04374
   R57        2.07382  -0.00139   0.00000  -0.00090  -0.00090   2.07293
   R58        2.05872  -0.00077   0.00000  -0.00049  -0.00049   2.05823
   R59        2.07175  -0.00083   0.00000  -0.00053  -0.00053   2.07122
    A1        2.03797   0.00166   0.00000   0.00050   0.00049   2.03846
    A2        2.14521  -0.00115   0.00000  -0.00049  -0.00049   2.14472
    A3        2.10001  -0.00050   0.00000  -0.00001  -0.00000   2.10001
    A4        2.10395   0.00949   0.00000   0.00818   0.00819   2.11214
    A5        2.08282  -0.01176   0.00000  -0.00655  -0.00650   2.07633
    A6        2.09624   0.00225   0.00000  -0.00164  -0.00170   2.09454
    A7        2.10093  -0.01198   0.00000  -0.00971  -0.00969   2.09124
    A8        2.07104  -0.00062   0.00000  -0.00173  -0.00183   2.06921
    A9        2.11118   0.01261   0.00000   0.01145   0.01153   2.12271
   A10        2.10296   0.00621   0.00000   0.00502   0.00500   2.10796
   A11        2.09911   0.00450   0.00000   0.00294   0.00291   2.10202
   A12        2.08110  -0.01070   0.00000  -0.00795  -0.00791   2.07319
   A13        2.03739   0.00026   0.00000   0.00046   0.00044   2.03783
   A14        2.12972   0.00046   0.00000   0.00022   0.00023   2.12995
   A15        2.11607  -0.00072   0.00000  -0.00067  -0.00066   2.11541
   A16        2.15098   0.04190   0.00000   0.03047   0.03052   2.18150
   A17        2.04399  -0.02050   0.00000  -0.01482  -0.01484   2.02915
   A18        2.08722  -0.02126   0.00000  -0.01552  -0.01555   2.07167
   A19        2.11101   0.01679   0.00000   0.01298   0.01292   2.12392
   A20        2.04385  -0.03067   0.00000  -0.02419  -0.02419   2.01965
   A21        2.12832   0.01389   0.00000   0.01122   0.01128   2.13961
   A22        2.08678  -0.03067   0.00000  -0.01995  -0.01994   2.06684
   A23        2.04738  -0.05717   0.00000  -0.04172  -0.04159   2.00579
   A24        2.14662   0.08821   0.00000   0.06205   0.06191   2.20853
   A25        2.04892  -0.02963   0.00000  -0.02017  -0.02000   2.02892
   A26        2.00754  -0.17320   0.00000  -0.13062  -0.13069   1.87685
   A27        2.22643   0.20272   0.00000   0.15074   0.15065   2.37708
   A28        2.06022   0.03264   0.00000   0.02507   0.02520   2.08543
   A29        2.17370   0.02832   0.00000   0.02087   0.02080   2.19449
   A30        2.04919  -0.06096   0.00000  -0.04589  -0.04596   2.00322
   A31        2.01621  -0.00922   0.00000  -0.00835  -0.00852   2.00769
   A32        2.14188   0.00583   0.00000   0.00510   0.00518   2.14706
   A33        2.12500   0.00339   0.00000   0.00326   0.00335   2.12834
   A34        2.10943   0.01062   0.00000   0.00852   0.00840   2.11783
   A35        2.11468   0.01561   0.00000   0.01270   0.01276   2.12743
   A36        2.05896  -0.02621   0.00000  -0.02120  -0.02114   2.03782
   A37        2.11176   0.00372   0.00000   0.00286   0.00282   2.11458
   A38        2.05670  -0.00140   0.00000  -0.00102  -0.00100   2.05570
   A39        2.11471  -0.00232   0.00000  -0.00184  -0.00182   2.11289
   A40        2.08567  -0.00572   0.00000  -0.00572  -0.00579   2.07989
   A41        2.07549   0.00344   0.00000   0.00338   0.00341   2.07891
   A42        2.12199   0.00229   0.00000   0.00235   0.00238   2.12437
   A43        2.20043   0.00943   0.00000   0.00542   0.00539   2.20582
[...]
 Alpha  occ. eigenvalues --   -0.57338  -0.56745  -0.56468  -0.55304  -0.54703
 Alpha  occ. eigenvalues --   -0.53608  -0.51393  -0.50126  -0.49909  -0.49366
 Alpha  occ. eigenvalues --   -0.49250  -0.49001  -0.48687  -0.48658  -0.48301
 Alpha  occ. eigenvalues --   -0.48158  -0.47097  -0.46542  -0.46114  -0.45923
 Alpha  occ. eigenvalues --   -0.45599  -0.44922  -0.44309  -0.44045  -0.43490
 Alpha  occ. eigenvalues --   -0.43029  -0.42465  -0.42235  -0.41924  -0.41676
 Alpha  occ. eigenvalues --   -0.41611  -0.41204  -0.40988  -0.40416  -0.39711
 Alpha  occ. eigenvalues --   -0.39443  -0.39107  -0.38908  -0.37538  -0.37137
 Alpha  occ. eigenvalues --   -0.36480  -0.36141  -0.34488  -0.34193  -0.33676
 Alpha  occ. eigenvalues --   -0.33276  -0.31756  -0.30703  -0.30289  -0.29635
 Alpha  occ. eigenvalues --   -0.29201  -0.28613  -0.28522  -0.27767  -0.27256
 Alpha  occ. eigenvalues --   -0.25920  -0.24961  -0.24429  -0.19619
 Alpha virt. eigenvalues --   -0.12732  -0.07653  -0.06235  -0.04284  -0.03707
 Alpha virt. eigenvalues --   -0.00826  -0.00490  -0.00358  -0.00023   0.00401
 Alpha virt. eigenvalues --    0.00961   0.01095   0.01511   0.01898   0.01998
 Alpha virt. eigenvalues --    0.02237   0.02365   0.02760   0.02839   0.03254
 Alpha virt. eigenvalues --    0.03580   0.03726   0.04046   0.04284   0.04468
 Alpha virt. eigenvalues --    0.04608   0.04835   0.05204   0.05641   0.06039
 Alpha virt. eigenvalues --    0.06104   0.06226   0.06588   0.06698   0.07147
 Alpha virt. eigenvalues --    0.07313   0.07411   0.07842   0.07944   0.08052
 Alpha virt. eigenvalues --    0.08434   0.08662   0.08965   0.09087   0.09586
 Alpha virt. eigenvalues --    0.09856   0.09950   0.10289   0.10421   0.10683
 Alpha virt. eigenvalues --    0.11007   0.11141   0.11637   0.11890   0.11970
 Alpha virt. eigenvalues --    0.12325   0.12792   0.12992   0.13151   0.13429
 Alpha virt. eigenvalues --    0.13590   0.13779   0.14124   0.14332   0.14490
 Alpha virt. eigenvalues --    0.14802   0.14857   0.14960   0.15267   0.15370
 Alpha virt. eigenvalues --    0.15630   0.15687   0.16094   0.16484   0.16510
 Alpha virt. eigenvalues --    0.16618   0.17039   0.17224   0.17360   0.17705
 Alpha virt. eigenvalues --    0.17900   0.18006   0.18248   0.18509   0.18687
 Alpha virt. eigenvalues --    0.18736   0.19108   0.19331   0.19533   0.19641
 Alpha virt. eigenvalues --    0.19928   0.20079   0.20149   0.20365   0.20697
 Alpha virt. eigenvalues --    0.20764   0.20906   0.21015   0.21270   0.21569
 Alpha virt. eigenvalues --    0.21667   0.21922   0.22331   0.22464   0.22720
 Alpha virt. eigenvalues --    0.23030   0.23102   0.23250   0.23408   0.23529
 Alpha virt. eigenvalues --    0.23811   0.24024   0.24124   0.24339   0.24589
 Alpha virt. eigenvalues --    0.24795   0.24953   0.25176   0.25381   0.25609
 Alpha virt. eigenvalues --    0.25757   0.26066   0.26314   0.26371   0.26450
 Alpha virt. eigenvalues --    0.26651   0.26834   0.26886   0.27259   0.27282
 Alpha virt. eigenvalues --    0.27470   0.27665   0.28080   0.28350   0.28488
 Alpha virt. eigenvalues --    0.28798   0.29027   0.29301   0.29581   0.29619
 Alpha virt. eigenvalues --    0.30024   0.30092   0.30324   0.30647   0.30912
 Alpha virt. eigenvalues --    0.31201   0.31502   0.31707   0.32039   0.32162
 Alpha virt. eigenvalues --    0.32364   0.32450   0.32900   0.33087   0.33688
 Alpha virt. eigenvalues --    0.33949   0.34104   0.34198   0.34415   0.35021
 Alpha virt. eigenvalues --    0.35275   0.35488   0.35650   0.35826   0.36068
 Alpha virt. eigenvalues --    0.36444   0.37295   0.37539   0.37728   0.38115
 Alpha virt. eigenvalues --    0.38452   0.38758   0.38790   0.38917   0.39846
 Alpha virt. eigenvalues --    0.39959   0.40478   0.41043   0.41422   0.42009
 Alpha virt. eigenvalues --    0.42430   0.42638   0.43095   0.43459   0.43569
 Alpha virt. eigenvalues --    0.43851   0.44010   0.44372   0.44779   0.45377
 Alpha virt. eigenvalues --    0.45655   0.45872   0.46270   0.46437   0.47238
 Alpha virt. eigenvalues --    0.47806   0.48002   0.48503   0.48861   0.49491
 Alpha virt. eigenvalues --    0.49604   0.49799   0.50647   0.50819   0.51726
 Alpha virt. eigenvalues --    0.52409   0.53058   0.53391   0.53834   0.54216
 Alpha virt. eigenvalues --    0.54573   0.54866   0.55134   0.55164   0.55499
 Alpha virt. eigenvalues --    0.56080   0.56525   0.56681   0.56901   0.57083
 Alpha virt. eigenvalues --    0.57394   0.58156   0.58562   0.59340   0.59515
 Alpha virt. eigenvalues --    0.60107   0.60558   0.60735   0.61087   0.61616
 Alpha virt. eigenvalues --    0.61717   0.61942   0.62366   0.62967   0.63569
 Alpha virt. eigenvalues --    0.63646   0.64185   0.64502   0.64671   0.64947
 Alpha virt. eigenvalues --    0.65377   0.65725   0.65840   0.66178   0.66538
 Alpha virt. eigenvalues --    0.66831   0.67211   0.67500   0.67791   0.68518
 Alpha virt. eigenvalues --    0.68761   0.69415   0.69761   0.70273   0.70407
 Alpha virt. eigenvalues --    0.70792   0.71377   0.71736   0.72260   0.72356
 Alpha virt. eigenvalues --    0.72611   0.73108   0.73305   0.73699   0.73937
 Alpha virt. eigenvalues --    0.74248   0.74545   0.74933   0.75242   0.75457
 Alpha virt. eigenvalues --    0.75962   0.76534   0.76966   0.77189   0.77266
 Alpha virt. eigenvalues --    0.77858   0.78410   0.78679   0.79256   0.79522
 Alpha virt. eigenvalues --    0.79635   0.80142   0.80772   0.81495   0.82370
 Alpha virt. eigenvalues --    0.82974   0.83625   0.84113   0.84870   0.85448
 Alpha virt. eigenvalues --    0.86192   0.87074   0.87924   0.88183   0.88872
 Alpha virt. eigenvalues --    0.89417   0.89763   0.90490   0.90944   0.91736
 Alpha virt. eigenvalues --    0.92174   0.92591   0.92774   0.93080   0.93705
 Alpha virt. eigenvalues --    0.94210   0.94276   0.94870   0.95275   0.95440
 Alpha virt. eigenvalues --    0.95729   0.96347   0.96516   0.96959   0.97102
 Alpha virt. eigenvalues --    0.98194   0.98657   0.99078   1.00076   1.00121
 Alpha virt. eigenvalues --    1.00861   1.01280   1.01706   1.01793   1.01888
 Alpha virt. eigenvalues --    1.02383   1.03143   1.03404   1.04087   1.04693
 Alpha virt. eigenvalues --    1.04795   1.05344   1.05765   1.06216   1.06564
 Alpha virt. eigenvalues --    1.07053   1.07458   1.07692   1.08044   1.08775
 Alpha virt. eigenvalues --    1.08808   1.09456   1.09977   1.10274   1.11102
 Alpha virt. eigenvalues --    1.11713   1.12492   1.13212   1.14020   1.15108
 Alpha virt. eigenvalues --    1.15320   1.16520   1.17035   1.17579   1.18578
 Alpha virt. eigenvalues --    1.18649   1.19326   1.20010   1.20475   1.21070
 Alpha virt. eigenvalues --    1.21896   1.22882   1.23385   1.24729   1.25113
 Alpha virt. eigenvalues --    1.25267   1.25921   1.26956   1.27136   1.28059
 Alpha virt. eigenvalues --    1.28443   1.28562   1.29870   1.30559   1.31885
 Alpha virt. eigenvalues --    1.32329   1.32833   1.33240   1.34358   1.35005
 Alpha virt. eigenvalues --    1.35217   1.36633   1.37126   1.38082   1.39817
 Alpha virt. eigenvalues --    1.40719   1.41258   1.41872   1.42010   1.42190
 Alpha virt. eigenvalues --    1.42852   1.43124   1.43555   1.44343   1.44673
 Alpha virt. eigenvalues --    1.44780   1.45392   1.45919   1.45957   1.46130
 Alpha virt. eigenvalues --    1.46498   1.47133   1.47478   1.48791   1.49935
 Alpha virt. eigenvalues --    1.50353   1.51136   1.51331   1.51580   1.52716
 Alpha virt. eigenvalues --    1.53133   1.53623   1.54104   1.54314   1.54800
 Alpha virt. eigenvalues --    1.55103   1.55322   1.55677   1.55990   1.57378
 Alpha virt. eigenvalues --    1.57846   1.58436   1.59595   1.61182   1.61359
 Alpha virt. eigenvalues --    1.62196   1.62766   1.63155   1.63744   1.64249
 Alpha virt. eigenvalues --    1.65663   1.66070   1.66347   1.66974   1.67250
 Alpha virt. eigenvalues --    1.67825   1.68558   1.69116   1.69307   1.69486
 Alpha virt. eigenvalues --    1.70020   1.70638   1.70887   1.71351   1.72060
 Alpha virt. eigenvalues --    1.72306   1.73703   1.74504   1.75200   1.75687
 Alpha virt. eigenvalues --    1.75824   1.76533   1.77190   1.78048   1.78961
 Alpha virt. eigenvalues --    1.79402   1.79856   1.80492   1.81023   1.81783
 Alpha virt. eigenvalues --    1.82757   1.84228   1.85508   1.86134   1.87078
 Alpha virt. eigenvalues --    1.87108   1.87488   1.87546   1.88092   1.88363
 Alpha virt. eigenvalues --    1.89182   1.90024   1.90568   1.91355   1.91485
 Alpha virt. eigenvalues --    1.91841   1.93089   1.93978   1.94625   1.95525
 Alpha virt. eigenvalues --    1.96187   1.96662   1.97828   1.99010   1.99251
 Alpha virt. eigenvalues --    1.99874   2.00236   2.01104   2.01653   2.02451
 Alpha virt. eigenvalues --    2.02844   2.03464   2.03814   2.04205   2.04639
 Alpha virt. eigenvalues --    2.05426   2.06142   2.07006   2.08146   2.08361
 Alpha virt. eigenvalues --    2.09138   2.10141   2.10973   2.11364   2.11858
 Alpha virt. eigenvalues --    2.12082   2.13583   2.14169   2.14785   2.15250
 Alpha virt. eigenvalues --    2.15896   2.17494   2.17914   2.19157   2.19300
 Alpha virt. eigenvalues --    2.19694   2.20402   2.21060   2.21299   2.22400
 Alpha virt. eigenvalues --    2.23849   2.26086   2.26554   2.26920   2.28697
 Alpha virt. eigenvalues --    2.32683   2.33284   2.33667   2.35611   2.36413
 Alpha virt. eigenvalues --    2.37627   2.39807   2.40518   2.41104   2.42637
 Alpha virt. eigenvalues --    2.42914   2.43322   2.44252   2.44898   2.46244
 Alpha virt. eigenvalues --    2.47043   2.47096   2.47680   2.48678   2.49725
 Alpha virt. eigenvalues --    2.50734   2.51907   2.52207   2.52343   2.52507
 Alpha virt. eigenvalues --    2.52775   2.53596   2.53802   2.54450   2.56161
 Alpha virt. eigenvalues --    2.56685   2.57515   2.58994   2.59211   2.60292
 Alpha virt. eigenvalues --    2.62957   2.63637   2.64169   2.65520   2.66916
 Alpha virt. eigenvalues --    2.67246   2.67459   2.67703   2.68108   2.68390
 Alpha virt. eigenvalues --    2.69243   2.70336   2.71101   2.71231   2.71747
 Alpha virt. eigenvalues --    2.72581   2.73176   2.73620   2.73870   2.75047
 Alpha virt. eigenvalues --    2.76344   2.76699   2.77484   2.78347   2.81182
 Alpha virt. eigenvalues --    2.81310   2.81790   2.82689   2.83080   2.83350
 Alpha virt. eigenvalues --    2.84467   2.84804   2.85696   2.86493   2.87376
 Alpha virt. eigenvalues --    2.87867   2.88090   2.89019   2.89379   2.89738
 Alpha virt. eigenvalues --    2.91297   2.92659   2.93047   2.93484   2.94769
 Alpha virt. eigenvalues --    2.95132   2.95696   2.96381   2.97178   2.98527
 Alpha virt. eigenvalues --    3.00349   3.02298   3.02706   3.03264   3.04080
 Alpha virt. eigenvalues --    3.06165   3.06640   3.07877   3.09316   3.10451
 Alpha virt. eigenvalues --    3.11785   3.12962   3.14136   3.15033   3.15562
 Alpha virt. eigenvalues --    3.16454   3.17853   3.19015   3.20647   3.21320
 Alpha virt. eigenvalues --    3.23265   3.23483   3.23786   3.25106   3.27887
 Alpha virt. eigenvalues --    3.28929   3.30056   3.31540   3.32103   3.34604
 Alpha virt. eigenvalues --    3.34738   3.35216   3.35700   3.35902   3.38032
 Alpha virt. eigenvalues --    3.38736   3.40296   3.40910   3.43000   3.43603
 Alpha virt. eigenvalues --    3.45261   3.45759   3.46823   3.49781   3.50264
 Alpha virt. eigenvalues --    3.51392   3.54436   3.55945   3.58507   3.60537
 Alpha virt. eigenvalues --    3.61282   3.62904   3.65555   3.66444   3.67132
 Alpha virt. eigenvalues --    3.69980   3.71507   3.72643   3.73510   3.75359
 Alpha virt. eigenvalues --    3.76412   3.76672   3.81289   3.82881   3.84513
 Alpha virt. eigenvalues --    3.85750   3.86763   3.89953   3.91359   3.93311
 Alpha virt. eigenvalues --    3.93412   3.94870   3.97176   4.01730   4.03132
 Alpha virt. eigenvalues --    4.04894   4.08113   4.10154   4.13350   4.14179
 Alpha virt. eigenvalues --    4.19702   4.24257   4.25668   4.27978   4.35922
 Alpha virt. eigenvalues --    4.39816   4.41378   4.52987   4.69022   4.85008
 Alpha virt. eigenvalues --    4.86406   4.87529   4.90804   5.01176   5.02357
 Alpha virt. eigenvalues --    5.04158   5.05654   5.06278   5.08096   5.11764
 Alpha virt. eigenvalues --    5.14091   5.25238   5.27375   5.29380   5.31095
 Alpha virt. eigenvalues --    5.41834   5.42886   5.76164   5.76641   5.80376
 Alpha virt. eigenvalues --    5.80939   5.82494   5.85586   8.02418   8.05959
 Alpha virt. eigenvalues --   17.28782  17.32624  17.49612  17.52330  17.57938
 Alpha virt. eigenvalues --   17.62853  23.48800  23.56433  23.71297  23.79227
 Alpha virt. eigenvalues --   23.82376  23.83193  23.85616  23.87303  23.87591
 Alpha virt. eigenvalues --   23.88510  23.89265  23.90127  23.91136  23.93411
 Alpha virt. eigenvalues --   23.95009  23.95729  23.96709  23.98698  24.00460
 Alpha virt. eigenvalues --   24.01946  24.02490  24.05721  24.09855  24.14519
 Alpha virt. eigenvalues --   24.15050  24.15186  35.56356  35.59571  49.95964
 Alpha virt. eigenvalues --   49.97563  50.02552  50.04455  50.06306  50.08042
 Alpha virt. eigenvalues --  189.19705 189.23630
          Condensed to atoms (all electrons):
 Mulliken charges:
               1
     1  C    0.294733
     2  C   -0.018475
     3  C    0.194977
     4  C    0.142771
     5  C    0.269767
     6  C    0.008610
     7  C    0.151267
     8  C    0.177439
     9  C    0.390771
    10  C   -0.125854
    11  C    0.243270
    12  C    0.100427
    13  C   -0.484046
    14  C   -0.607466
    15  H    0.157384
    16  H    0.160498
    17  H    0.160341
    18  N   -0.159609
    19  N   -0.142789
    20  O   -0.287052
    21  O   -0.267094
    22  O   -0.280405
    23  O   -0.218615
    24  C   -0.192621
    25  H    0.174432
    26  H    0.175884
    27  H    0.183188
    28  C   -0.196652
    29  H    0.172671
    30  H    0.173814
    31  H    0.182864
    32  C   -0.183848
    33  C   -0.541959
    34  S   -0.561553
    35  C   -0.344617
    36  H    0.133855
    37  C    0.713994
    38  O   -0.134699
    39  C    0.843046
    40  C   -0.227390
    41  C   -0.025169
    42  S   -0.250479
    43  H    0.167855
    44  H    0.149452
    45  H    0.150043
    46  C   -0.532932
    47  O   -0.116621
    48  C   -0.287040
    49  H    0.132641
    50  C   -0.243812
    51  H    0.162478
    52  H    0.146502
    53  H    0.169840
    54  H    0.145982
 Sum of Mulliken charges =  -0.00000
 Mulliken charges with hydrogens summed into heavy atoms:
               1
     1  C    0.294733
     2  C   -0.018475
     3  C    0.194977
     4  C    0.142771
     5  C    0.269767
     6  C    0.168951
     7  C    0.151267
     8  C    0.177439
     9  C    0.390771
    10  C   -0.125854
    11  C    0.243270
    12  C    0.100427
    13  C   -0.323548
    14  C   -0.450082
    18  N   -0.159609
    19  N   -0.142789
    20  O   -0.287052
    21  O   -0.267094
    22  O   -0.280405
    23  O   -0.218615
    24  C    0.340882
    28  C    0.332697
    32  C   -0.183848
    33  C   -0.408103
    34  S   -0.561553
    35  C   -0.344617
    37  C    0.713994
    38  O   -0.134699
    39  C    0.843046
    40  C    0.239960
    41  C   -0.025169
    42  S   -0.250479
    46  C   -0.400291
    47  O   -0.116621
    48  C   -0.124562
    50  C    0.218511
 Electronic spatial extent (au):  <R**2>=          22456.0135
 Charge=             -0.0000 electrons
 Dipole moment (field-independent basis, Debye):
    X=              5.2881    Y=             -0.7479    Z=              0.1317  Tot=              5.3424
 Quadrupole moment (field-independent basis, Debye-Ang):
   XX=           -211.6134   YY=           -215.6168   ZZ=           -219.5676
   XY=             12.5407   XZ=              7.8658   YZ=             10.4514
 Traceless Quadrupole moment (field-independent basis, Debye-Ang):
   XX=              3.9858   YY=             -0.0175   ZZ=             -3.9683
   XY=             12.5407   XZ=              7.8658   YZ=             10.4514
 Octapole moment (field-independent basis, Debye-Ang**2):
  XXX=            403.0019  YYY=            -51.3016  ZZZ=             -2.3933  XYY=            118.5962
  XXY=             28.6751  XXZ=             36.7519  XZZ=              3.2844  YZZ=             -1.1962
  YYZ=            -12.2983  XYZ=             36.1791
 Hexadecapole moment (field-independent basis, Debye-Ang**3):
 XXXX=         -21376.5282 YYYY=          -7628.2151 ZZZZ=           -750.6140 XXXY=            259.7291
 XXXZ=            487.0520 YYYX=            484.2888 YYYZ=            109.0331 ZZZX=            -19.9443
 ZZZY=             10.0739 XXYY=          -4706.0170 XXZZ=          -3850.0203 YYZZ=          -1315.8790
 XXYZ=            206.5424 YYXZ=            -32.5023 ZZXY=             56.9706
 N-N= 4.095488634005D+03 E-N=-1.373116094741D+04  KE= 2.352054273806D+03
 Unable to Open any file for archive entry.
 1\1\GINC-CX3-6-7\FOpt\RB3LYP\6-311+G(d,p)\C26H18N2O6S2\NS5018\29-Nov-2
 020\0\\# opt=modredundant b3lyp/6-311+g(d,p)\\NDI_-165.pdb\\0,1\C,-2.3
 181864894,-2.8628715508,-0.3563067983\C,-2.1642392674,-1.3886902386,-0
 .2380869055\C,-3.2881997643,-0.5665810196,0.0021701857\C,-4.5733783161
 ,-1.1286744912,0.1223344247\C,-4.7673985109,-2.5973596954,-0.006452976
 9\C,-0.9195459796,-0.8369359494,-0.3560776539\C,-3.0842060424,0.835339
 9064,0.1126466727\C,-1.7752916533,1.4024097865,-0.0063625832\C,-0.6487
 508624,0.5660192244,-0.2439525411\C,-1.6778927294,2.8767950052,0.03787
 35746\C,-4.1268319202,3.1091903632,0.4274712239\C,-4.232337248,1.63753
 70326,0.3365363433\C,-5.492573311,1.0664230451,0.4579895063\C,-5.67182
 17718,-0.3144932515,0.3539899623\H,-6.6526360213,-0.7631587607,0.44319
 74804\H,-6.3341027706,1.7256475911,0.6293698084\H,-0.1037812657,-1.530
 0801697,-0.4875276039\N,-2.8469282299,3.6295165246,0.2400231623\N,-3.6
 167684099,-3.369522301,-0.248381491\O,-1.3752981549,-3.6140989177,-0.5
 318822175\O,-5.8632003836,-3.1165821656,0.0904470704\O,-5.0886127389,3
 .8285371103,0.6387925961\O,-0.6289594257,3.4857392972,-0.1019318496\C,
 -2.6742730112,5.0887132112,0.2752243442\H,-1.9932711078,5.3622613575,1
 .0814608944\H,-2.2456818474,5.431785273,-0.6663409709\H,-3.651773919,5
 .5322532084,0.4357832681\C,-3.7614561672,-4.8267914603,-0.3739457276\H
 ,-3.3685189021,-5.1522116402,-1.3372113426\H,-3.1954934459,-5.32372540
 58,0.4146060071\H,-4.8169266119,-5.0657612062,-0.2916133124\C,0.778837
 4633,0.8922604107,-0.3292774116\C,1.7256971373,0.0152260851,-0.8654332
 496\S,1.606827142,2.2228279898,0.4600569185\C,3.0533548814,0.391216415
 7,-0.6384162606\H,1.4630839498,-0.8620169467,-1.4350116449\C,3.1852911
 685,1.55718542,0.1208334649\O,4.1695592545,-0.2600252768,-1.062418524\
 C,4.4047626178,2.1917099655,0.5328093772\C,4.0038423556,-1.3726190136,
 -1.9365591777\C,4.5477938599,3.3572447042,1.2822327594\S,5.9995439604,
 1.5560515284,0.1376287305\H,5.0085560194,-1.7061529414,-2.1896213272\H
 ,3.4651779616,-2.187371459,-1.4418109702\H,3.4745276041,-1.0794681288,
 -2.8489771617\C,5.897365259,3.7292050746,1.5286126573\O,3.4414039414,4
 .0217299345,1.6948821892\C,6.7804949688,2.8463362174,0.9708769754\H,6.
 2003790457,4.6015195407,2.0888094253\C,3.6118786299,5.1945887538,2.485
 9133237\H,7.8586188747,2.8852751866,1.0044931596\H,4.1584819399,5.9655
 354941,1.9336708486\H,2.6078600293,5.5511047946,2.7074138476\H,4.13399
 82149,4.9660065377,3.4204494998\\Version=ES64L-G16RevC.01\State=1-A\HF
 =-2359.3348855\RMSD=3.826e-09\RMSF=4.629e-04\Dipole=2.0429957,0.480614
 5,0.1139197\Quadrupole=-3.7173047,2.3548597,1.362445,7.2520474,4.28935
 51,10.4235914\PG=C01 [X(C26H18N2O6S2)]\\@
 The archive entry for this job was punched.


 A BIRD IN THE HAND IS SAFER THAN ONE OVERHEAD.

                       -- NEWTON'S SEVENTH LAW
 Job cpu time:       2 days  3 hours 18 minutes 33.8 seconds.
 Elapsed time:       0 days  6 hours 27 minutes 47.7 seconds.
 File lengths (MBytes):  RWF=    496 Int=      0 D2E=      0 Chk=     61 Scr=      1
 Normal termination of Gaussian 16 at Sun Nov 29 15:27:11 2020.
