 Entering Gaussian System, Link 0=g16
 Input=NDI_50.gjf
 Output=NDI_50.log
 Initial command:
 /apps/gaussian/g16-c01-avx/g16/l1.exe "/tmp/pbs.2625174[46].pbs/Gau-929470.inp" -scrdir="/tmp/pbs.2625174[46].pbs/"
 Entering Link 1 = /apps/gaussian/g16-c01-avx/g16/l1.exe PID=    929477.
  
 Copyright (c) 1988-2019, Gaussian, Inc.  All Rights Reserved.
  
 This is part of the Gaussian(R) 16 program.  It is based on
 the Gaussian(R) 09 system (copyright 2009, Gaussian, Inc.),
 the Gaussian(R) 03 system (copyright 2003, Gaussian, Inc.),
 the Gaussian(R) 98 system (copyright 1998, Gaussian, Inc.),
 the Gaussian(R) 94 system (copyright 1995, Gaussian, Inc.),
 the Gaussian 92(TM) system (copyright 1992, Gaussian, Inc.),
 the Gaussian 90(TM) system (copyright 1990, Gaussian, Inc.),
 the Gaussian 88(TM) system (copyright 1988, Gaussian, Inc.),
 the Gaussian 86(TM) system (copyright 1986, Carnegie Mellon
 University), and the Gaussian 82(TM) system (copyright 1983,
 Carnegie Mellon University). Gaussian is a federally registered
 trademark of Gaussian, Inc.
  
 This software contains proprietary and confidential information,
 including trade secrets, belonging to Gaussian, Inc.
  
 This software is provided under written license and may be
 used, copied, transmitted, or stored only in accord with that
 written license.
  
 The following legend is applicable only to US Government
 contracts under FAR:
  
                    RESTRICTED RIGHTS LEGEND
  
 Use, reproduction and disclosure by the US Government is
 subject to restrictions as set forth in subparagraphs (a)
 and (c) of the Commercial Computer Software - Restricted
 Rights clause in FAR 52.227-19.
  
 Gaussian, Inc.
 340 Quinnipiac St., Bldg. 40, Wallingford CT 06492
  
  
 ---------------------------------------------------------------
 Warning -- This program may not be used in any manner that
 competes with the business of Gaussian, Inc. or will provide
 assistance to any competitor of Gaussian, Inc.  The licensee
 of this program is prohibited from giving any competitor of
 Gaussian, Inc. access to this program.  By using this program,
 the user acknowledges that Gaussian, Inc. is engaged in the
 business of creating and licensing software in the field of
 computational chemistry and represents and warrants to the
 licensee that it is not a competitor of Gaussian, Inc. and that
 it will not use this program in any manner prohibited above.
 ---------------------------------------------------------------
  

 Cite this work as:
 Gaussian 16, Revision C.01,
 M. J. Frisch, G. W. Trucks, H. B. Schlegel, G. E. Scuseria, 
 M. A. Robb, J. R. Cheeseman, G. Scalmani, V. Barone, 
 G. A. Petersson, H. Nakatsuji, X. Li, M. Caricato, A. V. Marenich, 
 J. Bloino, B. G. Janesko, R. Gomperts, B. Mennucci, H. P. Hratchian, 
 J. V. Ortiz, A. F. Izmaylov, J. L. Sonnenberg, D. Williams-Young, 
 F. Ding, F. Lipparini, F. Egidi, J. Goings, B. Peng, A. Petrone, 
 T. Henderson, D. Ranasinghe, V. G. Zakrzewski, J. Gao, N. Rega, 
 G. Zheng, W. Liang, M. Hada, M. Ehara, K. Toyota, R. Fukuda, 
 J. Hasegawa, M. Ishida, T. Nakajima, Y. Honda, O. Kitao, H. Nakai, 
 T. Vreven, K. Throssell, J. A. Montgomery, Jr., J. E. Peralta, 
 F. Ogliaro, M. J. Bearpark, J. J. Heyd, E. N. Brothers, K. N. Kudin, 
 V. N. Staroverov, T. A. Keith, R. Kobayashi, J. Normand, 
 K. Raghavachari, A. P. Rendell, J. C. Burant, S. S. Iyengar, 
 J. Tomasi, M. Cossi, J. M. Millam, M. Klene, C. Adamo, R. Cammi, 
 J. W. Ochterski, R. L. Martin, K. Morokuma, O. Farkas, 
 J. B. Foresman, and D. J. Fox, Gaussian, Inc., Wallingford CT, 2019.
 
 ******************************************
 Gaussian 16:  ES64L-G16RevC.01  3-Jul-2019
                29-Nov-2020 
 ******************************************
 %mem=10GB
 %nprocshared=8
 Will use up to    8 processors via shared memory.
 -------------------------------------
 # opt=modredundant b3lyp/6-311+g(d,p)
 -------------------------------------
 1/18=120,19=15,26=3,38=1/1,3;
 2/9=110,12=2,17=6,18=5,40=1/2;
 3/5=4,6=6,7=111,11=2,25=1,30=1,71=1,74=-5/1,2,3;
 4//1;
 5/5=2,38=5/2;
 6/7=2,8=2,9=2,10=2,28=1/1;
 7//1,2,3,16;
 1/18=20,19=15,26=3/3(2);
 2/9=110/2;
 99//99;
 2/9=110/2;
 3/5=4,6=6,7=111,11=2,25=1,30=1,71=1,74=-5/1,2,3;
 4/5=5,16=3,69=1/1;
 5/5=2,38=5/2;
 7//1,2,3,16;
 1/18=20,19=15,26=3/3(-5);
 2/9=110/2;
 6/7=2,8=2,9=2,10=2,19=2,28=1/1;
 99/9=1/99;
 ----------
 NDI_50.pdb
 ----------
 Symbolic Z-matrix:
 Charge =  0 Multiplicity = 1
 C                    -2.563    -2.994    -0.409 
 C                    -2.257    -1.551    -0.224 
 C                    -3.301    -0.607    -0.083 
 C                    -4.65     -1.024    -0.115 
 C                    -4.992    -2.459    -0.304 
 C                    -0.949    -1.137    -0.215 
 C                    -2.962     0.764     0.102 
 C                    -1.595     1.188     0.123 
 C                    -0.561     0.232    -0.072 
 C                    -1.328     2.616     0.446 
 C                    -3.777     3.115     0.508 
 C                    -4.035     1.679     0.268 
 C                    -5.356     1.252     0.23 
 C                    -5.672    -0.098     0.036 
 H                    -6.699    -0.442     0.008 
 H                    -6.133     1.997     0.361 
 H                    -0.19     -1.895    -0.369 
 N                    -2.432     3.476     0.608 
 N                    -3.916    -3.353    -0.438 
 O                    -1.695    -3.847    -0.532 
 O                    -6.149    -2.85     -0.34 
 O                    -4.676     3.938     0.629 
 O                    -0.212     3.097     0.596 
 C                    -2.111     4.875     0.912 
 H                    -1.54      4.931     1.84 
 H                    -1.5       5.299     0.111 
 H                    -3.05      5.414     1.003 
 C                    -4.206    -4.779    -0.625 
 H                    -3.759    -5.126    -1.559 
 H                    -3.775    -5.355     0.196 
 H                    -5.286    -4.897    -0.649 
 C                     0.876     0.482    -0.178 
 C                     1.729     1.212     0.628 
 S                     1.732    -0.076    -1.616 
 C                     3.036     1.318     0.113 
 H                     1.418     1.647     1.564 
 C                     3.232     0.665    -1.107 
 O                     4.079     1.977     0.685 
 C                     4.45      0.555    -1.858 
 C                     3.884     2.508     1.993 
 C                     4.639    -0.077    -3.086 
 S                     5.98      1.239    -1.313 
 H                     4.847     2.917     2.297 
 H                     3.134     3.309     1.988 
 H                     3.575     1.726     2.696 
 C                     5.974    -0.014    -3.575 
 O                     3.582    -0.68     -3.691 
 C                     6.8       0.666    -2.721 
 H                     6.305    -0.447    -4.509 
 C                     3.798    -1.286    -4.961 
 H                     7.856     0.863    -2.845 
 H                     4.529    -2.101    -4.894 
 H                     2.834    -1.69     -5.269 
 H                     4.138    -0.551    -5.7 
 
 The following ModRedundant input section has been read:
 D       8       9      32      33 F                                           
 D      33      35      38      40 F                                           
 D      46      41      47      50 F                                           
 D      10      18      24      25 F                                           
 D       1      19      28      30 F                                           
 D       9       8      10      23 F                                           
 D      20       1       2       6 F                                           
 

 GradGradGradGradGradGradGradGradGradGradGradGradGradGradGradGradGradGrad
 Berny optimization.
 Initialization pass.
                           ----------------------------
                           !    Initial Parameters    !
                           ! (Angstroms and Degrees)  !
 --------------------------                            --------------------------
 ! Name  Definition              Value          Derivative Info.                !
 --------------------------------------------------------------------------------
 ! R1    R(1,2)                  1.4866         estimate D2E/DX2                !
 ! R2    R(1,19)                 1.4001         estimate D2E/DX2                !
 ! R3    R(1,20)                 1.2232         estimate D2E/DX2                !
 ! R4    R(2,3)                  1.4146         estimate D2E/DX2                !
 ! R5    R(2,6)                  1.372          estimate D2E/DX2                !
 ! R6    R(3,4)                  1.4123         estimate D2E/DX2                !
 ! R7    R(3,7)                  1.4244         estimate D2E/DX2                !
 ! R8    R(4,5)                  1.4872         estimate D2E/DX2                !
 ! R9    R(4,14)                 1.3874         estimate D2E/DX2                !
 ! R10   R(5,19)                 1.4053         estimate D2E/DX2                !
 ! R11   R(5,21)                 1.2218         estimate D2E/DX2                !
 ! R12   R(6,9)                  1.4301         estimate D2E/DX2                !
 ! R13   R(6,17)                 1.0837         estimate D2E/DX2                !
 ! R14   R(7,8)                  1.4314         estimate D2E/DX2                !
 ! R15   R(7,12)                 1.4199         estimate D2E/DX2                !
 ! R16   R(8,9)                  1.4217         estimate D2E/DX2                !
 ! R17   R(8,10)                 1.4882         estimate D2E/DX2                !
 ! R18   R(9,32)                 1.4624         estimate D2E/DX2                !
 ! R19   R(10,18)                1.4088         estimate D2E/DX2                !
 ! R20   R(10,23)                1.2245         estimate D2E/DX2                !
 ! R21   R(11,12)                1.4786         estimate D2E/DX2                !
 ! R22   R(11,18)                1.3962         estimate D2E/DX2                !
 ! R23   R(11,22)                1.2248         estimate D2E/DX2                !
 ! R24   R(12,13)                1.3888         estimate D2E/DX2                !
 ! R25   R(13,14)                1.4            estimate D2E/DX2                !
 ! R26   R(13,16)                1.0844         estimate D2E/DX2                !
 ! R27   R(14,15)                1.0834         estimate D2E/DX2                !
 ! R28   R(18,24)                1.4672         estimate D2E/DX2                !
 ! R29   R(19,28)                1.4672         estimate D2E/DX2                !
 ! R30   R(24,25)                1.091          estimate D2E/DX2                !
 ! R31   R(24,26)                1.093          estimate D2E/DX2                !
 ! R32   R(24,27)                1.0865         estimate D2E/DX2                !
 ! R33   R(28,29)                1.0921         estimate D2E/DX2                !
 ! R34   R(28,30)                1.0916         estimate D2E/DX2                !
 ! R35   R(28,31)                1.0867         estimate D2E/DX2                !
 ! R36   R(32,33)                1.3821         estimate D2E/DX2                !
 ! R37   R(32,34)                1.7641         estimate D2E/DX2                !
 ! R38   R(33,35)                1.4088         estimate D2E/DX2                !
 ! R39   R(33,36)                1.078          estimate D2E/DX2                !
 ! R40   R(34,37)                1.7488         estimate D2E/DX2                !
 ! R41   R(35,37)                1.3976         estimate D2E/DX2                !
 ! R42   R(35,38)                1.3599         estimate D2E/DX2                !
 ! R43   R(37,39)                1.4351         estimate D2E/DX2                !
 ! R44   R(38,40)                1.4251         estimate D2E/DX2                !
 ! R45   R(39,41)                1.394          estimate D2E/DX2                !
 ! R46   R(39,42)                1.7623         estimate D2E/DX2                !
 ! R47   R(40,43)                1.0895         estimate D2E/DX2                !
 ! R48   R(40,44)                1.0973         estimate D2E/DX2                !
 ! R49   R(40,45)                1.096          estimate D2E/DX2                !
 ! R50   R(41,46)                1.4231         estimate D2E/DX2                !
 ! R51   R(41,47)                1.359          estimate D2E/DX2                !
 ! R52   R(42,48)                1.7272         estimate D2E/DX2                !
 ! R53   R(46,48)                1.3689         estimate D2E/DX2                !
 ! R54   R(46,49)                1.0814         estimate D2E/DX2                !
 ! R55   R(47,50)                1.4237         estimate D2E/DX2                !
 ! R56   R(48,51)                1.0814         estimate D2E/DX2                !
 ! R57   R(50,52)                1.0968         estimate D2E/DX2                !
 ! R58   R(50,53)                1.0897         estimate D2E/DX2                !
 ! R59   R(50,54)                1.0963         estimate D2E/DX2                !
 ! A1    A(2,1,19)             116.767          estimate D2E/DX2                !
 ! A2    A(2,1,20)             122.9113         estimate D2E/DX2                !
 ! A3    A(19,1,20)            120.3217         estimate D2E/DX2                !
 ! A4    A(1,2,3)              120.5473         estimate D2E/DX2                !
 ! A5    A(1,2,6)              119.3369         estimate D2E/DX2                !
 ! A6    A(3,2,6)              120.1056         estimate D2E/DX2                !
 ! A7    A(2,3,4)              120.3743         estimate D2E/DX2                !
 ! A8    A(2,3,7)              118.662          estimate D2E/DX2                !
 ! A9    A(4,3,7)              120.9617         estimate D2E/DX2                !
 ! A10   A(3,4,5)              120.4909         estimate D2E/DX2                !
 ! A11   A(3,4,14)             120.2702         estimate D2E/DX2                !
 ! A12   A(5,4,14)             119.2382         estimate D2E/DX2                !
 ! A13   A(4,5,19)             116.7341         estimate D2E/DX2                !
 ! A14   A(4,5,21)             122.024          estimate D2E/DX2                !
 ! A15   A(19,5,21)            121.2418         estimate D2E/DX2                !
 ! A16   A(2,6,9)              123.2421         estimate D2E/DX2                !
 ! A17   A(2,6,17)             117.1119         estimate D2E/DX2                !
 ! A18   A(9,6,17)             119.589          estimate D2E/DX2                !
 ! A19   A(3,7,8)              120.9519         estimate D2E/DX2                !
 ! A20   A(3,7,12)             117.1037         estimate D2E/DX2                !
 ! A21   A(8,7,12)             121.944          estimate D2E/DX2                !
 ! A22   A(7,8,9)              119.5639         estimate D2E/DX2                !
 ! A23   A(7,8,10)             117.3064         estimate D2E/DX2                !
 ! A24   A(9,8,10)             122.9922         estimate D2E/DX2                !
 ! A25   A(6,9,8)              117.3944         estimate D2E/DX2                !
 ! A26   A(6,9,32)             115.0236         estimate D2E/DX2                !
 ! A27   A(8,9,32)             127.5648         estimate D2E/DX2                !
 ! A28   A(8,10,18)            118.042          estimate D2E/DX2                !
 ! A29   A(8,10,23)            124.5436         estimate D2E/DX2                !
 ! A30   A(18,10,23)           117.4097         estimate D2E/DX2                !
 ! A31   A(12,11,18)           115.5202         estimate D2E/DX2                !
 ! A32   A(12,11,22)           122.7205         estimate D2E/DX2                !
 ! A33   A(18,11,22)           121.7534         estimate D2E/DX2                !
 ! A34   A(7,12,11)            120.8614         estimate D2E/DX2                !
 ! A35   A(7,12,13)            121.162          estimate D2E/DX2                !
 ! A36   A(11,12,13)           117.9699         estimate D2E/DX2                !
 ! A37   A(12,13,14)           120.9948         estimate D2E/DX2                !
 ! A38   A(12,13,16)           117.8401         estimate D2E/DX2                !
 ! A39   A(14,13,16)           121.1642         estimate D2E/DX2                !
 ! A40   A(4,14,13)            119.5003         estimate D2E/DX2                !
 ! A41   A(4,14,15)            118.9169         estimate D2E/DX2                !
 ! A42   A(13,14,15)           121.5811         estimate D2E/DX2                !
 ! A43   A(10,18,11)           126.0753         estimate D2E/DX2                !
 ! A44   A(10,18,24)           115.7508         estimate D2E/DX2                !
 ! A45   A(11,18,24)           118.1737         estimate D2E/DX2                !
 ! A46   A(1,19,5)             125.0856         estimate D2E/DX2                !
 ! A47   A(1,19,28)            116.2868         estimate D2E/DX2                !
 ! A48   A(5,19,28)            118.6276         estimate D2E/DX2                !
 ! A49   A(18,24,25)           109.8574         estimate D2E/DX2                !
 ! A50   A(18,24,26)           109.8979         estimate D2E/DX2                !
 ! A51   A(18,24,27)           107.5355         estimate D2E/DX2                !
 ! A52   A(25,24,26)           108.1108         estimate D2E/DX2                !
 ! A53   A(25,24,27)           110.8301         estimate D2E/DX2                !
 ! A54   A(26,24,27)           110.6124         estimate D2E/DX2                !
 ! A55   A(19,28,29)           109.6906         estimate D2E/DX2                !
 ! A56   A(19,28,30)           109.8136         estimate D2E/DX2                !
 ! A57   A(19,28,31)           107.7461         estimate D2E/DX2                !
 ! A58   A(29,28,30)           108.2991         estimate D2E/DX2                !
 ! A59   A(29,28,31)           110.6959         estimate D2E/DX2                !
 ! A60   A(30,28,31)           110.5924         estimate D2E/DX2                !
 ! A61   A(9,32,33)            130.8799         estimate D2E/DX2                !
 ! A62   A(9,32,34)            118.804          estimate D2E/DX2                !
 ! A63   A(33,32,34)           110.0582         estimate D2E/DX2                !
 ! A64   A(32,33,35)           113.5247         estimate D2E/DX2                !
 ! A65   A(32,33,36)           122.7824         estimate D2E/DX2                !
 ! A66   A(35,33,36)           123.6904         estimate D2E/DX2                !
 ! A67   A(32,34,37)            92.5747         estimate D2E/DX2                !
 ! A68   A(33,35,37)           114.4604         estimate D2E/DX2                !
 ! A69   A(33,35,38)           126.4592         estimate D2E/DX2                !
 ! A70   A(37,35,38)           119.0803         estimate D2E/DX2                !
 ! A71   A(34,37,35)           109.3762         estimate D2E/DX2                !
 ! A72   A(34,37,39)           122.9005         estimate D2E/DX2                !
 ! A73   A(35,37,39)           127.7082         estimate D2E/DX2                !
 ! A74   A(35,38,40)           117.4957         estimate D2E/DX2                !
 ! A75   A(37,39,41)           127.6483         estimate D2E/DX2                !
 ! A76   A(37,39,42)           123.0409         estimate D2E/DX2                !
 ! A77   A(41,39,42)           109.3107         estimate D2E/DX2                !
 ! A78   A(38,40,43)           105.9637         estimate D2E/DX2                !
 ! A79   A(38,40,44)           111.182          estimate D2E/DX2                !
 ! A80   A(38,40,45)           111.189          estimate D2E/DX2                !
 ! A81   A(43,40,44)           109.3513         estimate D2E/DX2                !
 ! A82   A(43,40,45)           109.7592         estimate D2E/DX2                !
 ! A83   A(44,40,45)           109.3327         estimate D2E/DX2                !
 ! A84   A(39,41,46)           114.1933         estimate D2E/DX2                !
 ! A85   A(39,41,47)           119.2022         estimate D2E/DX2                !
 ! A86   A(46,41,47)           126.6042         estimate D2E/DX2                !
 ! A87   A(39,42,48)            91.7943         estimate D2E/DX2                !
 ! A88   A(41,46,48)           111.941          estimate D2E/DX2                !
 ! A89   A(41,46,49)           124.4843         estimate D2E/DX2                !
 ! A90   A(48,46,49)           123.5746         estimate D2E/DX2                !
 ! A91   A(41,47,50)           117.9044         estimate D2E/DX2                !
 ! A92   A(42,48,46)           112.7606         estimate D2E/DX2                !
 ! A93   A(42,48,51)           119.7799         estimate D2E/DX2                !
 ! A94   A(46,48,51)           127.4594         estimate D2E/DX2                !
 ! A95   A(47,50,52)           111.279          estimate D2E/DX2                !
 ! A96   A(47,50,53)           106.0062         estimate D2E/DX2                !
 ! A97   A(47,50,54)           111.2842         estimate D2E/DX2                !
 ! A98   A(52,50,53)           109.3523         estimate D2E/DX2                !
 ! A99   A(52,50,54)           109.4288         estimate D2E/DX2                !
 ! A100  A(53,50,54)           109.414          estimate D2E/DX2                !
 ! D1    D(19,1,2,3)             0.1578         estimate D2E/DX2                !
 ! D2    D(19,1,2,6)          -178.6792         estimate D2E/DX2                !
 ! D3    D(20,1,2,3)          -179.8231         estimate D2E/DX2                !
 ! D4    D(20,1,2,6)             1.3399         Frozen                          !
 ! D5    D(2,1,19,5)            -0.124          estimate D2E/DX2                !
 ! D6    D(2,1,19,28)          179.8267         estimate D2E/DX2                !
 ! D7    D(20,1,19,5)          179.8575         estimate D2E/DX2                !
 ! D8    D(20,1,19,28)          -0.1919         estimate D2E/DX2                !
 ! D9    D(1,2,3,4)              0.0571         estimate D2E/DX2                !
 ! D10   D(1,2,3,7)            179.5453         estimate D2E/DX2                !
 ! D11   D(6,2,3,4)            178.8851         estimate D2E/DX2                !
 ! D12   D(6,2,3,7)             -1.6266         estimate D2E/DX2                !
 ! D13   D(1,2,6,9)            178.625          estimate D2E/DX2                !
 ! D14   D(1,2,6,17)             1.3881         estimate D2E/DX2                !
 ! D15   D(3,2,6,9)             -0.2173         estimate D2E/DX2                !
 ! D16   D(3,2,6,17)          -177.4541         estimate D2E/DX2                !
 ! D17   D(2,3,4,5)             -0.3074         estimate D2E/DX2                !
 ! D18   D(2,3,4,14)           179.3968         estimate D2E/DX2                !
 ! D19   D(7,3,4,5)           -179.7837         estimate D2E/DX2                !
 ! D20   D(7,3,4,14)            -0.0795         estimate D2E/DX2                !
 ! D21   D(2,3,7,8)              1.0523         estimate D2E/DX2                !
 ! D22   D(2,3,7,12)          -178.712          estimate D2E/DX2                !
 ! D23   D(4,3,7,8)           -179.4626         estimate D2E/DX2                !
 ! D24   D(4,3,7,12)             0.7731         estimate D2E/DX2                !
 ! D25   D(3,4,5,19)             0.3343         estimate D2E/DX2                !
 ! D26   D(3,4,5,21)          -179.7799         estimate D2E/DX2                !
 ! D27   D(14,4,5,19)         -179.3729         estimate D2E/DX2                !
 ! D28   D(14,4,5,21)            0.5129         estimate D2E/DX2                !
 ! D29   D(3,4,14,13)           -0.4559         estimate D2E/DX2                !
 ! D30   D(3,4,14,15)         -179.9937         estimate D2E/DX2                !
 ! D31   D(5,4,14,13)          179.252          estimate D2E/DX2                !
 ! D32   D(5,4,14,15)           -0.2858         estimate D2E/DX2                !
 ! D33   D(4,5,19,1)            -0.1141         estimate D2E/DX2                !
 ! D34   D(4,5,19,28)          179.9364         estimate D2E/DX2                !
 ! D35   D(21,5,19,1)          179.9992         estimate D2E/DX2                !
 ! D36   D(21,5,19,28)           0.0496         estimate D2E/DX2                !
 ! D37   D(2,6,9,8)              2.5984         estimate D2E/DX2                !
 ! D38   D(2,6,9,32)          -176.0103         estimate D2E/DX2                !
 ! D39   D(17,6,9,8)           179.77           estimate D2E/DX2                !
 ! D40   D(17,6,9,32)            1.1613         estimate D2E/DX2                !
 ! D41   D(3,7,8,9)              1.3551         estimate D2E/DX2                !
 ! D42   D(3,7,8,10)          -174.5099         estimate D2E/DX2                !
 ! D43   D(12,7,8,9)          -178.8921         estimate D2E/DX2                !
 ! D44   D(12,7,8,10)            5.2428         estimate D2E/DX2                !
 ! D45   D(3,7,12,11)          178.0768         estimate D2E/DX2                !
 ! D46   D(3,7,12,13)           -0.9621         estimate D2E/DX2                !
 ! D47   D(8,7,12,11)           -1.685          estimate D2E/DX2                !
 ! D48   D(8,7,12,13)          179.2761         estimate D2E/DX2                !
 ! D49   D(7,8,9,6)             -3.0809         estimate D2E/DX2                !
 ! D50   D(7,8,9,32)           175.3285         estimate D2E/DX2                !
 ! D51   D(10,8,9,6)           172.5381         estimate D2E/DX2                !
 ! D52   D(10,8,9,32)           -9.0525         estimate D2E/DX2                !
 ! D53   D(7,8,10,18)           -4.7549         estimate D2E/DX2                !
 ! D54   D(7,8,10,23)          174.4235         estimate D2E/DX2                !
 ! D55   D(9,8,10,18)          179.5335         estimate D2E/DX2                !
 ! D56   D(9,8,10,23)           -1.2882         Frozen                          !
 ! D57   D(6,9,32,33)         -131.5652         estimate D2E/DX2                !
 ! D58   D(6,9,32,34)           54.9089         estimate D2E/DX2                !
 ! D59   D(8,9,32,33)           49.9932         Frozen                          !
 ! D60   D(8,9,32,34)         -123.5326         estimate D2E/DX2                !
 ! D61   D(8,10,18,11)           0.7189         estimate D2E/DX2                !
 ! D62   D(8,10,18,24)        -179.4089         estimate D2E/DX2                !
 ! D63   D(23,10,18,11)       -178.5188         estimate D2E/DX2                !
 ! D64   D(23,10,18,24)          1.3535         estimate D2E/DX2                !
 ! D65   D(18,11,12,7)          -2.3856         estimate D2E/DX2                !
 ! D66   D(18,11,12,13)        176.6833         estimate D2E/DX2                !
 ! D67   D(22,11,12,7)         178.4862         estimate D2E/DX2                !
 ! D68   D(22,11,12,13)         -2.445          estimate D2E/DX2                !
 ! D69   D(12,11,18,10)          2.8444         estimate D2E/DX2                !
 ! D70   D(12,11,18,24)       -177.0251         estimate D2E/DX2                !
 ! D71   D(22,11,18,10)       -178.0181         estimate D2E/DX2                !
 ! D72   D(22,11,18,24)          2.1124         estimate D2E/DX2                !
 ! D73   D(7,12,13,14)           0.461          estimate D2E/DX2                !
 ! D74   D(7,12,13,16)        -179.8781         estimate D2E/DX2                !
 ! D75   D(11,12,13,14)       -178.6049         estimate D2E/DX2                !
 ! D76   D(11,12,13,16)          1.056          estimate D2E/DX2                !
 ! D77   D(12,13,14,4)           0.2708         estimate D2E/DX2                !
 ! D78   D(12,13,14,15)        179.7958         estimate D2E/DX2                !
 ! D79   D(16,13,14,4)        -179.3788         estimate D2E/DX2                !
 ! D80   D(16,13,14,15)          0.1463         estimate D2E/DX2                !
 ! D81   D(10,18,24,25)        -59.609          Frozen                          !
 ! D82   D(10,18,24,26)         59.2209         estimate D2E/DX2                !
 ! D83   D(10,18,24,27)        179.6858         estimate D2E/DX2                !
 ! D84   D(11,18,24,25)        120.2739         estimate D2E/DX2                !
 ! D85   D(11,18,24,26)       -120.8962         estimate D2E/DX2                !
 ! D86   D(11,18,24,27)         -0.4313         estimate D2E/DX2                !
 ! D87   D(1,19,28,29)         -58.1407         estimate D2E/DX2                !
 ! D88   D(1,19,28,30)          60.7668         Frozen                          !
 ! D89   D(1,19,28,31)        -178.7139         estimate D2E/DX2                !
 ! D90   D(5,19,28,29)         121.8132         estimate D2E/DX2                !
 ! D91   D(5,19,28,30)        -119.2792         estimate D2E/DX2                !
 ! D92   D(5,19,28,31)           1.2401         estimate D2E/DX2                !
 ! D93   D(9,32,33,35)        -174.2352         estimate D2E/DX2                !
 ! D94   D(9,32,33,36)           6.3167         estimate D2E/DX2                !
 ! D95   D(34,32,33,35)         -0.273          estimate D2E/DX2                !
 ! D96   D(34,32,33,36)       -179.7211         estimate D2E/DX2                !
 ! D97   D(9,32,34,37)         175.3679         estimate D2E/DX2                !
 ! D98   D(33,32,34,37)          0.5751         estimate D2E/DX2                !
 ! D99   D(32,33,35,37)         -0.2897         estimate D2E/DX2                !
 ! D100  D(32,33,35,38)        179.7519         estimate D2E/DX2                !
 ! D101  D(36,33,35,37)        179.1526         estimate D2E/DX2                !
 ! D102  D(36,33,35,38)         -0.8058         estimate D2E/DX2                !
 ! D103  D(32,34,37,35)         -0.7225         estimate D2E/DX2                !
 ! D104  D(32,34,37,39)        177.9604         estimate D2E/DX2                !
 ! D105  D(33,35,37,34)          0.7104         estimate D2E/DX2                !
 ! D106  D(33,35,37,39)       -177.8918         estimate D2E/DX2                !
 ! D107  D(38,35,37,34)       -179.3279         estimate D2E/DX2                !
 ! D108  D(38,35,37,39)          2.0699         estimate D2E/DX2                !
 ! D109  D(33,35,38,40)          6.538          Frozen                          !
 ! D110  D(37,35,38,40)       -173.4186         estimate D2E/DX2                !
 ! D111  D(34,37,39,41)          2.7745         estimate D2E/DX2                !
 ! D112  D(34,37,39,42)       -177.183          estimate D2E/DX2                !
 ! D113  D(35,37,39,41)       -178.7961         estimate D2E/DX2                !
 ! D114  D(35,37,39,42)          1.2465         estimate D2E/DX2                !
 ! D115  D(35,38,40,43)        175.4956         estimate D2E/DX2                !
 ! D116  D(35,38,40,44)        -65.788          estimate D2E/DX2                !
 ! D117  D(35,38,40,45)         56.2853         estimate D2E/DX2                !
 ! D118  D(37,39,41,46)       -179.9509         estimate D2E/DX2                !
 ! D119  D(37,39,41,47)         -0.1304         estimate D2E/DX2                !
 ! D120  D(42,39,41,46)          0.0113         estimate D2E/DX2                !
 ! D121  D(42,39,41,47)        179.8318         estimate D2E/DX2                !
 ! D122  D(37,39,42,48)        179.987          estimate D2E/DX2                !
 ! D123  D(41,39,42,48)          0.0227         estimate D2E/DX2                !
 ! D124  D(39,41,46,48)         -0.0511         estimate D2E/DX2                !
 ! D125  D(39,41,46,49)       -179.9496         estimate D2E/DX2                !
 ! D126  D(47,41,46,48)       -179.856          estimate D2E/DX2                !
 ! D127  D(47,41,46,49)          0.2456         estimate D2E/DX2                !
 ! D128  D(39,41,47,50)        178.3503         estimate D2E/DX2                !
 ! D129  D(46,41,47,50)         -1.8537         Frozen                          !
 ! D130  D(39,42,48,46)         -0.0528         estimate D2E/DX2                !
 ! D131  D(39,42,48,51)        179.9307         estimate D2E/DX2                !
 ! D132  D(41,46,48,42)          0.068          estimate D2E/DX2                !
 ! D133  D(41,46,48,51)       -179.914          estimate D2E/DX2                !
 ! D134  D(49,46,48,42)        179.9675         estimate D2E/DX2                !
 ! D135  D(49,46,48,51)         -0.0145         estimate D2E/DX2                !
 ! D136  D(41,47,50,52)         62.0713         estimate D2E/DX2                !
 ! D137  D(41,47,50,53)       -179.1332         estimate D2E/DX2                !
 ! D138  D(41,47,50,54)        -60.2607         estimate D2E/DX2                !
 --------------------------------------------------------------------------------
 Trust Radius=3.00D-01 FncErr=1.00D-07 GrdErr=1.00D-06 EigMax=2.50D+02 EigMin=1.00D-04
 Number of steps in this run=    307 maximum allowed number of steps=    324.
 GradGradGradGradGradGradGradGradGradGradGradGradGradGradGradGradGradGrad

 Stoichiometry    C26H18N2O6S2
 Framework group  C1[X(C26H18N2O6S2)]
 Deg. of freedom   156
 Full point group                 C1      NOp   1
 Largest Abelian subgroup         C1      NOp   1
 Largest concise Abelian subgroup C1      NOp   1
                         Standard orientation:                         
 ---------------------------------------------------------------------
 Center     Atomic      Atomic             Coordinates (Angstroms)
 Number     Number       Type             X           Y           Z
 ---------------------------------------------------------------------
      1          6           0       -2.860320   -2.847003    0.831736
      2          6           0       -2.414398   -1.460401    0.534078
      3          6           0       -3.334893   -0.494329    0.064666
      4          6           0       -4.692182   -0.834808   -0.126522
      5          6           0       -5.171228   -2.214137    0.156105
      6          6           0       -1.092687   -1.129986    0.696078
      7          6           0       -2.866204    0.824710   -0.198495
      8          6           0       -1.488322    1.166586   -0.015553
      9          6           0       -0.568231    0.168783    0.407459
     10          6           0       -1.109943    2.594939   -0.192858
     11          6           0       -3.436268    3.178718   -0.898450
     12          6           0       -3.823621    1.775081   -0.641504
     13          6           0       -5.153803    1.421910   -0.827784
     14          6           0       -5.595642    0.117717   -0.575094
     15          1           0       -6.631641   -0.167314   -0.714062
     16          1           0       -5.838655    2.190109   -1.169490
     17          1           0       -0.422367   -1.918389    1.017719
     18          7           0       -2.103748    3.494447   -0.626329
     19          7           0       -4.214623   -3.132812    0.620765
     20          8           0       -2.102627   -3.715126    1.242132
     21          8           0       -6.337916   -2.540166   -0.003173
     22          8           0       -4.227529    4.019748   -1.306794
     23          8           0        0.005615    3.049972    0.025756
     24          6           0       -1.672849    4.886488   -0.797232
     25          1           0       -1.297676    5.277238    0.149827
     26          1           0       -0.863878    4.938147   -1.530441
     27          1           0       -2.533522    5.456292   -1.136479
     28          6           0       -4.642415   -4.505222    0.914077
     29          1           0       -4.065325   -5.207758    0.309111
     30          1           0       -4.463131   -4.731677    1.966765
     31          1           0       -5.701561   -4.578698    0.682321
     32          6           0        0.880731    0.298141    0.557398
     33          6           0        1.641127    1.249367    1.210936
     34         16           0        1.929104   -0.812236   -0.325733
     35          6           0        3.027501    1.091790    1.016393
     36          1           0        1.207043    2.028011    1.817010
     37          6           0        3.378902    0.006409    0.209120
     38          8           0        4.010286    1.878451    1.530797
     39          6           0        4.698451   -0.438373   -0.138134
     40          6           0        3.626446    2.886007    2.462649
     41          6           0        5.047369   -1.507283   -0.962036
     42         16           0        6.162800    0.340697    0.457276
     43          1           0        4.553196    3.341321    2.810339
     44          1           0        3.002367    3.651430    1.984341
     45          1           0        3.084304    2.454434    3.311790
     46          6           0        6.450166   -1.695388   -1.110673
     47          8           0        4.064839   -2.254775   -1.530168
     48          6           0        7.168252   -0.770266   -0.401805
     49          1           0        6.903528   -2.472234   -1.710990
     50          6           0        4.451768   -3.317305   -2.395099
     51          1           0        8.244021   -0.681012   -0.337965
     52          1           0        5.043131   -4.070585   -1.860372
     53          1           0        3.525495   -3.769543   -2.748475
     54          1           0        5.025193   -2.944296   -3.251834
 ---------------------------------------------------------------------
 Rotational constants (GHZ):           0.1536096           0.0578143           0.0456398
 Standard basis: 6-311+G(d,p) (5D, 7F)
 There are   952 symmetry adapted cartesian basis functions of A   symmetry.
 There are   916 symmetry adapted basis functions of A   symmetry.
   916 basis functions,  1468 primitive gaussians,   952 cartesian basis functions
   134 alpha electrons      134 beta electrons
       nuclear repulsion energy      4084.3033342569 Hartrees.
 NAtoms=   54 NActive=   54 NUniq=   54 SFac= 1.00D+00 NAtFMM=   60 NAOKFM=F Big=F
 Integral buffers will be    131072 words long.
 Raffenetti 2 integral format.
 Two-electron integral symmetry is turned on.
 One-electron integrals computed using PRISM.
 NBasis=   916 RedAO= T EigKep=  1.54D-06  NBF=   916
 NBsUse=   901 1.00D-06 EigRej=  8.88D-07 NBFU=   901
 ExpMin= 4.05D-02 ExpMax= 9.34D+04 ExpMxC= 3.17D+03 IAcc=3 IRadAn=         5 AccDes= 0.00D+00
 Harris functional with IExCor=  402 and IRadAn=       5 diagonalized for initial guess.
 HarFok:  IExCor=  402 AccDes= 0.00D+00 IRadAn=         5 IDoV= 1 UseB2=F ITyADJ=14
 ICtDFT=  3500011 ScaDFX=  1.000000  1.000000  1.000000  1.000000
 FoFCou: FMM=F IPFlag=           0 FMFlag=      100000 FMFlg1=           0
         NFxFlg=           0 DoJE=T BraDBF=F KetDBF=T FulRan=T
         wScrn=  0.000000 ICntrl=       500 IOpCl=  0 I1Cent=   200000004 NGrid=           0
         NMat0=    1 NMatS0=      1 NMatT0=    0 NMatD0=    1 NMtDS0=    0 NMtDT0=    0
 Petite list used in FoFCou.
 Requested convergence on RMS density matrix=1.00D-08 within 128 cycles.
 Requested convergence on MAX density matrix=1.00D-06.
 Requested convergence on             energy=1.00D-06.
 No special actions if energy rises.
 SCF Done:  E(RB3LYP) =  -2359.33324088     A.U. after   17 cycles
            NFock= 17  Conv=0.56D-08     -V/T= 2.0032

 **********************************************************************

            Population analysis using the SCF Density.

 **********************************************************************

 Orbital symmetries:
       Occupied  (A) (A) (A) (A) (A) (A) (A) (A) (A) (A) (A) (A)
                 (A) (A) (A) (A) (A) (A) (A) (A) (A) (A) (A) (A)
                 (A) (A) (A) (A) (A) (A) (A) (A) (A) (A) (A) (A)
                 (A) (A) (A) (A) (A) (A) (A) (A) (A) (A) (A) (A)
                 (A) (A) (A) (A) (A) (A) (A) (A) (A) (A) (A) (A)
                 (A) (A) (A) (A) (A) (A) (A) (A) (A) (A) (A) (A)
                 (A) (A) (A) (A) (A) (A) (A) (A) (A) (A) (A) (A)
                 (A) (A) (A) (A) (A) (A) (A) (A) (A) (A) (A) (A)
                 (A) (A) (A) (A) (A) (A) (A) (A) (A) (A) (A) (A)
                 (A) (A) (A) (A) (A) (A) (A) (A) (A) (A) (A) (A)
                 (A) (A) (A) (A) (A) (A) (A) (A) (A) (A) (A) (A)
                 (A) (A)
       Virtual   (A) (A) (A) (A) (A) (A) (A) (A) (A) (A) (A) (A)
                 (A) (A) (A) (A) (A) (A) (A) (A) (A) (A) (A) (A)
                 (A) (A) (A) (A) (A) (A) (A) (A) (A) (A) (A) (A)
                 (A) (A) (A) (A) (A) (A) (A) (A) (A) (A) (A) (A)
                 (A) (A) (A) (A) (A) (A) (A) (A) (A) (A) (A) (A)
                 (A) (A) (A) (A) (A) (A) (A) (A) (A) (A) (A) (A)
                 (A) (A) (A) (A) (A) (A) (A) (A) (A) (A) (A) (A)
                 (A) (A) (A) (A) (A) (A) (A) (A) (A) (A) (A) (A)
                 (A) (A) (A) (A) (A) (A) (A) (A) (A) (A) (A) (A)
                 (A) (A) (A) (A) (A) (A) (A) (A) (A) (A) (A) (A)
                 (A) (A) (A) (A) (A) (A) (A) (A) (A) (A) (A) (A)
                 (A) (A) (A) (A) (A) (A) (A) (A) (A) (A) (A) (A)
                 (A) (A) (A) (A) (A) (A) (A) (A) (A) (A) (A) (A)
                 (A) (A) (A) (A) (A) (A) (A) (A) (A) (A) (A) (A)
                 (A) (A) (A) (A) (A) (A) (A) (A) (A) (A) (A) (A)
                 (A) (A) (A) (A) (A) (A) (A) (A) (A) (A) (A) (A)
                 (A) (A) (A) (A) (A) (A) (A) (A) (A) (A) (A) (A)
                 (A) (A) (A) (A) (A) (A) (A) (A) (A) (A) (A) (A)
                 (A) (A) (A) (A) (A) (A) (A) (A) (A) (A) (A) (A)
                 (A) (A) (A) (A) (A) (A) (A) (A) (A) (A) (A) (A)
                 (A) (A) (A) (A) (A) (A) (A) (A) (A) (A) (A) (A)
                 (A) (A) (A) (A) (A) (A) (A) (A) (A) (A) (A) (A)
                 (A) (A) (A) (A) (A) (A) (A) (A) (A) (A) (A) (A)
                 (A) (A) (A) (A) (A) (A) (A) (A) (A) (A) (A) (A)
                 (A) (A) (A) (A) (A) (A) (A) (A) (A) (A) (A) (A)
                 (A) (A) (A) (A) (A) (A) (A) (A) (A) (A) (A) (A)
                 (A) (A) (A) (A) (A) (A) (A) (A) (A) (A) (A) (A)
                 (A) (A) (A) (A) (A) (A) (A) (A) (A) (A) (A) (A)
                 (A) (A) (A) (A) (A) (A) (A) (A) (A) (A) (A) (A)
                 (A) (A) (A) (A) (A) (A) (A) (A) (A) (A) (A) (A)
                 (A) (A) (A) (A) (A) (A) (A) (A) (A) (A) (A) (A)
                 (A) (A) (A) (A) (A) (A) (A) (A) (A) (A) (A) (A)
                 (A) (A) (A) (A) (A) (A) (A) (A) (A) (A) (A) (A)
                 (A) (A) (A) (A) (A) (A) (A) (A) (A) (A) (A) (A)
                 (A) (A) (A) (A) (A) (A) (A) (A) (A) (A) (A) (A)
                 (A) (A) (A) (A) (A) (A) (A) (A) (A) (A) (A) (A)
                 (A) (A) (A) (A) (A) (A) (A) (A) (A) (A) (A) (A)
                 (A) (A) (A) (A) (A) (A) (A) (A) (A) (A) (A) (A)
                 (A) (A) (A) (A) (A) (A) (A) (A) (A) (A) (A) (A)
                 (A) (A) (A) (A) (A) (A) (A) (A) (A) (A) (A) (A)
                 (A) (A) (A) (A) (A) (A) (A) (A) (A) (A) (A) (A)
                 (A) (A) (A) (A) (A) (A) (A) (A) (A) (A) (A) (A)
                 (A) (A) (A) (A) (A) (A) (A) (A) (A) (A) (A) (A)
                 (A) (A) (A) (A) (A) (A) (A) (A) (A) (A) (A) (A)
                 (A) (A) (A) (A) (A) (A) (A) (A) (A) (A) (A) (A)
                 (A) (A) (A) (A) (A) (A) (A) (A) (A) (A) (A) (A)
                 (A) (A) (A) (A) (A) (A) (A) (A) (A) (A) (A) (A)
                 (A) (A) (A) (A) (A) (A) (A) (A) (A) (A) (A) (A)
                 (A) (A) (A) (A) (A) (A) (A) (A) (A) (A) (A) (A)
                 (A) (A) (A) (A) (A) (A) (A) (A) (A) (A) (A) (A)
                 (A) (A) (A) (A) (A) (A) (A) (A) (A) (A) (A) (A)
                 (A) (A) (A) (A) (A) (A) (A) (A) (A) (A) (A) (A)
                 (A) (A) (A) (A) (A) (A) (A) (A) (A) (A) (A) (A)
                 (A) (A) (A) (A) (A) (A) (A) (A) (A) (A) (A) (A)
                 (A) (A) (A) (A) (A) (A) (A) (A) (A) (A) (A) (A)
                 (A) (A) (A) (A) (A) (A) (A) (A) (A) (A) (A) (A)
                 (A) (A) (A) (A) (A) (A) (A) (A) (A) (A) (A) (A)
                 (A) (A) (A) (A) (A) (A) (A) (A) (A) (A) (A) (A)
                 (A) (A) (A) (A) (A) (A) (A) (A) (A) (A) (A) (A)
                 (A) (A) (A) (A) (A) (A) (A) (A) (A) (A) (A) (A)
                 (A) (A) (A) (A) (A) (A) (A) (A) (A) (A) (A) (A)
                 (A) (A) (A) (A) (A) (A) (A) (A) (A) (A) (A) (A)
                 (A) (A) (A) (A) (A) (A) (A) (A) (A) (A) (A) (A)
                 (A) (A) (A) (A) (A) (A) (A) (A) (A) (A) (A)
 The electronic state is 1-A.
 Alpha  occ. eigenvalues --  -88.88314 -88.88238 -19.17087 -19.16642 -19.12526
 Alpha  occ. eigenvalues --  -19.12465 -19.11896 -19.11892 -14.38748 -14.38294
 Alpha  occ. eigenvalues --  -10.31193 -10.30999 -10.30884 -10.30523 -10.24637
 Alpha  occ. eigenvalues --  -10.24258 -10.24040 -10.23856 -10.23377 -10.23203
 Alpha  occ. eigenvalues --  -10.23137 -10.22778 -10.22462 -10.22394 -10.22237
 Alpha  occ. eigenvalues --  -10.22052 -10.21776 -10.21609 -10.21496 -10.21305
 Alpha  occ. eigenvalues --  -10.21253 -10.21075 -10.20853 -10.20745 -10.18862
 Alpha  occ. eigenvalues --  -10.18678  -7.96846  -7.96778  -5.93168  -5.93089
 Alpha  occ. eigenvalues --   -5.92780  -5.92701  -5.92391  -5.92346  -1.08624
 Alpha  occ. eigenvalues --   -1.08508  -1.08189  -1.08135  -1.06622  -1.06145
 Alpha  occ. eigenvalues --   -0.96295  -0.95746  -0.92441  -0.90068  -0.88529
 Alpha  occ. eigenvalues --   -0.86599  -0.84342  -0.80411  -0.78527  -0.77564
 Alpha  occ. eigenvalues --   -0.76240  -0.75263  -0.75079  -0.73060  -0.72450
 Alpha  occ. eigenvalues --   -0.71857  -0.70222  -0.68798  -0.67223  -0.65912
 Alpha  occ. eigenvalues --   -0.65574  -0.64753  -0.61028  -0.59729  -0.58599
 Alpha  occ. eigenvalues --   -0.57442  -0.56720  -0.56215  -0.55338  -0.54591
 Alpha  occ. eigenvalues --   -0.53515  -0.51715  -0.50224  -0.49841  -0.49817
 Alpha  occ. eigenvalues --   -0.49501  -0.48723  -0.48620  -0.48574  -0.48129
 Alpha  occ. eigenvalues --   -0.48051  -0.47149  -0.46619  -0.46268  -0.45799
 Alpha  occ. eigenvalues --   -0.45442  -0.45023  -0.44545  -0.44325  -0.43699
 Alpha  occ. eigenvalues --   -0.42689  -0.42415  -0.42306  -0.41935  -0.41759
 Alpha  occ. eigenvalues --   -0.41455  -0.41209  -0.41148  -0.40528  -0.39713
 Alpha  occ. eigenvalues --   -0.39504  -0.39010  -0.38781  -0.37673  -0.37420
 Alpha  occ. eigenvalues --   -0.36309  -0.35551  -0.34210  -0.33814  -0.33615
 Alpha  occ. eigenvalues --   -0.33353  -0.32144  -0.31075  -0.30396  -0.29791
 Alpha  occ. eigenvalues --   -0.29285  -0.28990  -0.28697  -0.28267  -0.27263
 Alpha  occ. eigenvalues --   -0.26201  -0.24604  -0.24318  -0.19236
 Alpha virt. eigenvalues --   -0.13314  -0.07277  -0.06550  -0.04851  -0.04290
 Alpha virt. eigenvalues --   -0.00842  -0.00391  -0.00332   0.00096   0.00499
 Alpha virt. eigenvalues --    0.00670   0.01081   0.01118   0.01325   0.01761
 Alpha virt. eigenvalues --    0.02037   0.02266   0.02418   0.02915   0.03163
 Alpha virt. eigenvalues --    0.03524   0.03714   0.03989   0.04385   0.04518
 Alpha virt. eigenvalues --    0.04648   0.04794   0.05089   0.05649   0.05889
 Alpha virt. eigenvalues --    0.06060   0.06158   0.06295   0.06477   0.06679
 Alpha virt. eigenvalues --    0.07252   0.07357   0.07588   0.07887   0.08127
 Alpha virt. eigenvalues --    0.08483   0.08662   0.08961   0.09119   0.09383
 Alpha virt. eigenvalues --    0.09465   0.09885   0.10046   0.10380   0.10666
 Alpha virt. eigenvalues --    0.10874   0.11128   0.11675   0.11807   0.12102
 Alpha virt. eigenvalues --    0.12435   0.12489   0.12784   0.13032   0.13387
 Alpha virt. eigenvalues --    0.13570   0.13703   0.14226   0.14285   0.14418
 Alpha virt. eigenvalues --    0.14551   0.14788   0.14890   0.15057   0.15236
 Alpha virt. eigenvalues --    0.15315   0.15720   0.15969   0.16132   0.16320
 Alpha virt. eigenvalues --    0.16491   0.16716   0.17145   0.17588   0.17692
 Alpha virt. eigenvalues --    0.17816   0.17899   0.18113   0.18420   0.18554
 Alpha virt. eigenvalues --    0.18697   0.18981   0.19158   0.19507   0.19712
 Alpha virt. eigenvalues --    0.19781   0.19852   0.20008   0.20159   0.20394
 Alpha virt. eigenvalues --    0.20479   0.20758   0.20902   0.21002   0.21193
 Alpha virt. eigenvalues --    0.21551   0.21778   0.21874   0.22212   0.22525
 Alpha virt. eigenvalues --    0.22670   0.22781   0.23001   0.23221   0.23358
 Alpha virt. eigenvalues --    0.23483   0.23630   0.23947   0.24019   0.24257
 Alpha virt. eigenvalues --    0.24426   0.24881   0.25028   0.25129   0.25427
 Alpha virt. eigenvalues --    0.25659   0.25822   0.25870   0.26264   0.26311
 Alpha virt. eigenvalues --    0.26536   0.26614   0.26652   0.27114   0.27482
 Alpha virt. eigenvalues --    0.27617   0.27802   0.28029   0.28104   0.28297
 Alpha virt. eigenvalues --    0.28436   0.28557   0.28980   0.29019   0.29453
 Alpha virt. eigenvalues --    0.29646   0.29826   0.30020   0.30087   0.30712
 Alpha virt. eigenvalues --    0.30847   0.31153   0.31300   0.31656   0.31795
 Alpha virt. eigenvalues --    0.32219   0.32418   0.32605   0.32834   0.33051
 Alpha virt. eigenvalues --    0.33312   0.33784   0.34074   0.34291   0.34339
 Alpha virt. eigenvalues --    0.34737   0.34980   0.35388   0.35586   0.35823
 Alpha virt. eigenvalues --    0.36197   0.36872   0.37031   0.37371   0.37973
 Alpha virt. eigenvalues --    0.38160   0.38480   0.38935   0.39159   0.39677
 Alpha virt. eigenvalues --    0.40015   0.40360   0.40669   0.41104   0.41167
 Alpha virt. eigenvalues --    0.41758   0.42324   0.42661   0.43161   0.43746
 Alpha virt. eigenvalues --    0.43766   0.44046   0.44639   0.44987   0.45135
 Alpha virt. eigenvalues --    0.45362   0.45901   0.45928   0.46180   0.46486
 Alpha virt. eigenvalues --    0.46843   0.47275   0.47882   0.48763   0.49399
 Alpha virt. eigenvalues --    0.49932   0.50088   0.50351   0.50830   0.51389
 Alpha virt. eigenvalues --    0.51947   0.52099   0.52889   0.53638   0.53727
 Alpha virt. eigenvalues --    0.54268   0.54812   0.55096   0.55617   0.55738
 Alpha virt. eigenvalues --    0.56078   0.56474   0.56842   0.56974   0.57108
 Alpha virt. eigenvalues --    0.57877   0.58382   0.58745   0.58909   0.59127
 Alpha virt. eigenvalues --    0.59460   0.60085   0.60520   0.60861   0.61421
 Alpha virt. eigenvalues --    0.61651   0.61828   0.62418   0.63154   0.63663
 Alpha virt. eigenvalues --    0.63791   0.64092   0.64477   0.64591   0.64940
 Alpha virt. eigenvalues --    0.65054   0.65446   0.65836   0.66109   0.66556
 Alpha virt. eigenvalues --    0.66837   0.66921   0.67765   0.68173   0.68326
 Alpha virt. eigenvalues --    0.69318   0.69536   0.69613   0.70193   0.70448
 Alpha virt. eigenvalues --    0.71085   0.71542   0.71727   0.71902   0.72154
 Alpha virt. eigenvalues --    0.72584   0.73090   0.73350   0.73574   0.74094
 Alpha virt. eigenvalues --    0.74327   0.74702   0.74879   0.75086   0.75719
 Alpha virt. eigenvalues --    0.76030   0.76381   0.76644   0.77008   0.77131
 Alpha virt. eigenvalues --    0.77552   0.77981   0.78311   0.78786   0.79618
 Alpha virt. eigenvalues --    0.79721   0.80311   0.81125   0.81698   0.82325
 Alpha virt. eigenvalues --    0.83110   0.83667   0.84310   0.84563   0.85991
 Alpha virt. eigenvalues --    0.86803   0.87198   0.87289   0.87915   0.88594
 Alpha virt. eigenvalues --    0.88884   0.89021   0.89564   0.90356   0.91124
 Alpha virt. eigenvalues --    0.91355   0.91603   0.92198   0.92395   0.92809
 Alpha virt. eigenvalues --    0.93658   0.93744   0.93963   0.94686   0.95100
 Alpha virt. eigenvalues --    0.95473   0.95816   0.96372   0.96870   0.97355
 Alpha virt. eigenvalues --    0.97760   0.98634   0.98866   0.99319   0.99742
 Alpha virt. eigenvalues --    1.00615   1.01075   1.01292   1.02014   1.02159
 Alpha virt. eigenvalues --    1.02989   1.03294   1.03573   1.04361   1.04552
 Alpha virt. eigenvalues --    1.04877   1.05263   1.05616   1.06067   1.06295
 Alpha virt. eigenvalues --    1.06643   1.07061   1.07490   1.07781   1.08041
 Alpha virt. eigenvalues --    1.08633   1.08954   1.10167   1.10263   1.10551
 Alpha virt. eigenvalues --    1.11273   1.11906   1.12313   1.13949   1.14507
 Alpha virt. eigenvalues --    1.15330   1.16003   1.16804   1.17651   1.17827
 Alpha virt. eigenvalues --    1.18197   1.18774   1.19615   1.20461   1.21258
 Alpha virt. eigenvalues --    1.22260   1.22737   1.23707   1.24501   1.25443
 Alpha virt. eigenvalues --    1.25694   1.25926   1.26322   1.26960   1.27452
 Alpha virt. eigenvalues --    1.28038   1.29360   1.29729   1.30558   1.31258
 Alpha virt. eigenvalues --    1.31808   1.32565   1.33961   1.35248   1.35277
 Alpha virt. eigenvalues --    1.35771   1.36015   1.36701   1.39393   1.39801
 Alpha virt. eigenvalues --    1.40648   1.41015   1.42042   1.42189   1.42652
 Alpha virt. eigenvalues --    1.42833   1.43273   1.43729   1.44286   1.44382
 Alpha virt. eigenvalues --    1.44697   1.45042   1.45154   1.45523   1.45678
 Alpha virt. eigenvalues --    1.46485   1.46930   1.47394   1.47925   1.49139
 Alpha virt. eigenvalues --    1.50371   1.50934   1.51666   1.52040   1.52243
 Alpha virt. eigenvalues --    1.53015   1.53714   1.54424   1.54762   1.55144
 Alpha virt. eigenvalues --    1.55476   1.55590   1.55801   1.56107   1.57035
 Alpha virt. eigenvalues --    1.57182   1.58767   1.60034   1.61114   1.61762
 Alpha virt. eigenvalues --    1.62258   1.62650   1.63545   1.63711   1.64483
 Alpha virt. eigenvalues --    1.65394   1.65857   1.66561   1.67028   1.67366
 Alpha virt. eigenvalues --    1.67587   1.68653   1.69173   1.69345   1.69679
 Alpha virt. eigenvalues --    1.70068   1.70427   1.70930   1.71097   1.71474
 Alpha virt. eigenvalues --    1.73221   1.73922   1.74379   1.74832   1.75692
 Alpha virt. eigenvalues --    1.75741   1.76463   1.77186   1.77690   1.78748
 Alpha virt. eigenvalues --    1.79449   1.79543   1.79985   1.80076   1.82533
 Alpha virt. eigenvalues --    1.83509   1.84004   1.84274   1.85866   1.86078
 Alpha virt. eigenvalues --    1.86461   1.86742   1.87695   1.88435   1.88525
 Alpha virt. eigenvalues --    1.89266   1.89834   1.90210   1.90707   1.91465
 Alpha virt. eigenvalues --    1.91974   1.92602   1.94128   1.94453   1.94978
 Alpha virt. eigenvalues --    1.95774   1.96419   1.97377   1.97667   1.99102
 Alpha virt. eigenvalues --    1.99676   2.00327   2.00845   2.01748   2.01847
 Alpha virt. eigenvalues --    2.03171   2.03584   2.03930   2.04088   2.04468
 Alpha virt. eigenvalues --    2.06107   2.06183   2.06459   2.06819   2.07409
 Alpha virt. eigenvalues --    2.08709   2.08985   2.09788   2.11046   2.11447
 Alpha virt. eigenvalues --    2.12157   2.13065   2.14206   2.14779   2.15275
 Alpha virt. eigenvalues --    2.15537   2.16513   2.17633   2.18392   2.18964
 Alpha virt. eigenvalues --    2.19350   2.20102   2.20611   2.21597   2.21969
 Alpha virt. eigenvalues --    2.23226   2.25960   2.26177   2.27472   2.28514
 Alpha virt. eigenvalues --    2.31231   2.32051   2.32660   2.34650   2.36983
 Alpha virt. eigenvalues --    2.37836   2.38846   2.39141   2.41444   2.42707
 Alpha virt. eigenvalues --    2.43251   2.43721   2.44102   2.45044   2.46138
 Alpha virt. eigenvalues --    2.46482   2.47238   2.48234   2.48567   2.49223
 Alpha virt. eigenvalues --    2.50076   2.51766   2.51951   2.52178   2.52503
 Alpha virt. eigenvalues --    2.53106   2.53271   2.53391   2.54367   2.55158
 Alpha virt. eigenvalues --    2.56381   2.57850   2.58630   2.58957   2.59701
 Alpha virt. eigenvalues --    2.62630   2.63139   2.63402   2.64979   2.66680
 Alpha virt. eigenvalues --    2.67029   2.67588   2.67738   2.68150   2.68465
 Alpha virt. eigenvalues --    2.68859   2.69484   2.70179   2.70681   2.71171
 Alpha virt. eigenvalues --    2.71981   2.72405   2.72720   2.74217   2.75441
 Alpha virt. eigenvalues --    2.76288   2.76782   2.77663   2.79136   2.80525
 Alpha virt. eigenvalues --    2.82388   2.82606   2.83254   2.83468   2.83657
 Alpha virt. eigenvalues --    2.84573   2.85072   2.85747   2.85945   2.87171
 Alpha virt. eigenvalues --    2.88076   2.88545   2.88692   2.89879   2.91066
 Alpha virt. eigenvalues --    2.91631   2.92339   2.93042   2.93835   2.94693
 Alpha virt. eigenvalues --    2.95033   2.95687   2.96677   2.99207   2.99792
 Alpha virt. eigenvalues --    3.00469   3.02067   3.03401   3.04394   3.04981
 Alpha virt. eigenvalues --    3.05871   3.07989   3.08342   3.08837   3.11061
 Alpha virt. eigenvalues --    3.11303   3.12669   3.13925   3.14297   3.15104
 Alpha virt. eigenvalues --    3.16998   3.17265   3.19425   3.19625   3.21732
 Alpha virt. eigenvalues --    3.23225   3.23652   3.23984   3.24212   3.26422
 Alpha virt. eigenvalues --    3.28554   3.28900   3.30862   3.31994   3.33833
 Alpha virt. eigenvalues --    3.34386   3.34577   3.34939   3.35883   3.37186
 Alpha virt. eigenvalues --    3.37898   3.39487   3.41255   3.42206   3.43399
 Alpha virt. eigenvalues --    3.44219   3.45573   3.46019   3.48561   3.48857
 Alpha virt. eigenvalues --    3.50548   3.53354   3.55513   3.57558   3.59527
 Alpha virt. eigenvalues --    3.60024   3.61534   3.64922   3.65871   3.66510
 Alpha virt. eigenvalues --    3.69719   3.70184   3.72074   3.72635   3.75482
 Alpha virt. eigenvalues --    3.75970   3.76630   3.80991   3.82306   3.84453
 Alpha virt. eigenvalues --    3.85332   3.86247   3.90177   3.91409   3.92680
 Alpha virt. eigenvalues --    3.93082   3.93953   3.96746   4.01315   4.02648
 Alpha virt. eigenvalues --    4.04622   4.08257   4.10374   4.12607   4.13929
 Alpha virt. eigenvalues --    4.19234   4.23375   4.25180   4.27147   4.35096
 Alpha virt. eigenvalues --    4.39004   4.39939   4.51617   4.67824   4.83890
 Alpha virt. eigenvalues --    4.85761   4.87241   4.90303   5.01335   5.03254
 Alpha virt. eigenvalues --    5.03829   5.05331   5.05567   5.08342   5.11156
 Alpha virt. eigenvalues --    5.13014   5.24843   5.26749   5.28911   5.31284
 Alpha virt. eigenvalues --    5.42405   5.43389   5.75388   5.76680   5.79859
 Alpha virt. eigenvalues --    5.80409   5.81755   5.85081   8.02237   8.04202
 Alpha virt. eigenvalues --   17.29148  17.32865  17.49359  17.52352  17.57298
 Alpha virt. eigenvalues --   17.62206  23.48886  23.56488  23.72048  23.78879
 Alpha virt. eigenvalues --   23.82113  23.82460  23.83787  23.86375  23.86577
 Alpha virt. eigenvalues --   23.87945  23.89021  23.90137  23.91271  23.92843
 Alpha virt. eigenvalues --   23.94501  23.95241  23.95943  23.97742  24.00083
 Alpha virt. eigenvalues --   24.01938  24.02607  24.04621  24.12211  24.12886
 Alpha virt. eigenvalues --   24.13732  24.14387  35.55891  35.58774  49.95970
 Alpha virt. eigenvalues --   49.97618  50.01813  50.03721  50.05523  50.07155
 Alpha virt. eigenvalues --  189.19405 189.22059
          Condensed to atoms (all electrons):
 Mulliken charges:
               1
     1  C    0.373208
     2  C   -0.147838
     3  C    0.147142
     4  C    0.226920
     5  C    0.256089
     6  C   -0.947050
     7  C    0.156104
     8  C    0.158413
     9  C    0.870247
    10  C   -0.405496
    11  C    0.200842
    12  C    0.199694
    13  C   -0.486837
    14  C   -0.557315
    15  H    0.160676
    16  H    0.163008
    17  H    0.175068
    18  N   -0.154620
    19  N   -0.133526
    20  O   -0.278052
    21  O   -0.273745
    22  O   -0.277801
    23  O   -0.194959
    24  C   -0.207782
    25  H    0.171240
    26  H    0.175911
    27  H    0.183727
    28  C   -0.197675
    29  H    0.174466
    30  H    0.175103
    31  H    0.182434
    32  C   -0.093847
    33  C   -0.260578
    34  S   -0.438750
    35  C   -0.040326
    36  H    0.142574
    37  C    0.640076
    38  O   -0.124729
    39  C    0.754835
    40  C   -0.239102
    41  C    0.043201
    42  S   -0.257831
    43  H    0.164228
    44  H    0.158320
    45  H    0.146960
    46  C   -0.589412
    47  O   -0.132073
    48  C   -0.269833
    49  H    0.131670
    50  C   -0.240503
    51  H    0.160308
    52  H    0.145466
    53  H    0.166324
    54  H    0.145427
 Sum of Mulliken charges =  -0.00000
 Mulliken charges with hydrogens summed into heavy atoms:
               1
     1  C    0.373208
     2  C   -0.147838
     3  C    0.147142
     4  C    0.226920
     5  C    0.256089
     6  C   -0.771981
     7  C    0.156104
     8  C    0.158413
     9  C    0.870247
    10  C   -0.405496
    11  C    0.200842
    12  C    0.199694
    13  C   -0.323829
    14  C   -0.396639
    18  N   -0.154620
    19  N   -0.133526
    20  O   -0.278052
    21  O   -0.273745
    22  O   -0.277801
    23  O   -0.194959
    24  C    0.323096
    28  C    0.334328
    32  C   -0.093847
    33  C   -0.118004
    34  S   -0.438750
    35  C   -0.040326
    37  C    0.640076
    38  O   -0.124729
    39  C    0.754835
    40  C    0.230406
    41  C    0.043201
    42  S   -0.257831
    46  C   -0.457742
    47  O   -0.132073
    48  C   -0.109525
    50  C    0.216714
 Electronic spatial extent (au):  <R**2>=          22316.5535
 Charge=             -0.0000 electrons
 Dipole moment (field-independent basis, Debye):
    X=              3.6178    Y=             -0.5704    Z=              0.0682  Tot=              3.6632
 Quadrupole moment (field-independent basis, Debye-Ang):
   XX=           -218.5836   YY=           -217.3835   ZZ=           -213.9894
   XY=             -3.8528   XZ=             -8.7439   YZ=             18.5118
 Traceless Quadrupole moment (field-independent basis, Debye-Ang):
   XX=             -1.9315   YY=             -0.7313   ZZ=              2.6628
   XY=             -3.8528   XZ=             -8.7439   YZ=             18.5118
 Octapole moment (field-independent basis, Debye-Ang**2):
  XXX=            324.5218  YYY=            -22.6925  ZZZ=              3.9842  XYY=             95.4237
  XXY=            -66.5226  XXZ=            -13.6320  XZZ=             35.0864  YZZ=             -1.9228
  YYZ=             -2.1156  XYZ=             49.8525
 Hexadecapole moment (field-independent basis, Debye-Ang**3):
 XXXX=         -20944.7381 YYYY=          -7134.5615 ZZZZ=          -1453.2378 XXXY=           -518.6402
 XXXZ=           -317.4198 YYYX=            310.0524 YYYZ=            236.0163 ZZZX=            -27.5321
 ZZZY=            102.7936 XXYY=          -4828.0927 XXZZ=          -3728.9832 YYZZ=          -1390.4998
 XXYZ=            313.3932 YYXZ=           -191.9973 ZZXY=             38.5548
 N-N= 4.084303334257D+03 E-N=-1.370848544560D+04  KE= 2.351831776211D+03
 Calling FoFJK, ICntrl=      2127 FMM=F ISym2X=0 I1Cent= 0 IOpClX= 0 NMat=1 NMatS=1 NMatT=0.
 ***** Axes restored to original set *****
 -------------------------------------------------------------------
 Center     Atomic                   Forces (Hartrees/Bohr)
 Number     Number              X              Y              Z
 -------------------------------------------------------------------
      1        6           0.004668435   -0.006061762    0.000327336
      2        6          -0.000767506    0.000988080   -0.000747123
      3        6           0.001467443   -0.000869716   -0.000266731
      4        6          -0.000755689    0.001746548    0.000605361
      5        6          -0.005755238   -0.002564006   -0.000269867
      6        6           0.000946782    0.002722225   -0.009161279
      7        6          -0.000431280   -0.000632838    0.001683744
      8        6           0.001995784   -0.004904419    0.007693305
      9        6          -0.008024187   -0.004657501    0.000925751
     10        6           0.006645892    0.005858154   -0.000640262
     11        6          -0.003899466    0.005920781    0.000258572
     12        6          -0.000966512   -0.000640823    0.000239996
     13        6           0.000694951    0.000021096   -0.000315669
     14        6           0.001827357   -0.000664928   -0.000095996
     15        1           0.000600336    0.000695184    0.000013189
     16        1           0.000615596   -0.001073683   -0.000318877
     17        1           0.001158944    0.001443697    0.002318706
     18        7          -0.000846805   -0.001393856   -0.002020129
     19        7           0.000497794    0.001635369   -0.000040889
     20        8          -0.006515094    0.006759782    0.000786211
     21        8           0.007405288    0.002372752    0.000212313
     22        8           0.006224491   -0.006177559   -0.000520876
     23        8          -0.008999704   -0.004224827   -0.001589347
     24        6           0.000913906    0.002530747   -0.000970655
     25        1          -0.000642043    0.000011876   -0.000317662
     26        1          -0.001235607   -0.000652211    0.001233772
     27        1           0.001007648    0.000014264    0.000129826
     28        6          -0.000511879   -0.002052243   -0.000692228
     29        1          -0.000683653    0.000397046    0.001010709
     30        1          -0.000451433    0.000418113   -0.000515290
     31        1           0.000952939   -0.000381048   -0.000027629
     32        6           0.008914766    0.011776152   -0.000449129
     33        6          -0.002648737   -0.003847210   -0.001237796
     34       16          -0.003897444   -0.002395462    0.003427102
     35        6           0.000831858   -0.004332043   -0.002983125
     36        1          -0.000284653    0.000737371   -0.001896332
     37        6          -0.000914865    0.000914627    0.004432201
     38        8          -0.000418049   -0.001339575    0.001801014
     39        6           0.001844330    0.000027198   -0.003764744
     40        6          -0.000891886    0.002260718    0.000924712
     41        6           0.000663485    0.001558811    0.003248996
     42       16          -0.000572637   -0.000417658   -0.002011006
     43        1          -0.000501055   -0.000491594   -0.000079141
     44        1           0.001033019   -0.001270506   -0.000572755
     45        1           0.001118921    0.000246501   -0.000569750
     46        6          -0.000304830    0.000401812    0.000742326
     47        8           0.000748041    0.000189247   -0.000891111
     48        6           0.000156272   -0.000467870   -0.000410650
     49        1          -0.000016821    0.000437548    0.000827224
     50        6           0.000336103   -0.001251700   -0.001571056
     51        1          -0.001432352   -0.000236554    0.000432719
     52        1          -0.000976696    0.000803651    0.000406719
     53        1           0.000661407    0.000306174    0.000343644
     54        1          -0.000585670   -0.000193934    0.000921659
 -------------------------------------------------------------------
 Cartesian Forces:  Max     0.011776152 RMS     0.002807729

 GradGradGradGradGradGradGradGradGradGradGradGradGradGradGradGradGradGrad
 Berny optimization.
 FormGI is forming the generalized inverse of G from B-inverse, IUseBI=4.
 Internal  Forces:  Max     0.010056742 RMS     0.001648829
 Search for a local minimum.
 Step number   1 out of a maximum of  307
 All quantities printed in internal units (Hartrees-Bohrs-Radians)
 Mixed Optimization -- RFO/linear search
 Second derivative matrix not updated -- first step.
 ITU=  0
     Eigenvalues ---    0.01155   0.01172   0.01239   0.01297   0.01360
     Eigenvalues ---    0.01379   0.01397   0.01410   0.01451   0.01469
     Eigenvalues ---    0.01511   0.01543   0.01567   0.01585   0.01624
     Eigenvalues ---    0.01650   0.01679   0.01694   0.01718   0.01719
     Eigenvalues ---    0.01721   0.01763   0.01799   0.01845   0.01978
     Eigenvalues ---    0.02039   0.02050   0.02076   0.02089   0.02097
     Eigenvalues ---    0.02133   0.02149   0.02162   0.02175   0.02197
     Eigenvalues ---    0.02248   0.04601   0.04620   0.07665   0.07667
     Eigenvalues ---    0.10055   0.10073   0.10633   0.10635   0.15983
     Eigenvalues ---    0.15999   0.15999   0.16000   0.16000   0.16000
     Eigenvalues ---    0.16000   0.16000   0.16000   0.16000   0.16000
     Eigenvalues ---    0.16000   0.16000   0.16000   0.16000   0.16000
     Eigenvalues ---    0.16000   0.16000   0.22530   0.22583   0.23517
     Eigenvalues ---    0.23582   0.24513   0.24747   0.24864   0.24906
     Eigenvalues ---    0.24952   0.24985   0.24986   0.24988   0.24992
     Eigenvalues ---    0.24994   0.24996   0.24997   0.24998   0.24998
     Eigenvalues ---    0.25000   0.25000   0.25000   0.25000   0.25000
     Eigenvalues ---    0.25000   0.25000   0.25000   0.25000   0.25000
     Eigenvalues ---    0.28808   0.28834   0.30065   0.32058   0.32582
     Eigenvalues ---    0.32774   0.33104   0.33787   0.33979   0.34033
     Eigenvalues ---    0.34091   0.34128   0.34353   0.34466   0.34577
     Eigenvalues ---    0.34629   0.34693   0.34851   0.34868   0.35198
     Eigenvalues ---    0.35218   0.35468   0.35553   0.35582   0.35827
     Eigenvalues ---    0.35832   0.36078   0.36083   0.36239   0.36393
     Eigenvalues ---    0.36662   0.39348   0.40194   0.40260   0.40651
     Eigenvalues ---    0.40801   0.41524   0.41705   0.41915   0.42300
     Eigenvalues ---    0.42731   0.43455   0.44002   0.44092   0.44565
     Eigenvalues ---    0.44594   0.45014   0.45405   0.46251   0.47305
     Eigenvalues ---    0.47518   0.49309   0.49560   0.52969   0.53150
     Eigenvalues ---    0.93281   0.93432   0.93989   0.945851000.00000
     Eigenvalues --- 1000.000001000.000001000.000001000.000001000.00000
     Eigenvalues --- 1000.000001000.000001000.000001000.000001000.00000
     Eigenvalues --- 1000.000001000.000001000.000001000.000001000.00000
     Eigenvalues --- 1000.000001000.000001000.000001000.000001000.00000
     Eigenvalues --- 1000.000001000.000001000.000001000.000001000.00000
     Eigenvalues --- 1000.000001000.000001000.000001000.000001000.00000
     Eigenvalues --- 1000.000001000.000001000.000001000.000001000.00000
     Eigenvalues --- 1000.000001000.000001000.000001000.000001000.00000
     Eigenvalues --- 1000.000001000.000001000.000001000.000001000.00000
     Eigenvalues --- 1000.000001000.000001000.000001000.000001000.00000
     Eigenvalues --- 1000.000001000.000001000.000001000.000001000.00000
     Eigenvalues --- 1000.000001000.000001000.000001000.000001000.00000
     Eigenvalues --- 1000.000001000.000001000.000001000.000001000.00000
     Eigenvalues --- 1000.000001000.000001000.000001000.000001000.00000
     Eigenvalues --- 1000.000001000.000001000.000001000.000001000.00000
     Eigenvalues --- 1000.000001000.000001000.000001000.000001000.00000
     Eigenvalues --- 1000.000001000.000001000.000001000.000001000.00000
     Eigenvalues --- 1000.000001000.000001000.000001000.000001000.00000
     Eigenvalues --- 1000.000001000.000001000.000001000.000001000.00000
     Eigenvalues --- 1000.000001000.000001000.000001000.000001000.00000
     Eigenvalues --- 1000.000001000.000001000.000001000.000001000.00000
     Eigenvalues --- 1000.000001000.000001000.000001000.000001000.00000
     Eigenvalues --- 1000.000001000.000001000.000001000.000001000.00000
     Eigenvalues --- 1000.000001000.000001000.000001000.000001000.00000
     Eigenvalues --- 1000.000001000.000001000.000001000.000001000.00000
     Eigenvalues --- 1000.000001000.000001000.000001000.000001000.00000
     Eigenvalues --- 1000.000001000.000001000.000001000.000001000.00000
     Eigenvalues --- 1000.000001000.000001000.000001000.000001000.00000
     Eigenvalues --- 1000.000001000.000001000.000001000.000001000.00000
     Eigenvalues --- 1000.000001000.00000
 RFO step:  Lambda=-6.09452610D-03 EMin= 1.15532236D-02
 Linear search not attempted -- first point.
 Iteration  1 RMS(Cart)=  0.14706498 RMS(Int)=  0.00236773
 Iteration  2 RMS(Cart)=  0.00726442 RMS(Int)=  0.00043170
 Iteration  3 RMS(Cart)=  0.00000894 RMS(Int)=  0.00043169
 Iteration  4 RMS(Cart)=  0.00000000 RMS(Int)=  0.00043169
 Iteration  1 RMS(Cart)=  0.00010181 RMS(Int)=  0.00002369
 Iteration  2 RMS(Cart)=  0.00005524 RMS(Int)=  0.00002639
 Iteration  3 RMS(Cart)=  0.00003019 RMS(Int)=  0.00003000
 Iteration  4 RMS(Cart)=  0.00001657 RMS(Int)=  0.00003259
 Iteration  5 RMS(Cart)=  0.00000912 RMS(Int)=  0.00003424
 Iteration  6 RMS(Cart)=  0.00000502 RMS(Int)=  0.00003525
 Iteration  7 RMS(Cart)=  0.00000276 RMS(Int)=  0.00003586
 Iteration  8 RMS(Cart)=  0.00000152 RMS(Int)=  0.00003623
 Iteration  9 RMS(Cart)=  0.00000083 RMS(Int)=  0.00003646
 Variable       Old X    -DE/DX   Delta X   Delta X   Delta X     New X
                                 (Linear)    (Quad)   (Total)
    R1        2.80935  -0.00032   0.00000  -0.00097  -0.00097   2.80838
    R2        2.64584  -0.00113   0.00000  -0.00251  -0.00252   2.64332
    R3        2.31147  -0.00942   0.00000  -0.00995  -0.00995   2.30152
    R4        2.67311  -0.00245   0.00000  -0.00534  -0.00546   2.66765
    R5        2.59267  -0.00084   0.00000  -0.00174  -0.00186   2.59082
    R6        2.66894  -0.00137   0.00000  -0.00296  -0.00295   2.66599
    R7        2.69164  -0.00088   0.00000  -0.00142  -0.00139   2.69025
    R8        2.81049  -0.00021   0.00000  -0.00057  -0.00057   2.80993
    R9        2.62173  -0.00240   0.00000  -0.00516  -0.00520   2.61653
   R10        2.65570  -0.00136   0.00000  -0.00304  -0.00304   2.65266
   R11        2.30889  -0.00778   0.00000  -0.00817  -0.00817   2.30072
   R12        2.70248  -0.00419   0.00000  -0.01042  -0.01042   2.69205
   R13        2.04786  -0.00053   0.00000  -0.00146  -0.00146   2.04640
   R14        2.70495  -0.00126   0.00000  -0.00278  -0.00249   2.70246
   R15        2.68322  -0.00117   0.00000  -0.00235  -0.00233   2.68089
   R16        2.68655  -0.00305   0.00000  -0.00732  -0.00720   2.67935
   R17        2.81233   0.00089   0.00000   0.00252   0.00270   2.81503
   R18        2.76359   0.00332   0.00000   0.00890   0.00890   2.77250
   R19        2.66221  -0.00093   0.00000  -0.00223  -0.00222   2.65999
   R20        2.31391  -0.01006   0.00000  -0.01069  -0.01069   2.30321
   R21        2.79415  -0.00013   0.00000  -0.00033  -0.00053   2.79362
   R22        2.63842  -0.00195   0.00000  -0.00426  -0.00443   2.63399
   R23        2.31456  -0.00877   0.00000  -0.00934  -0.00934   2.30522
   R24        2.62448  -0.00191   0.00000  -0.00405  -0.00404   2.62044
   R25        2.64561  -0.00162   0.00000  -0.00379  -0.00382   2.64179
   R26        2.04921  -0.00122   0.00000  -0.00337  -0.00337   2.04584
   R27        2.04741  -0.00079   0.00000  -0.00218  -0.00218   2.04523
   R28        2.77259   0.00184   0.00000   0.00502   0.00502   2.77761
   R29        2.77252   0.00174   0.00000   0.00474   0.00474   2.77726
   R30        2.06176  -0.00061   0.00000  -0.00171  -0.00171   2.06005
   R31        2.06551  -0.00185   0.00000  -0.00527  -0.00527   2.06024
   R32        2.05322  -0.00085   0.00000  -0.00238  -0.00238   2.05084
   R33        2.06368  -0.00127   0.00000  -0.00361  -0.00361   2.06007
   R34        2.06281  -0.00079   0.00000  -0.00223  -0.00223   2.06058
   R35        2.05355  -0.00091   0.00000  -0.00253  -0.00253   2.05102
   R36        2.61175  -0.00562   0.00000  -0.01202  -0.01146   2.60029
   R37        3.33361  -0.00408   0.00000  -0.01433  -0.01387   3.31974
   R38        2.66224   0.00019   0.00000   0.00033   0.00028   2.66252
   R39        2.03709  -0.00127   0.00000  -0.00344  -0.00344   2.03365
   R40        3.30468  -0.00003   0.00000   0.00070   0.00031   3.30499
   R41        2.64104  -0.00326   0.00000  -0.00640  -0.00700   2.63404
   R42        2.56983   0.00061   0.00000   0.00113   0.00113   2.57096
   R43        2.71202   0.00126   0.00000   0.00307   0.00307   2.71509
   R44        2.69301  -0.00010   0.00000  -0.00023  -0.00023   2.69277
   R45        2.63421  -0.00287   0.00000  -0.00618  -0.00618   2.62802
   R46        3.33031  -0.00122   0.00000  -0.00398  -0.00399   3.32632
   R47        2.05890  -0.00065   0.00000  -0.00183  -0.00183   2.05707
   R48        2.07365  -0.00163   0.00000  -0.00472  -0.00472   2.06893
   R49        2.07114  -0.00086   0.00000  -0.00247  -0.00247   2.06867
   R50        2.68934  -0.00100   0.00000  -0.00251  -0.00251   2.68683
   R51        2.56814   0.00028   0.00000   0.00051   0.00051   2.56865
   R52        3.26392  -0.00156   0.00000  -0.00449  -0.00449   3.25943
   R53        2.58692  -0.00181   0.00000  -0.00350  -0.00350   2.58342
   R54        2.04353  -0.00089   0.00000  -0.00246  -0.00246   2.04108
   R55        2.69032  -0.00003   0.00000  -0.00008  -0.00008   2.69024
   R56        2.04346  -0.00149   0.00000  -0.00409  -0.00409   2.03937
   R57        2.07274  -0.00122   0.00000  -0.00353  -0.00353   2.06921
   R58        2.05917  -0.00080   0.00000  -0.00224  -0.00224   2.05693
   R59        2.07177  -0.00093   0.00000  -0.00269  -0.00269   2.06908
    A1        2.03797   0.00048   0.00000   0.00195   0.00192   2.03989
    A2        2.14521  -0.00052   0.00000  -0.00206  -0.00205   2.14316
    A3        2.10001   0.00004   0.00000   0.00011   0.00012   2.10013
    A4        2.10395   0.00009   0.00000   0.00043   0.00041   2.10436
    A5        2.08282   0.00098   0.00000   0.00353   0.00352   2.08634
    A6        2.09624  -0.00106   0.00000  -0.00377  -0.00378   2.09246
    A7        2.10093  -0.00005   0.00000  -0.00093  -0.00103   2.09990
    A8        2.07104   0.00042   0.00000   0.00216   0.00219   2.07324
    A9        2.11118  -0.00036   0.00000  -0.00111  -0.00115   2.11003
   A10        2.10296   0.00001   0.00000   0.00038   0.00037   2.10333
   A11        2.09911  -0.00009   0.00000  -0.00036  -0.00042   2.09869
   A12        2.08110   0.00008   0.00000   0.00004   0.00003   2.08113
   A13        2.03739   0.00032   0.00000   0.00146   0.00144   2.03883
   A14        2.12972  -0.00002   0.00000  -0.00017  -0.00016   2.12956
   A15        2.11607  -0.00030   0.00000  -0.00128  -0.00128   2.11479
   A16        2.15098   0.00028   0.00000   0.00141   0.00062   2.15160
   A17        2.04399   0.00192   0.00000   0.01313   0.01214   2.05613
   A18        2.08722  -0.00211   0.00000  -0.01124  -0.01219   2.07503
   A19        2.11101   0.00004   0.00000   0.00011   0.00009   2.11110
   A20        2.04385   0.00029   0.00000   0.00146   0.00107   2.04491
   A21        2.12832  -0.00033   0.00000  -0.00145  -0.00145   2.12687
   A22        2.08678  -0.00130   0.00000  -0.00380  -0.00452   2.08226
   A23        2.04738  -0.00033   0.00000   0.00073   0.00016   2.04754
   A24        2.14662   0.00176   0.00000   0.00819   0.00676   2.15338
   A25        2.04892   0.00168   0.00000   0.00586   0.00618   2.05510
   A26        2.00754  -0.00692   0.00000  -0.02686  -0.02707   1.98047
   A27        2.22643   0.00523   0.00000   0.02060   0.02035   2.24678
   A28        2.06022   0.00067   0.00000   0.00293   0.00279   2.06302
   A29        2.17370  -0.00077   0.00000  -0.00285  -0.00356   2.17014
   A30        2.04919   0.00011   0.00000   0.00065  -0.00009   2.04910
   A31        2.01621   0.00059   0.00000   0.00279   0.00253   2.01873
   A32        2.14188  -0.00064   0.00000  -0.00260  -0.00258   2.13930
   A33        2.12500   0.00005   0.00000   0.00011   0.00013   2.12513
   A34        2.10943   0.00035   0.00000   0.00197   0.00182   2.11125
   A35        2.11468  -0.00050   0.00000  -0.00160  -0.00162   2.11306
   A36        2.05896   0.00015   0.00000  -0.00001  -0.00013   2.05884
   A37        2.11176   0.00019   0.00000   0.00055   0.00053   2.11229
   A38        2.05670   0.00028   0.00000   0.00197   0.00197   2.05867
   A39        2.11471  -0.00046   0.00000  -0.00248  -0.00248   2.11223
   A40        2.08567   0.00048   0.00000   0.00159   0.00147   2.08714
   A41        2.07549   0.00024   0.00000   0.00213   0.00210   2.07759
   A42        2.12199  -0.00071   0.00000  -0.00357  -0.00361   2.11838
   A43        2.20043  -0.00087   0.00000  -0.00339  -0.00335   2.19708
   A44        2.02023   0.00059   0.00000   0.00228   0.00226   2.02249
   A45        2.06252   0.00029   0.00000   0.00110   0.00108   2.06360
[...]
 Alpha  occ. eigenvalues --   -0.57329  -0.56737  -0.56377  -0.55263  -0.54807
 Alpha  occ. eigenvalues --   -0.53456  -0.51615  -0.50209  -0.49885  -0.49693
 Alpha  occ. eigenvalues --   -0.49387  -0.48792  -0.48626  -0.48463  -0.48369
 Alpha  occ. eigenvalues --   -0.48126  -0.47001  -0.46518  -0.46249  -0.45857
 Alpha  occ. eigenvalues --   -0.45587  -0.44926  -0.44460  -0.44197  -0.43637
 Alpha  occ. eigenvalues --   -0.42735  -0.42560  -0.42325  -0.42015  -0.41810
 Alpha  occ. eigenvalues --   -0.41615  -0.41201  -0.41105  -0.40458  -0.39713
 Alpha  occ. eigenvalues --   -0.39570  -0.39128  -0.38949  -0.37678  -0.37393
 Alpha  occ. eigenvalues --   -0.36420  -0.35716  -0.34332  -0.33980  -0.33729
 Alpha  occ. eigenvalues --   -0.33495  -0.32061  -0.30962  -0.30329  -0.29744
 Alpha  occ. eigenvalues --   -0.29247  -0.28828  -0.28618  -0.28030  -0.27262
 Alpha  occ. eigenvalues --   -0.26079  -0.24701  -0.24558  -0.19389
 Alpha virt. eigenvalues --   -0.13010  -0.07232  -0.06382  -0.04578  -0.03862
 Alpha virt. eigenvalues --   -0.00845  -0.00430  -0.00300   0.00048   0.00463
 Alpha virt. eigenvalues --    0.00765   0.01113   0.01485   0.01487   0.01802
 Alpha virt. eigenvalues --    0.02080   0.02241   0.02385   0.02834   0.03235
 Alpha virt. eigenvalues --    0.03620   0.03661   0.04088   0.04330   0.04550
 Alpha virt. eigenvalues --    0.04630   0.04868   0.05006   0.05577   0.06024
 Alpha virt. eigenvalues --    0.06101   0.06318   0.06386   0.06491   0.06744
 Alpha virt. eigenvalues --    0.07215   0.07482   0.07607   0.07909   0.08107
 Alpha virt. eigenvalues --    0.08465   0.08648   0.08896   0.09167   0.09439
 Alpha virt. eigenvalues --    0.09677   0.10001   0.10076   0.10375   0.10459
 Alpha virt. eigenvalues --    0.10785   0.11021   0.11678   0.11748   0.11968
 Alpha virt. eigenvalues --    0.12440   0.12554   0.12772   0.13163   0.13372
 Alpha virt. eigenvalues --    0.13500   0.13769   0.14100   0.14413   0.14516
 Alpha virt. eigenvalues --    0.14533   0.14763   0.14891   0.15110   0.15163
 Alpha virt. eigenvalues --    0.15395   0.15735   0.15970   0.16266   0.16375
 Alpha virt. eigenvalues --    0.16430   0.16953   0.17014   0.17454   0.17819
 Alpha virt. eigenvalues --    0.17959   0.18123   0.18216   0.18602   0.18684
 Alpha virt. eigenvalues --    0.18764   0.19062   0.19277   0.19504   0.19657
 Alpha virt. eigenvalues --    0.19805   0.19945   0.19967   0.20150   0.20503
 Alpha virt. eigenvalues --    0.20750   0.20858   0.20995   0.21198   0.21300
 Alpha virt. eigenvalues --    0.21537   0.21875   0.22026   0.22325   0.22696
 Alpha virt. eigenvalues --    0.22746   0.22909   0.23126   0.23420   0.23487
 Alpha virt. eigenvalues --    0.23555   0.23641   0.24024   0.24138   0.24219
 Alpha virt. eigenvalues --    0.24629   0.24871   0.25107   0.25279   0.25644
 Alpha virt. eigenvalues --    0.25740   0.25865   0.26098   0.26308   0.26406
 Alpha virt. eigenvalues --    0.26444   0.26659   0.27027   0.27273   0.27476
 Alpha virt. eigenvalues --    0.27549   0.27728   0.27949   0.28306   0.28503
 Alpha virt. eigenvalues --    0.28627   0.28764   0.29026   0.29230   0.29489
 Alpha virt. eigenvalues --    0.29556   0.29962   0.30273   0.30453   0.30714
 Alpha virt. eigenvalues --    0.30922   0.31293   0.31452   0.31698   0.32083
 Alpha virt. eigenvalues --    0.32269   0.32728   0.32757   0.32855   0.33406
 Alpha virt. eigenvalues --    0.33552   0.33688   0.33963   0.34096   0.34616
 Alpha virt. eigenvalues --    0.34953   0.35392   0.35638   0.35682   0.35972
 Alpha virt. eigenvalues --    0.36309   0.36763   0.36832   0.37634   0.38185
 Alpha virt. eigenvalues --    0.38363   0.38635   0.38873   0.39385   0.39773
 Alpha virt. eigenvalues --    0.39916   0.40410   0.40855   0.41158   0.41387
 Alpha virt. eigenvalues --    0.42202   0.42446   0.42841   0.43308   0.43692
 Alpha virt. eigenvalues --    0.43998   0.44325   0.44638   0.45066   0.45501
 Alpha virt. eigenvalues --    0.45751   0.45928   0.46186   0.46544   0.46975
 Alpha virt. eigenvalues --    0.47248   0.47459   0.47987   0.48907   0.49732
 Alpha virt. eigenvalues --    0.49835   0.49974   0.50444   0.50624   0.51080
 Alpha virt. eigenvalues --    0.51680   0.52552   0.53171   0.53722   0.54013
 Alpha virt. eigenvalues --    0.54358   0.55070   0.55356   0.55548   0.55974
 Alpha virt. eigenvalues --    0.56341   0.56631   0.56937   0.56981   0.57282
 Alpha virt. eigenvalues --    0.57564   0.57928   0.58900   0.58979   0.59453
 Alpha virt. eigenvalues --    0.59833   0.60307   0.60794   0.61088   0.61609
 Alpha virt. eigenvalues --    0.61710   0.62121   0.62302   0.62980   0.63416
 Alpha virt. eigenvalues --    0.63663   0.64328   0.64497   0.64597   0.65123
 Alpha virt. eigenvalues --    0.65438   0.65542   0.66022   0.66116   0.66699
 Alpha virt. eigenvalues --    0.67067   0.67212   0.67735   0.68135   0.68808
 Alpha virt. eigenvalues --    0.69159   0.69364   0.69673   0.70109   0.70215
 Alpha virt. eigenvalues --    0.71047   0.71282   0.71577   0.72125   0.72255
 Alpha virt. eigenvalues --    0.72564   0.73043   0.73428   0.73674   0.74005
 Alpha virt. eigenvalues --    0.74635   0.74679   0.74949   0.75264   0.75715
 Alpha virt. eigenvalues --    0.76047   0.76428   0.76559   0.76936   0.77260
 Alpha virt. eigenvalues --    0.77946   0.78254   0.78445   0.78666   0.79878
 Alpha virt. eigenvalues --    0.80011   0.80625   0.80953   0.81353   0.82443
 Alpha virt. eigenvalues --    0.83062   0.83322   0.84005   0.84293   0.86021
 Alpha virt. eigenvalues --    0.86487   0.86921   0.87609   0.88058   0.88606
 Alpha virt. eigenvalues --    0.88752   0.89358   0.89440   0.90207   0.91331
 Alpha virt. eigenvalues --    0.91504   0.91892   0.92329   0.92435   0.93169
 Alpha virt. eigenvalues --    0.93932   0.94271   0.94566   0.94780   0.95670
 Alpha virt. eigenvalues --    0.95854   0.96186   0.96474   0.96765   0.97057
 Alpha virt. eigenvalues --    0.97568   0.98373   0.98847   0.99190   1.00356
 Alpha virt. eigenvalues --    1.00965   1.01113   1.01383   1.01902   1.02385
 Alpha virt. eigenvalues --    1.02789   1.03104   1.03863   1.03965   1.04607
 Alpha virt. eigenvalues --    1.05034   1.05223   1.05314   1.05823   1.06197
 Alpha virt. eigenvalues --    1.06800   1.07222   1.07330   1.07881   1.08267
 Alpha virt. eigenvalues --    1.08715   1.09200   1.09694   1.10535   1.10620
 Alpha virt. eigenvalues --    1.11247   1.12000   1.12716   1.13591   1.15082
 Alpha virt. eigenvalues --    1.15665   1.16287   1.17023   1.17086   1.17679
 Alpha virt. eigenvalues --    1.18378   1.19057   1.19609   1.21146   1.21536
 Alpha virt. eigenvalues --    1.22263   1.22740   1.23405   1.24183   1.24860
 Alpha virt. eigenvalues --    1.25784   1.26004   1.26816   1.27016   1.27845
 Alpha virt. eigenvalues --    1.28175   1.29480   1.29947   1.31033   1.31400
 Alpha virt. eigenvalues --    1.31863   1.33068   1.33909   1.35159   1.35225
 Alpha virt. eigenvalues --    1.36244   1.36637   1.37597   1.38284   1.39245
 Alpha virt. eigenvalues --    1.40189   1.40880   1.42143   1.42362   1.42496
 Alpha virt. eigenvalues --    1.42827   1.43364   1.43440   1.43838   1.44447
 Alpha virt. eigenvalues --    1.44717   1.44844   1.45488   1.46130   1.46290
 Alpha virt. eigenvalues --    1.46365   1.46597   1.47671   1.48131   1.49592
 Alpha virt. eigenvalues --    1.50245   1.51087   1.51562   1.52156   1.52413
 Alpha virt. eigenvalues --    1.53461   1.53676   1.54130   1.54455   1.54854
 Alpha virt. eigenvalues --    1.55116   1.55404   1.55596   1.56311   1.57074
 Alpha virt. eigenvalues --    1.57210   1.58902   1.59924   1.61143   1.61311
 Alpha virt. eigenvalues --    1.62397   1.62791   1.63286   1.63915   1.64210
 Alpha virt. eigenvalues --    1.65775   1.66089   1.66560   1.67027   1.67515
 Alpha virt. eigenvalues --    1.67998   1.68875   1.69396   1.69792   1.69863
 Alpha virt. eigenvalues --    1.70623   1.70761   1.71040   1.71338   1.71780
 Alpha virt. eigenvalues --    1.72539   1.74137   1.74352   1.75018   1.75758
 Alpha virt. eigenvalues --    1.75829   1.76693   1.77621   1.77982   1.79024
 Alpha virt. eigenvalues --    1.79252   1.79635   1.79914   1.80846   1.82072
 Alpha virt. eigenvalues --    1.83555   1.84691   1.84876   1.86126   1.86244
 Alpha virt. eigenvalues --    1.86575   1.86666   1.87531   1.87909   1.88671
 Alpha virt. eigenvalues --    1.89665   1.90025   1.90158   1.91044   1.91804
 Alpha virt. eigenvalues --    1.92316   1.92520   1.93905   1.94564   1.95320
 Alpha virt. eigenvalues --    1.96003   1.96832   1.97723   1.98265   1.98999
 Alpha virt. eigenvalues --    1.99557   2.00434   2.01133   2.02006   2.02303
 Alpha virt. eigenvalues --    2.03170   2.03649   2.03843   2.04460   2.04894
 Alpha virt. eigenvalues --    2.05860   2.06521   2.06866   2.07019   2.07380
 Alpha virt. eigenvalues --    2.09126   2.09534   2.10098   2.11432   2.11631
 Alpha virt. eigenvalues --    2.12076   2.13015   2.14229   2.15275   2.15475
 Alpha virt. eigenvalues --    2.16199   2.16663   2.17391   2.18003   2.18841
 Alpha virt. eigenvalues --    2.19262   2.19494   2.20835   2.21693   2.22795
 Alpha virt. eigenvalues --    2.24089   2.25792   2.26284   2.27072   2.27991
 Alpha virt. eigenvalues --    2.31478   2.32707   2.33237   2.35482   2.37336
 Alpha virt. eigenvalues --    2.37943   2.39515   2.39624   2.41806   2.42906
 Alpha virt. eigenvalues --    2.43244   2.43869   2.44357   2.45067   2.46401
 Alpha virt. eigenvalues --    2.46585   2.47107   2.48108   2.48721   2.49546
 Alpha virt. eigenvalues --    2.50676   2.51716   2.51937   2.52306   2.52508
 Alpha virt. eigenvalues --    2.52819   2.53439   2.53556   2.54406   2.55249
 Alpha virt. eigenvalues --    2.56725   2.57763   2.58987   2.59121   2.59941
 Alpha virt. eigenvalues --    2.62973   2.63433   2.63578   2.65177   2.67083
 Alpha virt. eigenvalues --    2.67243   2.67601   2.67814   2.68326   2.69014
 Alpha virt. eigenvalues --    2.69362   2.70502   2.70904   2.70966   2.71722
 Alpha virt. eigenvalues --    2.72030   2.72683   2.73187   2.74167   2.75801
 Alpha virt. eigenvalues --    2.76317   2.76394   2.77597   2.78772   2.80035
 Alpha virt. eigenvalues --    2.82388   2.83052   2.83168   2.83441   2.83761
 Alpha virt. eigenvalues --    2.84641   2.84941   2.85684   2.86504   2.87360
 Alpha virt. eigenvalues --    2.87896   2.88778   2.89233   2.89899   2.90614
 Alpha virt. eigenvalues --    2.91689   2.92318   2.93241   2.93928   2.94860
 Alpha virt. eigenvalues --    2.95134   2.95579   2.96774   2.98752   2.99481
 Alpha virt. eigenvalues --    3.00379   3.02175   3.03146   3.04499   3.05438
 Alpha virt. eigenvalues --    3.06111   3.06474   3.07862   3.09021   3.10690
 Alpha virt. eigenvalues --    3.11790   3.12977   3.14324   3.14722   3.15155
 Alpha virt. eigenvalues --    3.16312   3.17724   3.19731   3.20821   3.21652
 Alpha virt. eigenvalues --    3.23378   3.23798   3.24107   3.24997   3.26849
 Alpha virt. eigenvalues --    3.28958   3.29430   3.31152   3.32207   3.34578
 Alpha virt. eigenvalues --    3.35169   3.35390   3.35815   3.36216   3.37957
 Alpha virt. eigenvalues --    3.38611   3.39944   3.41354   3.43335   3.44170
 Alpha virt. eigenvalues --    3.44930   3.45845   3.46924   3.48952   3.49649
 Alpha virt. eigenvalues --    3.51493   3.53909   3.55732   3.58276   3.60342
 Alpha virt. eigenvalues --    3.60924   3.62607   3.65581   3.66239   3.66873
 Alpha virt. eigenvalues --    3.70041   3.71083   3.72556   3.73262   3.75578
 Alpha virt. eigenvalues --    3.76537   3.77027   3.81272   3.82575   3.84455
 Alpha virt. eigenvalues --    3.85475   3.86555   3.90215   3.91615   3.93109
 Alpha virt. eigenvalues --    3.93369   3.94463   3.97087   4.01376   4.02859
 Alpha virt. eigenvalues --    4.04768   4.08208   4.10258   4.12785   4.14156
 Alpha virt. eigenvalues --    4.19275   4.23441   4.25293   4.27397   4.35597
 Alpha virt. eigenvalues --    4.39459   4.40440   4.51413   4.67754   4.84609
 Alpha virt. eigenvalues --    4.86575   4.87153   4.90384   5.01390   5.02789
 Alpha virt. eigenvalues --    5.03994   5.05598   5.05776   5.09200   5.11615
 Alpha virt. eigenvalues --    5.13546   5.25195   5.27132   5.29206   5.31150
 Alpha virt. eigenvalues --    5.41938   5.43120   5.76051   5.76690   5.80334
 Alpha virt. eigenvalues --    5.80652   5.82239   5.85448   8.02455   8.04427
 Alpha virt. eigenvalues --   17.29052  17.33156  17.49487  17.52310  17.57475
 Alpha virt. eigenvalues --   17.62081  23.48878  23.56268  23.71988  23.79310
 Alpha virt. eigenvalues --   23.82479  23.83104  23.84730  23.87320  23.87629
 Alpha virt. eigenvalues --   23.88570  23.89054  23.90305  23.91404  23.93630
 Alpha virt. eigenvalues --   23.94939  23.96295  23.96530  23.99345  24.01075
 Alpha virt. eigenvalues --   24.02523  24.03167  24.05657  24.12957  24.13737
 Alpha virt. eigenvalues --   24.14706  24.14875  35.56148  35.59105  49.95946
 Alpha virt. eigenvalues --   49.97567  50.02343  50.04275  50.06168  50.07933
 Alpha virt. eigenvalues --  189.19682 189.22201
          Condensed to atoms (all electrons):
 Mulliken charges:
               1
     1  C    0.309025
     2  C   -0.081315
     3  C    0.156308
     4  C    0.197395
     5  C    0.239566
     6  C   -0.476942
     7  C    0.202756
     8  C    0.284476
     9  C    0.561009
    10  C   -0.379828
    11  C    0.199124
    12  C    0.168136
    13  C   -0.479415
    14  C   -0.577077
    15  H    0.158855
    16  H    0.160969
    17  H    0.184804
    18  N   -0.152299
    19  N   -0.142892
    20  O   -0.277720
    21  O   -0.269464
    22  O   -0.276661
    23  O   -0.196992
    24  C   -0.209379
    25  H    0.170424
    26  H    0.176301
    27  H    0.182643
    28  C   -0.198062
    29  H    0.173630
    30  H    0.174690
    31  H    0.182431
    32  C    0.041214
    33  C   -0.503618
    34  S   -0.536162
    35  C   -0.132696
    36  H    0.139438
    37  C    0.728842
    38  O   -0.131740
    39  C    0.777898
    40  C   -0.231388
    41  C   -0.062856
    42  S   -0.257343
    43  H    0.165325
    44  H    0.154780
    45  H    0.146925
    46  C   -0.568277
    47  O   -0.131764
    48  C   -0.273614
    49  H    0.131821
    50  C   -0.241347
    51  H    0.160902
    52  H    0.144985
    53  H    0.167785
    54  H    0.146393
 Sum of Mulliken charges =  -0.00000
 Mulliken charges with hydrogens summed into heavy atoms:
               1
     1  C    0.309025
     2  C   -0.081315
     3  C    0.156308
     4  C    0.197395
     5  C    0.239566
     6  C   -0.292138
     7  C    0.202756
     8  C    0.284476
     9  C    0.561009
    10  C   -0.379828
    11  C    0.199124
    12  C    0.168136
    13  C   -0.318445
    14  C   -0.418222
    18  N   -0.152299
    19  N   -0.142892
    20  O   -0.277720
    21  O   -0.269464
    22  O   -0.276661
    23  O   -0.196992
    24  C    0.319989
    28  C    0.332689
    32  C    0.041214
    33  C   -0.364180
    34  S   -0.536162
    35  C   -0.132696
    37  C    0.728842
    38  O   -0.131740
    39  C    0.777898
    40  C    0.235642
    41  C   -0.062856
    42  S   -0.257343
    46  C   -0.436456
    47  O   -0.131764
    48  C   -0.112712
    50  C    0.217817
 Electronic spatial extent (au):  <R**2>=          22352.9210
 Charge=             -0.0000 electrons
 Dipole moment (field-independent basis, Debye):
    X=              4.2308    Y=             -0.6596    Z=              0.2434  Tot=              4.2888
 Quadrupole moment (field-independent basis, Debye-Ang):
   XX=           -218.3765   YY=           -216.1734   ZZ=           -213.9704
   XY=             -4.2318   XZ=             -5.0763   YZ=             16.5284
 Traceless Quadrupole moment (field-independent basis, Debye-Ang):
   XX=             -2.2030   YY=              0.0000   ZZ=              2.2030
   XY=             -4.2318   XZ=             -5.0763   YZ=             16.5284
 Octapole moment (field-independent basis, Debye-Ang**2):
  XXX=            360.3245  YYY=            -24.3299  ZZZ=              3.6963  XYY=            105.2125
  XXY=            -77.9756  XXZ=            -26.5839  XZZ=             23.2535  YZZ=              2.8737
  YYZ=             -2.6090  XYZ=             50.6234
 Hexadecapole moment (field-independent basis, Debye-Ang**3):
 XXXX=         -20889.9504 YYYY=          -7300.4067 ZZZZ=          -1202.1634 XXXY=           -539.2205
 XXXZ=           -209.8658 YYYX=            287.9733 YYYZ=            169.4004 ZZZX=             -4.3985
 ZZZY=             63.6216 XXYY=          -4929.1019 XXZZ=          -3748.6769 YYZZ=          -1346.0253
 XXYZ=            329.6633 YYXZ=           -114.1408 ZZXY=             26.3463
 N-N= 4.086797822388D+03 E-N=-1.371370417538D+04  KE= 2.352056737650D+03
 Unable to Open any file for archive entry.
 1\1\GINC-CX3-7-0\FOpt\RB3LYP\6-311+G(d,p)\C26H18N2O6S2\NS5018\29-Nov-2
 020\0\\# opt=modredundant b3lyp/6-311+g(d,p)\\NDI_50.pdb\\0,1\C,-2.522
 5129435,-2.8638682917,-0.7299867377\C,-2.2469249225,-1.4308914297,-0.4
 429405661\C,-3.2909538599,-0.5671625621,-0.0407897485\C,-4.6106526383,
 -1.0489871608,0.0833934877\C,-4.9225658536,-2.4758983898,-0.1998155275
 \C,-0.9685884761,-0.9515880615,-0.5693326778\C,-2.9889223593,0.7991576
 615,0.2167735475\C,-1.6525160646,1.2862514365,0.0944038223\C,-0.615665
 5581,0.3985842768,-0.2761830938\C,-1.4242812183,2.7434713004,0.2959034
 815\C,-3.8412211188,3.0938414417,0.8176125354\C,-4.0633567655,1.649677
 4321,0.5801891876\C,-5.3535105335,1.1552910689,0.7020864646\C,-5.63330
 06307,-0.1931271537,0.4585605299\H,-6.6393156615,-0.5823520006,0.54762
 90328\H,-6.1396607923,1.844587727,0.98315263\H,-0.1937653542,-1.649394
 977,-0.8585335461\N,-2.5355172022,3.5452638213,0.6208667471\N,-3.84978
 98819,-3.289025208,-0.6014950991\O,-1.6524041093,-3.6505597901,-1.0541
 031393\O,-6.0485121759,-2.9243495611,-0.0938832213\O,-4.7383764704,3.8
 490593577,1.1503387967\O,-0.3403868167,3.2876018014,0.1841320462\C,-2.
 2607518434,4.9784913579,0.7979216701\H,-1.5363011254,5.1221145571,1.60
 0016861\H,-1.839911985,5.3879717441,-0.1202888856\H,-3.1985319878,5.46
 75424373,1.041296919\C,-4.110482869,-4.7066729634,-0.8897145926\H,-3.7
 950932571,-4.9372566891,-1.9072776902\H,-3.5420376452,-5.334080738,-0.
 2024968231\H,-5.1750172218,-4.8813326995,-0.7707029036\C,0.8087604729,
 0.716200447,-0.4013889402\C,1.6562309881,1.3557543216,0.4761376336\S,1
 .7122782836,0.0373550388,-1.7431267014\C,3.0063794752,1.314440178,0.07
 68182669\H,1.308568228,1.8435537382,1.3718024032\C,3.2322690968,0.6464
 020047,-1.1266315837\O,4.0585624808,1.8794591799,0.7268153017\C,4.4773
 726144,0.4848779306,-1.8240301447\C,3.8183639724,2.465549286,2.0031579
 006\C,4.7048676017,-0.2127339706,-3.0057549402\S,5.9906514381,1.184729
 9207,-1.2606297455\H,4.7845692854,2.8249894979,2.352612503\H,3.1220576
 427,3.306429082,1.9254063442\H,3.4273422027,1.7244716468,2.7078733852\
 C,6.0562578778,-0.1873573551,-3.4465604048\O,3.6671497955,-0.840210423
 7,-3.6178086869\C,6.8560447787,0.5303394164,-2.6008250905\H,6.41932456
 82,-0.6744231813,-4.3396724225\C,3.9192870227,-1.5186304275,-4.8448350
 904\H,7.9169052052,0.7075444224,-2.6896719711\H,4.6382081757,-2.332174
 1205,-4.7046796575\H,2.9626120586,-1.9318282332,-5.158933084\H,4.28676
 60764,-0.8260981447,-5.6088087819\\Version=ES64L-G16RevC.01\State=1-A\
 HF=-2359.3377281\RMSD=8.194e-09\RMSF=4.850e-04\Dipole=1.6404034,-0.113
 0757,-0.3787297\Quadrupole=-3.1921852,-8.7907221,11.9829073,0.9145811,
 -2.4676241,7.4416419\PG=C01 [X(C26H18N2O6S2)]\\@
 The archive entry for this job was punched.


 THERE ARE PEOPLE SO ADDICTED TO EXAGERATING THEY
 CAN'T TELL THE TRUTH WITHOUT LYING. -- FORTUNE COOKIE
 Job cpu time:       1 days  5 hours 15 minutes 43.3 seconds.
 Elapsed time:       0 days  3 hours 41 minutes 15.0 seconds.
 File lengths (MBytes):  RWF=    496 Int=      0 D2E=      0 Chk=     61 Scr=      1
 Normal termination of Gaussian 16 at Sun Nov 29 12:48:43 2020.
