 Entering Gaussian System, Link 0=g16
 Input=NDI_-100.gjf
 Output=NDI_-100.log
 Initial command:
 /apps/gaussian/g16-c01-avx/g16/l1.exe "/tmp/pbs.2625174[16].pbs/Gau-3454415.inp" -scrdir="/tmp/pbs.2625174[16].pbs/"
 Entering Link 1 = /apps/gaussian/g16-c01-avx/g16/l1.exe PID=   3454416.
  
 Copyright (c) 1988-2019, Gaussian, Inc.  All Rights Reserved.
  
 This is part of the Gaussian(R) 16 program.  It is based on
 the Gaussian(R) 09 system (copyright 2009, Gaussian, Inc.),
 the Gaussian(R) 03 system (copyright 2003, Gaussian, Inc.),
 the Gaussian(R) 98 system (copyright 1998, Gaussian, Inc.),
 the Gaussian(R) 94 system (copyright 1995, Gaussian, Inc.),
 the Gaussian 92(TM) system (copyright 1992, Gaussian, Inc.),
 the Gaussian 90(TM) system (copyright 1990, Gaussian, Inc.),
 the Gaussian 88(TM) system (copyright 1988, Gaussian, Inc.),
 the Gaussian 86(TM) system (copyright 1986, Carnegie Mellon
 University), and the Gaussian 82(TM) system (copyright 1983,
 Carnegie Mellon University). Gaussian is a federally registered
 trademark of Gaussian, Inc.
  
 This software contains proprietary and confidential information,
 including trade secrets, belonging to Gaussian, Inc.
  
 This software is provided under written license and may be
 used, copied, transmitted, or stored only in accord with that
 written license.
  
 The following legend is applicable only to US Government
 contracts under FAR:
  
                    RESTRICTED RIGHTS LEGEND
  
 Use, reproduction and disclosure by the US Government is
 subject to restrictions as set forth in subparagraphs (a)
 and (c) of the Commercial Computer Software - Restricted
 Rights clause in FAR 52.227-19.
  
 Gaussian, Inc.
 340 Quinnipiac St., Bldg. 40, Wallingford CT 06492
  
  
 ---------------------------------------------------------------
 Warning -- This program may not be used in any manner that
 competes with the business of Gaussian, Inc. or will provide
 assistance to any competitor of Gaussian, Inc.  The licensee
 of this program is prohibited from giving any competitor of
 Gaussian, Inc. access to this program.  By using this program,
 the user acknowledges that Gaussian, Inc. is engaged in the
 business of creating and licensing software in the field of
 computational chemistry and represents and warrants to the
 licensee that it is not a competitor of Gaussian, Inc. and that
 it will not use this program in any manner prohibited above.
 ---------------------------------------------------------------
  

 Cite this work as:
 Gaussian 16, Revision C.01,
 M. J. Frisch, G. W. Trucks, H. B. Schlegel, G. E. Scuseria, 
 M. A. Robb, J. R. Cheeseman, G. Scalmani, V. Barone, 
 G. A. Petersson, H. Nakatsuji, X. Li, M. Caricato, A. V. Marenich, 
 J. Bloino, B. G. Janesko, R. Gomperts, B. Mennucci, H. P. Hratchian, 
 J. V. Ortiz, A. F. Izmaylov, J. L. Sonnenberg, D. Williams-Young, 
 F. Ding, F. Lipparini, F. Egidi, J. Goings, B. Peng, A. Petrone, 
 T. Henderson, D. Ranasinghe, V. G. Zakrzewski, J. Gao, N. Rega, 
 G. Zheng, W. Liang, M. Hada, M. Ehara, K. Toyota, R. Fukuda, 
 J. Hasegawa, M. Ishida, T. Nakajima, Y. Honda, O. Kitao, H. Nakai, 
 T. Vreven, K. Throssell, J. A. Montgomery, Jr., J. E. Peralta, 
 F. Ogliaro, M. J. Bearpark, J. J. Heyd, E. N. Brothers, K. N. Kudin, 
 V. N. Staroverov, T. A. Keith, R. Kobayashi, J. Normand, 
 K. Raghavachari, A. P. Rendell, J. C. Burant, S. S. Iyengar, 
 J. Tomasi, M. Cossi, J. M. Millam, M. Klene, C. Adamo, R. Cammi, 
 J. W. Ochterski, R. L. Martin, K. Morokuma, O. Farkas, 
 J. B. Foresman, and D. J. Fox, Gaussian, Inc., Wallingford CT, 2019.
 
 ******************************************
 Gaussian 16:  ES64L-G16RevC.01  3-Jul-2019
                29-Nov-2020 
 ******************************************
 %mem=10GB
 %nprocshared=8
 Will use up to    8 processors via shared memory.
 -------------------------------------
 # opt=modredundant b3lyp/6-311+g(d,p)
 -------------------------------------
 1/18=120,19=15,26=3,38=1/1,3;
 2/9=110,12=2,17=6,18=5,40=1/2;
 3/5=4,6=6,7=111,11=2,25=1,30=1,71=1,74=-5/1,2,3;
 4//1;
 5/5=2,38=5/2;
 6/7=2,8=2,9=2,10=2,28=1/1;
 7//1,2,3,16;
 1/18=20,19=15,26=3/3(2);
 2/9=110/2;
 99//99;
 2/9=110/2;
 3/5=4,6=6,7=111,11=2,25=1,30=1,71=1,74=-5/1,2,3;
 4/5=5,16=3,69=1/1;
 5/5=2,38=5/2;
 7//1,2,3,16;
 1/18=20,19=15,26=3/3(-5);
 2/9=110/2;
 6/7=2,8=2,9=2,10=2,19=2,28=1/1;
 99/9=1/99;
 ------------
 NDI_-100.pdb
 ------------
 Symbolic Z-matrix:
 Charge =  0 Multiplicity = 1
 C                    -2.563    -2.994    -0.409 
 C                    -2.257    -1.551    -0.224 
 C                    -3.301    -0.607    -0.083 
 C                    -4.65     -1.024    -0.115 
 C                    -4.992    -2.459    -0.304 
 C                    -0.949    -1.137    -0.215 
 C                    -2.962     0.764     0.102 
 C                    -1.595     1.188     0.123 
 C                    -0.561     0.232    -0.072 
 C                    -1.328     2.616     0.446 
 C                    -3.777     3.115     0.508 
 C                    -4.035     1.679     0.268 
 C                    -5.356     1.252     0.23 
 C                    -5.672    -0.098     0.036 
 H                    -6.699    -0.442     0.008 
 H                    -6.133     1.997     0.361 
 H                    -0.19     -1.895    -0.369 
 N                    -2.432     3.476     0.608 
 N                    -3.916    -3.353    -0.438 
 O                    -1.695    -3.847    -0.532 
 O                    -6.149    -2.85     -0.34 
 O                    -4.676     3.938     0.629 
 O                    -0.212     3.097     0.596 
 C                    -2.111     4.875     0.912 
 H                    -1.54      4.931     1.84 
 H                    -1.5       5.299     0.111 
 H                    -3.05      5.414     1.003 
 C                    -4.206    -4.779    -0.625 
 H                    -3.759    -5.126    -1.559 
 H                    -3.775    -5.355     0.196 
 H                    -5.286    -4.897    -0.649 
 C                     0.876     0.482    -0.178 
 C                     1.7       0.565    -1.284 
 S                     1.836     0.561     1.3 
 C                     3.065     0.695    -0.96 
 H                     1.325     0.542    -2.294 
 C                     3.334     0.722     0.412 
 O                     4.099     0.793    -1.838 
 C                     4.608     0.886     1.053 
 C                     3.778     0.906    -3.222 
 C                     4.877     0.89      2.421 
 S                     6.109     1.121     0.163 
 H                     4.726     1.053    -3.738 
 H                     3.3      -0.009    -3.594 
 H                     3.119     1.762    -3.407 
 C                     6.251     1.077     2.744 
 O                     3.853     0.726     3.3 
 C                     7.025     1.214     1.624 
 H                     6.644     1.106     3.751 
 C                     4.164     0.699     4.688 
 H                     8.095     1.365     1.578 
 H                     4.608     1.648     5.015 
 H                     3.217     0.546     5.205 
 H                     4.847    -0.124     4.927 
 
 The following ModRedundant input section has been read:
 D       8       9      32      33 F                                           
 D      33      35      38      40 F                                           
 D      46      41      47      50 F                                           
 D      10      18      24      25 F                                           
 D       1      19      28      30 F                                           
 D       9       8      10      23 F                                           
 D      20       1       2       6 F                                           
 

 GradGradGradGradGradGradGradGradGradGradGradGradGradGradGradGradGradGrad
 Berny optimization.
 Initialization pass.
                           ----------------------------
                           !    Initial Parameters    !
                           ! (Angstroms and Degrees)  !
 --------------------------                            --------------------------
 ! Name  Definition              Value          Derivative Info.                !
 --------------------------------------------------------------------------------
 ! R1    R(1,2)                  1.4866         estimate D2E/DX2                !
 ! R2    R(1,19)                 1.4001         estimate D2E/DX2                !
 ! R3    R(1,20)                 1.2232         estimate D2E/DX2                !
 ! R4    R(2,3)                  1.4146         estimate D2E/DX2                !
 ! R5    R(2,6)                  1.372          estimate D2E/DX2                !
 ! R6    R(3,4)                  1.4123         estimate D2E/DX2                !
 ! R7    R(3,7)                  1.4244         estimate D2E/DX2                !
 ! R8    R(4,5)                  1.4872         estimate D2E/DX2                !
 ! R9    R(4,14)                 1.3874         estimate D2E/DX2                !
 ! R10   R(5,19)                 1.4053         estimate D2E/DX2                !
 ! R11   R(5,21)                 1.2218         estimate D2E/DX2                !
 ! R12   R(6,9)                  1.4301         estimate D2E/DX2                !
 ! R13   R(6,17)                 1.0837         estimate D2E/DX2                !
 ! R14   R(7,8)                  1.4314         estimate D2E/DX2                !
 ! R15   R(7,12)                 1.4199         estimate D2E/DX2                !
 ! R16   R(8,9)                  1.4217         estimate D2E/DX2                !
 ! R17   R(8,10)                 1.4882         estimate D2E/DX2                !
 ! R18   R(9,32)                 1.4624         estimate D2E/DX2                !
 ! R19   R(10,18)                1.4088         estimate D2E/DX2                !
 ! R20   R(10,23)                1.2245         estimate D2E/DX2                !
 ! R21   R(11,12)                1.4786         estimate D2E/DX2                !
 ! R22   R(11,18)                1.3962         estimate D2E/DX2                !
 ! R23   R(11,22)                1.2248         estimate D2E/DX2                !
 ! R24   R(12,13)                1.3888         estimate D2E/DX2                !
 ! R25   R(13,14)                1.4            estimate D2E/DX2                !
 ! R26   R(13,16)                1.0844         estimate D2E/DX2                !
 ! R27   R(14,15)                1.0834         estimate D2E/DX2                !
 ! R28   R(18,24)                1.4672         estimate D2E/DX2                !
 ! R29   R(19,28)                1.4672         estimate D2E/DX2                !
 ! R30   R(24,25)                1.091          estimate D2E/DX2                !
 ! R31   R(24,26)                1.093          estimate D2E/DX2                !
 ! R32   R(24,27)                1.0865         estimate D2E/DX2                !
 ! R33   R(28,29)                1.0921         estimate D2E/DX2                !
 ! R34   R(28,30)                1.0916         estimate D2E/DX2                !
 ! R35   R(28,31)                1.0867         estimate D2E/DX2                !
 ! R36   R(32,33)                1.3817         estimate D2E/DX2                !
 ! R37   R(32,34)                1.7642         estimate D2E/DX2                !
 ! R38   R(33,35)                1.4089         estimate D2E/DX2                !
 ! R39   R(33,36)                1.0776         estimate D2E/DX2                !
 ! R40   R(34,37)                1.7488         estimate D2E/DX2                !
 ! R41   R(35,37)                1.3984         estimate D2E/DX2                !
 ! R42   R(35,38)                1.36           estimate D2E/DX2                !
 ! R43   R(37,39)                1.4356         estimate D2E/DX2                !
 ! R44   R(38,40)                1.4252         estimate D2E/DX2                !
 ! R45   R(39,41)                1.3942         estimate D2E/DX2                !
 ! R46   R(39,42)                1.7608         estimate D2E/DX2                !
 ! R47   R(40,43)                1.0893         estimate D2E/DX2                !
 ! R48   R(40,44)                1.0973         estimate D2E/DX2                !
 ! R49   R(40,45)                1.096          estimate D2E/DX2                !
 ! R50   R(41,46)                1.4238         estimate D2E/DX2                !
 ! R51   R(41,47)                1.3595         estimate D2E/DX2                !
 ! R52   R(42,48)                1.7269         estimate D2E/DX2                !
 ! R53   R(46,48)                1.3683         estimate D2E/DX2                !
 ! R54   R(46,49)                1.0814         estimate D2E/DX2                !
 ! R55   R(47,50)                1.4227         estimate D2E/DX2                !
 ! R56   R(48,51)                1.0816         estimate D2E/DX2                !
 ! R57   R(50,52)                1.0976         estimate D2E/DX2                !
 ! R58   R(50,53)                1.0897         estimate D2E/DX2                !
 ! R59   R(50,54)                1.0959         estimate D2E/DX2                !
 ! A1    A(2,1,19)             116.767          estimate D2E/DX2                !
 ! A2    A(2,1,20)             122.9113         estimate D2E/DX2                !
 ! A3    A(19,1,20)            120.3217         estimate D2E/DX2                !
 ! A4    A(1,2,3)              120.5473         estimate D2E/DX2                !
 ! A5    A(1,2,6)              119.3369         estimate D2E/DX2                !
 ! A6    A(3,2,6)              120.1056         estimate D2E/DX2                !
 ! A7    A(2,3,4)              120.3743         estimate D2E/DX2                !
 ! A8    A(2,3,7)              118.662          estimate D2E/DX2                !
 ! A9    A(4,3,7)              120.9617         estimate D2E/DX2                !
 ! A10   A(3,4,5)              120.4909         estimate D2E/DX2                !
 ! A11   A(3,4,14)             120.2702         estimate D2E/DX2                !
 ! A12   A(5,4,14)             119.2382         estimate D2E/DX2                !
 ! A13   A(4,5,19)             116.7341         estimate D2E/DX2                !
 ! A14   A(4,5,21)             122.024          estimate D2E/DX2                !
 ! A15   A(19,5,21)            121.2418         estimate D2E/DX2                !
 ! A16   A(2,6,9)              123.2421         estimate D2E/DX2                !
 ! A17   A(2,6,17)             117.1119         estimate D2E/DX2                !
 ! A18   A(9,6,17)             119.589          estimate D2E/DX2                !
 ! A19   A(3,7,8)              120.9519         estimate D2E/DX2                !
 ! A20   A(3,7,12)             117.1037         estimate D2E/DX2                !
 ! A21   A(8,7,12)             121.944          estimate D2E/DX2                !
 ! A22   A(7,8,9)              119.5639         estimate D2E/DX2                !
 ! A23   A(7,8,10)             117.3064         estimate D2E/DX2                !
 ! A24   A(9,8,10)             122.9922         estimate D2E/DX2                !
 ! A25   A(6,9,8)              117.3944         estimate D2E/DX2                !
 ! A26   A(6,9,32)             115.0236         estimate D2E/DX2                !
 ! A27   A(8,9,32)             127.5648         estimate D2E/DX2                !
 ! A28   A(8,10,18)            118.042          estimate D2E/DX2                !
 ! A29   A(8,10,23)            124.5436         estimate D2E/DX2                !
 ! A30   A(18,10,23)           117.4097         estimate D2E/DX2                !
 ! A31   A(12,11,18)           115.5202         estimate D2E/DX2                !
 ! A32   A(12,11,22)           122.7205         estimate D2E/DX2                !
 ! A33   A(18,11,22)           121.7534         estimate D2E/DX2                !
 ! A34   A(7,12,11)            120.8614         estimate D2E/DX2                !
 ! A35   A(7,12,13)            121.162          estimate D2E/DX2                !
 ! A36   A(11,12,13)           117.9699         estimate D2E/DX2                !
 ! A37   A(12,13,14)           120.9948         estimate D2E/DX2                !
 ! A38   A(12,13,16)           117.8401         estimate D2E/DX2                !
 ! A39   A(14,13,16)           121.1642         estimate D2E/DX2                !
 ! A40   A(4,14,13)            119.5003         estimate D2E/DX2                !
 ! A41   A(4,14,15)            118.9169         estimate D2E/DX2                !
 ! A42   A(13,14,15)           121.5811         estimate D2E/DX2                !
 ! A43   A(10,18,11)           126.0753         estimate D2E/DX2                !
 ! A44   A(10,18,24)           115.7508         estimate D2E/DX2                !
 ! A45   A(11,18,24)           118.1737         estimate D2E/DX2                !
 ! A46   A(1,19,5)             125.0856         estimate D2E/DX2                !
 ! A47   A(1,19,28)            116.2868         estimate D2E/DX2                !
 ! A48   A(5,19,28)            118.6276         estimate D2E/DX2                !
 ! A49   A(18,24,25)           109.8574         estimate D2E/DX2                !
 ! A50   A(18,24,26)           109.8979         estimate D2E/DX2                !
 ! A51   A(18,24,27)           107.5355         estimate D2E/DX2                !
 ! A52   A(25,24,26)           108.1108         estimate D2E/DX2                !
 ! A53   A(25,24,27)           110.8301         estimate D2E/DX2                !
 ! A54   A(26,24,27)           110.6124         estimate D2E/DX2                !
 ! A55   A(19,28,29)           109.6906         estimate D2E/DX2                !
 ! A56   A(19,28,30)           109.8136         estimate D2E/DX2                !
 ! A57   A(19,28,31)           107.7461         estimate D2E/DX2                !
 ! A58   A(29,28,30)           108.2991         estimate D2E/DX2                !
 ! A59   A(29,28,31)           110.6959         estimate D2E/DX2                !
 ! A60   A(30,28,31)           110.5924         estimate D2E/DX2                !
 ! A61   A(9,32,33)            130.8653         estimate D2E/DX2                !
 ! A62   A(9,32,34)            118.792          estimate D2E/DX2                !
 ! A63   A(33,32,34)           110.0844         estimate D2E/DX2                !
 ! A64   A(32,33,35)           113.5305         estimate D2E/DX2                !
 ! A65   A(32,33,36)           122.7807         estimate D2E/DX2                !
 ! A66   A(35,33,36)           123.6859         estimate D2E/DX2                !
 ! A67   A(32,34,37)            92.5698         estimate D2E/DX2                !
 ! A68   A(33,35,37)           114.4419         estimate D2E/DX2                !
 ! A69   A(33,35,38)           126.496          estimate D2E/DX2                !
 ! A70   A(37,35,38)           119.0621         estimate D2E/DX2                !
 ! A71   A(34,37,35)           109.3679         estimate D2E/DX2                !
 ! A72   A(34,37,39)           122.9533         estimate D2E/DX2                !
 ! A73   A(35,37,39)           127.6626         estimate D2E/DX2                !
 ! A74   A(35,38,40)           117.4764         estimate D2E/DX2                !
 ! A75   A(37,39,41)           127.5661         estimate D2E/DX2                !
 ! A76   A(37,39,42)           123.0983         estimate D2E/DX2                !
 ! A77   A(41,39,42)           109.3356         estimate D2E/DX2                !
 ! A78   A(38,40,43)           105.9433         estimate D2E/DX2                !
 ! A79   A(38,40,44)           111.1741         estimate D2E/DX2                !
 ! A80   A(38,40,45)           111.1774         estimate D2E/DX2                !
 ! A81   A(43,40,44)           109.3322         estimate D2E/DX2                !
 ! A82   A(43,40,45)           109.7504         estimate D2E/DX2                !
 ! A83   A(44,40,45)           109.3969         estimate D2E/DX2                !
 ! A84   A(39,41,46)           114.1526         estimate D2E/DX2                !
 ! A85   A(39,41,47)           119.2587         estimate D2E/DX2                !
 ! A86   A(46,41,47)           126.5886         estimate D2E/DX2                !
 ! A87   A(39,42,48)            91.8183         estimate D2E/DX2                !
 ! A88   A(41,46,48)           111.9219         estimate D2E/DX2                !
 ! A89   A(41,46,49)           124.4373         estimate D2E/DX2                !
 ! A90   A(48,46,49)           123.6406         estimate D2E/DX2                !
 ! A91   A(41,47,50)           117.934          estimate D2E/DX2                !
 ! A92   A(42,48,46)           112.7716         estimate D2E/DX2                !
 ! A93   A(42,48,51)           119.7545         estimate D2E/DX2                !
 ! A94   A(46,48,51)           127.4739         estimate D2E/DX2                !
 ! A95   A(47,50,52)           111.2656         estimate D2E/DX2                !
 ! A96   A(47,50,53)           105.9955         estimate D2E/DX2                !
 ! A97   A(47,50,54)           111.3013         estimate D2E/DX2                !
 ! A98   A(52,50,53)           109.3656         estimate D2E/DX2                !
 ! A99   A(52,50,54)           109.405          estimate D2E/DX2                !
 ! A100  A(53,50,54)           109.4331         estimate D2E/DX2                !
 ! D1    D(19,1,2,3)             0.1578         estimate D2E/DX2                !
 ! D2    D(19,1,2,6)          -178.6792         estimate D2E/DX2                !
 ! D3    D(20,1,2,3)          -179.8231         estimate D2E/DX2                !
 ! D4    D(20,1,2,6)             1.3399         Frozen                          !
 ! D5    D(2,1,19,5)            -0.124          estimate D2E/DX2                !
 ! D6    D(2,1,19,28)          179.8267         estimate D2E/DX2                !
 ! D7    D(20,1,19,5)          179.8575         estimate D2E/DX2                !
 ! D8    D(20,1,19,28)          -0.1919         estimate D2E/DX2                !
 ! D9    D(1,2,3,4)              0.0571         estimate D2E/DX2                !
 ! D10   D(1,2,3,7)            179.5453         estimate D2E/DX2                !
 ! D11   D(6,2,3,4)            178.8851         estimate D2E/DX2                !
 ! D12   D(6,2,3,7)             -1.6266         estimate D2E/DX2                !
 ! D13   D(1,2,6,9)            178.625          estimate D2E/DX2                !
 ! D14   D(1,2,6,17)             1.3881         estimate D2E/DX2                !
 ! D15   D(3,2,6,9)             -0.2173         estimate D2E/DX2                !
 ! D16   D(3,2,6,17)          -177.4541         estimate D2E/DX2                !
 ! D17   D(2,3,4,5)             -0.3074         estimate D2E/DX2                !
 ! D18   D(2,3,4,14)           179.3968         estimate D2E/DX2                !
 ! D19   D(7,3,4,5)           -179.7837         estimate D2E/DX2                !
 ! D20   D(7,3,4,14)            -0.0795         estimate D2E/DX2                !
 ! D21   D(2,3,7,8)              1.0523         estimate D2E/DX2                !
 ! D22   D(2,3,7,12)          -178.712          estimate D2E/DX2                !
 ! D23   D(4,3,7,8)           -179.4626         estimate D2E/DX2                !
 ! D24   D(4,3,7,12)             0.7731         estimate D2E/DX2                !
 ! D25   D(3,4,5,19)             0.3343         estimate D2E/DX2                !
 ! D26   D(3,4,5,21)          -179.7799         estimate D2E/DX2                !
 ! D27   D(14,4,5,19)         -179.3729         estimate D2E/DX2                !
 ! D28   D(14,4,5,21)            0.5129         estimate D2E/DX2                !
 ! D29   D(3,4,14,13)           -0.4559         estimate D2E/DX2                !
 ! D30   D(3,4,14,15)         -179.9937         estimate D2E/DX2                !
 ! D31   D(5,4,14,13)          179.252          estimate D2E/DX2                !
 ! D32   D(5,4,14,15)           -0.2858         estimate D2E/DX2                !
 ! D33   D(4,5,19,1)            -0.1141         estimate D2E/DX2                !
 ! D34   D(4,5,19,28)          179.9364         estimate D2E/DX2                !
 ! D35   D(21,5,19,1)          179.9992         estimate D2E/DX2                !
 ! D36   D(21,5,19,28)           0.0496         estimate D2E/DX2                !
 ! D37   D(2,6,9,8)              2.5984         estimate D2E/DX2                !
 ! D38   D(2,6,9,32)          -176.0103         estimate D2E/DX2                !
 ! D39   D(17,6,9,8)           179.77           estimate D2E/DX2                !
 ! D40   D(17,6,9,32)            1.1613         estimate D2E/DX2                !
 ! D41   D(3,7,8,9)              1.3551         estimate D2E/DX2                !
 ! D42   D(3,7,8,10)          -174.5099         estimate D2E/DX2                !
 ! D43   D(12,7,8,9)          -178.8921         estimate D2E/DX2                !
 ! D44   D(12,7,8,10)            5.2428         estimate D2E/DX2                !
 ! D45   D(3,7,12,11)          178.0768         estimate D2E/DX2                !
 ! D46   D(3,7,12,13)           -0.9621         estimate D2E/DX2                !
 ! D47   D(8,7,12,11)           -1.685          estimate D2E/DX2                !
 ! D48   D(8,7,12,13)          179.2761         estimate D2E/DX2                !
 ! D49   D(7,8,9,6)             -3.0809         estimate D2E/DX2                !
 ! D50   D(7,8,9,32)           175.3285         estimate D2E/DX2                !
 ! D51   D(10,8,9,6)           172.5381         estimate D2E/DX2                !
 ! D52   D(10,8,9,32)           -9.0525         estimate D2E/DX2                !
 ! D53   D(7,8,10,18)           -4.7549         estimate D2E/DX2                !
 ! D54   D(7,8,10,23)          174.4235         estimate D2E/DX2                !
 ! D55   D(9,8,10,18)          179.5335         estimate D2E/DX2                !
 ! D56   D(9,8,10,23)           -1.2882         Frozen                          !
 ! D57   D(6,9,32,33)           78.4256         estimate D2E/DX2                !
 ! D58   D(6,9,32,34)          -95.0971         estimate D2E/DX2                !
 ! D59   D(8,9,32,33)         -100.016          Frozen                          !
 ! D60   D(8,9,32,34)           86.4614         estimate D2E/DX2                !
 ! D61   D(8,10,18,11)           0.7189         estimate D2E/DX2                !
 ! D62   D(8,10,18,24)        -179.4089         estimate D2E/DX2                !
 ! D63   D(23,10,18,11)       -178.5188         estimate D2E/DX2                !
 ! D64   D(23,10,18,24)          1.3535         estimate D2E/DX2                !
 ! D65   D(18,11,12,7)          -2.3856         estimate D2E/DX2                !
 ! D66   D(18,11,12,13)        176.6833         estimate D2E/DX2                !
 ! D67   D(22,11,12,7)         178.4862         estimate D2E/DX2                !
 ! D68   D(22,11,12,13)         -2.445          estimate D2E/DX2                !
 ! D69   D(12,11,18,10)          2.8444         estimate D2E/DX2                !
 ! D70   D(12,11,18,24)       -177.0251         estimate D2E/DX2                !
 ! D71   D(22,11,18,10)       -178.0181         estimate D2E/DX2                !
 ! D72   D(22,11,18,24)          2.1124         estimate D2E/DX2                !
 ! D73   D(7,12,13,14)           0.461          estimate D2E/DX2                !
 ! D74   D(7,12,13,16)        -179.8781         estimate D2E/DX2                !
 ! D75   D(11,12,13,14)       -178.6049         estimate D2E/DX2                !
 ! D76   D(11,12,13,16)          1.056          estimate D2E/DX2                !
 ! D77   D(12,13,14,4)           0.2708         estimate D2E/DX2                !
 ! D78   D(12,13,14,15)        179.7958         estimate D2E/DX2                !
 ! D79   D(16,13,14,4)        -179.3788         estimate D2E/DX2                !
 ! D80   D(16,13,14,15)          0.1463         estimate D2E/DX2                !
 ! D81   D(10,18,24,25)        -59.609          Frozen                          !
 ! D82   D(10,18,24,26)         59.2209         estimate D2E/DX2                !
 ! D83   D(10,18,24,27)        179.6858         estimate D2E/DX2                !
 ! D84   D(11,18,24,25)        120.2739         estimate D2E/DX2                !
 ! D85   D(11,18,24,26)       -120.8962         estimate D2E/DX2                !
 ! D86   D(11,18,24,27)         -0.4313         estimate D2E/DX2                !
 ! D87   D(1,19,28,29)         -58.1407         estimate D2E/DX2                !
 ! D88   D(1,19,28,30)          60.7668         Frozen                          !
 ! D89   D(1,19,28,31)        -178.7139         estimate D2E/DX2                !
 ! D90   D(5,19,28,29)         121.8132         estimate D2E/DX2                !
 ! D91   D(5,19,28,30)        -119.2792         estimate D2E/DX2                !
 ! D92   D(5,19,28,31)           1.2401         estimate D2E/DX2                !
 ! D93   D(9,32,33,35)        -174.2358         estimate D2E/DX2                !
 ! D94   D(9,32,33,36)           6.3631         estimate D2E/DX2                !
 ! D95   D(34,32,33,35)         -0.2783         estimate D2E/DX2                !
 ! D96   D(34,32,33,36)       -179.6794         estimate D2E/DX2                !
 ! D97   D(9,32,34,37)         175.3529         estimate D2E/DX2                !
 ! D98   D(33,32,34,37)          0.5647         estimate D2E/DX2                !
 ! D99   D(32,33,35,37)         -0.2656         estimate D2E/DX2                !
 ! D100  D(32,33,35,38)        179.7715         estimate D2E/DX2                !
 ! D101  D(36,33,35,37)        179.1293         estimate D2E/DX2                !
 ! D102  D(36,33,35,38)         -0.8336         estimate D2E/DX2                !
 ! D103  D(32,34,37,35)         -0.699          estimate D2E/DX2                !
 ! D104  D(32,34,37,39)        177.9379         estimate D2E/DX2                !
 ! D105  D(33,35,37,34)          0.6792         estimate D2E/DX2                !
 ! D106  D(33,35,37,39)       -177.876          estimate D2E/DX2                !
 ! D107  D(38,35,37,34)       -179.3548         estimate D2E/DX2                !
 ! D108  D(38,35,37,39)          2.09           estimate D2E/DX2                !
 ! D109  D(33,35,38,40)          6.5154         Frozen                          !
 ! D110  D(37,35,38,40)       -173.4461         estimate D2E/DX2                !
 ! D111  D(34,37,39,41)          2.808          estimate D2E/DX2                !
 ! D112  D(34,37,39,42)       -177.1574         estimate D2E/DX2                !
 ! D113  D(35,37,39,41)       -178.8164         estimate D2E/DX2                !
 ! D114  D(35,37,39,42)          1.2182         estimate D2E/DX2                !
 ! D115  D(35,38,40,43)        175.5182         estimate D2E/DX2                !
 ! D116  D(35,38,40,44)        -65.8048         estimate D2E/DX2                !
 ! D117  D(35,38,40,45)         56.3372         estimate D2E/DX2                !
 ! D118  D(37,39,41,46)       -179.9574         estimate D2E/DX2                !
 ! D119  D(37,39,41,47)         -0.1176         estimate D2E/DX2                !
 ! D120  D(42,39,41,46)          0.0119         estimate D2E/DX2                !
 ! D121  D(42,39,41,47)        179.8516         estimate D2E/DX2                !
 ! D122  D(37,39,42,48)        179.9842         estimate D2E/DX2                !
 ! D123  D(41,39,42,48)          0.0132         estimate D2E/DX2                !
 ! D124  D(39,41,46,48)         -0.0394         estimate D2E/DX2                !
 ! D125  D(39,41,46,49)       -179.8965         estimate D2E/DX2                !
 ! D126  D(47,41,46,48)       -179.8653         estimate D2E/DX2                !
 ! D127  D(47,41,46,49)          0.2776         estimate D2E/DX2                !
 ! D128  D(39,41,47,50)        178.3588         estimate D2E/DX2                !
 ! D129  D(46,41,47,50)         -1.8233         Frozen                          !
 ! D130  D(39,42,48,46)         -0.0363         estimate D2E/DX2                !
 ! D131  D(39,42,48,51)        179.8961         estimate D2E/DX2                !
 ! D132  D(41,46,48,42)          0.049          estimate D2E/DX2                !
 ! D133  D(41,46,48,51)       -179.877          estimate D2E/DX2                !
 ! D134  D(49,46,48,42)        179.9075         estimate D2E/DX2                !
 ! D135  D(49,46,48,51)         -0.0186         estimate D2E/DX2                !
 ! D136  D(41,47,50,52)         62.0195         estimate D2E/DX2                !
 ! D137  D(41,47,50,53)       -179.1827         estimate D2E/DX2                !
 ! D138  D(41,47,50,54)        -60.2844         estimate D2E/DX2                !
 --------------------------------------------------------------------------------
 Trust Radius=3.00D-01 FncErr=1.00D-07 GrdErr=1.00D-06 EigMax=2.50D+02 EigMin=1.00D-04
 Number of steps in this run=    307 maximum allowed number of steps=    324.
 GradGradGradGradGradGradGradGradGradGradGradGradGradGradGradGradGradGrad

 Stoichiometry    C26H18N2O6S2
 Framework group  C1[X(C26H18N2O6S2)]
 Deg. of freedom   156
 Full point group                 C1      NOp   1
 Largest Abelian subgroup         C1      NOp   1
 Largest concise Abelian subgroup C1      NOp   1
                         Standard orientation:                         
 ---------------------------------------------------------------------
 Center     Atomic      Atomic             Coordinates (Angstroms)
 Number     Number       Type             X           Y           Z
 ---------------------------------------------------------------------
      1          6           0        3.198190   -2.854047   -0.201943
      2          6           0        2.600669   -1.502020   -0.043503
      3          6           0        3.418377   -0.347916   -0.062239
      4          6           0        4.815418   -0.465218   -0.233215
      5          6           0        5.446951   -1.802680   -0.389008
      6          6           0        1.247001   -1.383327    0.145801
      7          6           0        2.802526    0.928144    0.083312
      8          6           0        1.388005    1.046153    0.267995
      9          6           0        0.589109   -0.127850    0.335825
     10          6           0        0.813996    2.419106    0.285726
     11          6           0        3.094519    3.431886    0.131021
     12          6           0        3.650880    2.065566    0.031568
     13          6           0        5.023334    1.931540   -0.133425
     14          6           0        5.613903    0.668911   -0.263762
     15          1           0        6.683016    0.553498   -0.396145
     16          1           0        5.620516    2.836185   -0.163513
     17          1           0        0.672718   -2.301064    0.193950
     18          7           0        1.703564    3.509721    0.223375
     19          7           0        4.587637   -2.914390   -0.363585
     20          8           0        2.532112   -3.879942   -0.195537
     21          8           0        6.652617   -1.936880   -0.534564
     22          8           0        3.796772    4.435295    0.117486
     23          8           0       -0.383313    2.670479    0.336531
     24          6           0        1.084931    4.839672    0.257763
     25          1           0        0.401877    4.952597   -0.585472
     26          1           0        0.509510    4.958574    1.179420
     27          1           0        1.884291    5.573918    0.208484
     28          6           0        5.166577   -4.253952   -0.515068
     29          1           0        4.915191   -4.864006    0.355112
     30          1           0        4.754305   -4.736979   -1.402927
     31          1           0        6.243486   -4.140938   -0.606696
     32          6           0       -0.844275   -0.216151    0.612080
     33          6           0       -1.523420   -0.528720    1.774046
     34         16           0       -1.979444   -0.056854   -0.728943
     35          6           0       -2.917714   -0.632515    1.600061
     36          1           0       -1.027183   -0.667934    2.720419
     37          6           0       -3.356982   -0.396124    0.293678
     38          8           0       -3.832773   -0.931040    2.560891
     39          6           0       -4.709006   -0.386019   -0.188797
     40          6           0       -3.368200   -1.024662    3.905016
     41          6           0       -5.143366   -0.172424   -1.496279
     42         16           0       -6.103389   -0.655487    0.852072
     43          1           0       -4.254380   -1.187206    4.517253
     44          1           0       -2.680922   -1.871080    4.028782
     45          1           0       -2.867473   -0.100693    4.216137
     46          6           0       -6.557214   -0.223777   -1.656180
     47          8           0       -4.225523    0.060985   -2.471573
     48          6           0       -7.196275   -0.476713   -0.473019
     49          1           0       -7.071746   -0.083249   -2.596844
     50          6           0       -4.697338    0.239843   -3.801758
     51          1           0       -8.260983   -0.569678   -0.306972
     52          1           0       -5.352384    1.117277   -3.877191
     53          1           0       -3.811109    0.396626   -4.416187
     54          1           0       -5.234528   -0.647116   -4.156258
 ---------------------------------------------------------------------
 Rotational constants (GHZ):           0.1602855           0.0543157           0.0472738
 Standard basis: 6-311+G(d,p) (5D, 7F)
 There are   952 symmetry adapted cartesian basis functions of A   symmetry.
 There are   916 symmetry adapted basis functions of A   symmetry.
   916 basis functions,  1468 primitive gaussians,   952 cartesian basis functions
   134 alpha electrons      134 beta electrons
       nuclear repulsion energy      4079.9206738677 Hartrees.
 NAtoms=   54 NActive=   54 NUniq=   54 SFac= 1.00D+00 NAtFMM=   60 NAOKFM=F Big=F
 Integral buffers will be    131072 words long.
 Raffenetti 2 integral format.
 Two-electron integral symmetry is turned on.
 One-electron integrals computed using PRISM.
 NBasis=   916 RedAO= T EigKep=  1.04D-06  NBF=   916
 NBsUse=   902 1.00D-06 EigRej=  6.71D-07 NBFU=   902
 ExpMin= 4.05D-02 ExpMax= 9.34D+04 ExpMxC= 3.17D+03 IAcc=3 IRadAn=         5 AccDes= 0.00D+00
 Harris functional with IExCor=  402 and IRadAn=       5 diagonalized for initial guess.
 HarFok:  IExCor=  402 AccDes= 0.00D+00 IRadAn=         5 IDoV= 1 UseB2=F ITyADJ=14
 ICtDFT=  3500011 ScaDFX=  1.000000  1.000000  1.000000  1.000000
 FoFCou: FMM=F IPFlag=           0 FMFlag=      100000 FMFlg1=           0
         NFxFlg=           0 DoJE=T BraDBF=F KetDBF=T FulRan=T
         wScrn=  0.000000 ICntrl=       500 IOpCl=  0 I1Cent=   200000004 NGrid=           0
         NMat0=    1 NMatS0=      1 NMatT0=    0 NMatD0=    1 NMtDS0=    0 NMtDT0=    0
 Petite list used in FoFCou.
 Requested convergence on RMS density matrix=1.00D-08 within 128 cycles.
 Requested convergence on MAX density matrix=1.00D-06.
 Requested convergence on             energy=1.00D-06.
 No special actions if energy rises.
 SCF Done:  E(RB3LYP) =  -2359.32928934     A.U. after   19 cycles
            NFock= 19  Conv=0.58D-08     -V/T= 2.0032

 **********************************************************************

            Population analysis using the SCF Density.

 **********************************************************************

 Orbital symmetries:
       Occupied  (A) (A) (A) (A) (A) (A) (A) (A) (A) (A) (A) (A)
                 (A) (A) (A) (A) (A) (A) (A) (A) (A) (A) (A) (A)
                 (A) (A) (A) (A) (A) (A) (A) (A) (A) (A) (A) (A)
                 (A) (A) (A) (A) (A) (A) (A) (A) (A) (A) (A) (A)
                 (A) (A) (A) (A) (A) (A) (A) (A) (A) (A) (A) (A)
                 (A) (A) (A) (A) (A) (A) (A) (A) (A) (A) (A) (A)
                 (A) (A) (A) (A) (A) (A) (A) (A) (A) (A) (A) (A)
                 (A) (A) (A) (A) (A) (A) (A) (A) (A) (A) (A) (A)
                 (A) (A) (A) (A) (A) (A) (A) (A) (A) (A) (A) (A)
                 (A) (A) (A) (A) (A) (A) (A) (A) (A) (A) (A) (A)
                 (A) (A) (A) (A) (A) (A) (A) (A) (A) (A) (A) (A)
                 (A) (A)
       Virtual   (A) (A) (A) (A) (A) (A) (A) (A) (A) (A) (A) (A)
                 (A) (A) (A) (A) (A) (A) (A) (A) (A) (A) (A) (A)
                 (A) (A) (A) (A) (A) (A) (A) (A) (A) (A) (A) (A)
                 (A) (A) (A) (A) (A) (A) (A) (A) (A) (A) (A) (A)
                 (A) (A) (A) (A) (A) (A) (A) (A) (A) (A) (A) (A)
                 (A) (A) (A) (A) (A) (A) (A) (A) (A) (A) (A) (A)
                 (A) (A) (A) (A) (A) (A) (A) (A) (A) (A) (A) (A)
                 (A) (A) (A) (A) (A) (A) (A) (A) (A) (A) (A) (A)
                 (A) (A) (A) (A) (A) (A) (A) (A) (A) (A) (A) (A)
                 (A) (A) (A) (A) (A) (A) (A) (A) (A) (A) (A) (A)
                 (A) (A) (A) (A) (A) (A) (A) (A) (A) (A) (A) (A)
                 (A) (A) (A) (A) (A) (A) (A) (A) (A) (A) (A) (A)
                 (A) (A) (A) (A) (A) (A) (A) (A) (A) (A) (A) (A)
                 (A) (A) (A) (A) (A) (A) (A) (A) (A) (A) (A) (A)
                 (A) (A) (A) (A) (A) (A) (A) (A) (A) (A) (A) (A)
                 (A) (A) (A) (A) (A) (A) (A) (A) (A) (A) (A) (A)
                 (A) (A) (A) (A) (A) (A) (A) (A) (A) (A) (A) (A)
                 (A) (A) (A) (A) (A) (A) (A) (A) (A) (A) (A) (A)
                 (A) (A) (A) (A) (A) (A) (A) (A) (A) (A) (A) (A)
                 (A) (A) (A) (A) (A) (A) (A) (A) (A) (A) (A) (A)
                 (A) (A) (A) (A) (A) (A) (A) (A) (A) (A) (A) (A)
                 (A) (A) (A) (A) (A) (A) (A) (A) (A) (A) (A) (A)
                 (A) (A) (A) (A) (A) (A) (A) (A) (A) (A) (A) (A)
                 (A) (A) (A) (A) (A) (A) (A) (A) (A) (A) (A) (A)
                 (A) (A) (A) (A) (A) (A) (A) (A) (A) (A) (A) (A)
                 (A) (A) (A) (A) (A) (A) (A) (A) (A) (A) (A) (A)
                 (A) (A) (A) (A) (A) (A) (A) (A) (A) (A) (A) (A)
                 (A) (A) (A) (A) (A) (A) (A) (A) (A) (A) (A) (A)
                 (A) (A) (A) (A) (A) (A) (A) (A) (A) (A) (A) (A)
                 (A) (A) (A) (A) (A) (A) (A) (A) (A) (A) (A) (A)
                 (A) (A) (A) (A) (A) (A) (A) (A) (A) (A) (A) (A)
                 (A) (A) (A) (A) (A) (A) (A) (A) (A) (A) (A) (A)
                 (A) (A) (A) (A) (A) (A) (A) (A) (A) (A) (A) (A)
                 (A) (A) (A) (A) (A) (A) (A) (A) (A) (A) (A) (A)
                 (A) (A) (A) (A) (A) (A) (A) (A) (A) (A) (A) (A)
                 (A) (A) (A) (A) (A) (A) (A) (A) (A) (A) (A) (A)
                 (A) (A) (A) (A) (A) (A) (A) (A) (A) (A) (A) (A)
                 (A) (A) (A) (A) (A) (A) (A) (A) (A) (A) (A) (A)
                 (A) (A) (A) (A) (A) (A) (A) (A) (A) (A) (A) (A)
                 (A) (A) (A) (A) (A) (A) (A) (A) (A) (A) (A) (A)
                 (A) (A) (A) (A) (A) (A) (A) (A) (A) (A) (A) (A)
                 (A) (A) (A) (A) (A) (A) (A) (A) (A) (A) (A) (A)
                 (A) (A) (A) (A) (A) (A) (A) (A) (A) (A) (A) (A)
                 (A) (A) (A) (A) (A) (A) (A) (A) (A) (A) (A) (A)
                 (A) (A) (A) (A) (A) (A) (A) (A) (A) (A) (A) (A)
                 (A) (A) (A) (A) (A) (A) (A) (A) (A) (A) (A) (A)
                 (A) (A) (A) (A) (A) (A) (A) (A) (A) (A) (A) (A)
                 (A) (A) (A) (A) (A) (A) (A) (A) (A) (A) (A) (A)
                 (A) (A) (A) (A) (A) (A) (A) (A) (A) (A) (A) (A)
                 (A) (A) (A) (A) (A) (A) (A) (A) (A) (A) (A) (A)
                 (A) (A) (A) (A) (A) (A) (A) (A) (A) (A) (A) (A)
                 (A) (A) (A) (A) (A) (A) (A) (A) (A) (A) (A) (A)
                 (A) (A) (A) (A) (A) (A) (A) (A) (A) (A) (A) (A)
                 (A) (A) (A) (A) (A) (A) (A) (A) (A) (A) (A) (A)
                 (A) (A) (A) (A) (A) (A) (A) (A) (A) (A) (A) (A)
                 (A) (A) (A) (A) (A) (A) (A) (A) (A) (A) (A) (A)
                 (A) (A) (A) (A) (A) (A) (A) (A) (A) (A) (A) (A)
                 (A) (A) (A) (A) (A) (A) (A) (A) (A) (A) (A) (A)
                 (A) (A) (A) (A) (A) (A) (A) (A) (A) (A) (A) (A)
                 (A) (A) (A) (A) (A) (A) (A) (A) (A) (A) (A) (A)
                 (A) (A) (A) (A) (A) (A) (A) (A) (A) (A) (A) (A)
                 (A) (A) (A) (A) (A) (A) (A) (A) (A) (A) (A) (A)
                 (A) (A) (A) (A) (A) (A) (A) (A) (A) (A) (A) (A)
                 (A) (A) (A) (A) (A) (A) (A) (A) (A) (A) (A) (A)
 The electronic state is 1-A.
 Alpha  occ. eigenvalues --  -88.87564 -88.87471 -19.16285 -19.16277 -19.12973
 Alpha  occ. eigenvalues --  -19.12886 -19.12462 -19.12345 -14.39162 -14.38676
 Alpha  occ. eigenvalues --  -10.31660 -10.31419 -10.31237 -10.31074 -10.24474
 Alpha  occ. eigenvalues --  -10.24060 -10.23794 -10.23683 -10.23674 -10.23463
 Alpha  occ. eigenvalues --  -10.23352 -10.23305 -10.23091 -10.22987 -10.22902
 Alpha  occ. eigenvalues --  -10.22053 -10.21927 -10.21910 -10.21612 -10.21393
 Alpha  occ. eigenvalues --  -10.20960 -10.20920 -10.20740 -10.19957 -10.18636
 Alpha  occ. eigenvalues --  -10.18092  -7.96082  -7.96015  -5.92408  -5.92325
 Alpha  occ. eigenvalues --   -5.92016  -5.91939  -5.91624  -5.91585  -1.08934
 Alpha  occ. eigenvalues --   -1.08495  -1.07882  -1.07808  -1.07048  -1.06512
 Alpha  occ. eigenvalues --   -0.96721  -0.96132  -0.92991  -0.89540  -0.88125
 Alpha  occ. eigenvalues --   -0.86722  -0.84902  -0.80598  -0.79089  -0.77163
 Alpha  occ. eigenvalues --   -0.75823  -0.75623  -0.74540  -0.72967  -0.72635
 Alpha  occ. eigenvalues --   -0.71934  -0.69877  -0.68704  -0.67542  -0.66368
 Alpha  occ. eigenvalues --   -0.65828  -0.65008  -0.60870  -0.59529  -0.58727
 Alpha  occ. eigenvalues --   -0.57814  -0.56656  -0.55618  -0.55524  -0.54105
 Alpha  occ. eigenvalues --   -0.53943  -0.52109  -0.50603  -0.50262  -0.50004
 Alpha  occ. eigenvalues --   -0.49214  -0.49030  -0.48926  -0.48129  -0.47868
 Alpha  occ. eigenvalues --   -0.47742  -0.47559  -0.46951  -0.46574  -0.45611
 Alpha  occ. eigenvalues --   -0.45336  -0.44927  -0.44835  -0.44602  -0.44197
 Alpha  occ. eigenvalues --   -0.42922  -0.42832  -0.42303  -0.42061  -0.41617
 Alpha  occ. eigenvalues --   -0.41509  -0.41232  -0.40921  -0.40652  -0.40185
 Alpha  occ. eigenvalues --   -0.39772  -0.38761  -0.38147  -0.37985  -0.37001
 Alpha  occ. eigenvalues --   -0.35786  -0.35595  -0.33660  -0.33241  -0.33118
 Alpha  occ. eigenvalues --   -0.32883  -0.32601  -0.31394  -0.30482  -0.30036
 Alpha  occ. eigenvalues --   -0.29408  -0.29286  -0.28732  -0.28609  -0.27496
 Alpha  occ. eigenvalues --   -0.26767  -0.24252  -0.23735  -0.18516
 Alpha virt. eigenvalues --   -0.13824  -0.07511  -0.06458  -0.05285  -0.04653
 Alpha virt. eigenvalues --   -0.01118  -0.00144  -0.00049   0.00175   0.00339
 Alpha virt. eigenvalues --    0.00593   0.00626   0.01032   0.01182   0.01728
 Alpha virt. eigenvalues --    0.02091   0.02150   0.02687   0.03111   0.03212
 Alpha virt. eigenvalues --    0.03400   0.03649   0.03830   0.04202   0.04586
 Alpha virt. eigenvalues --    0.04859   0.05077   0.05312   0.05418   0.05725
 Alpha virt. eigenvalues --    0.05851   0.06118   0.06217   0.06426   0.06833
 Alpha virt. eigenvalues --    0.07197   0.07426   0.07723   0.07925   0.08315
 Alpha virt. eigenvalues --    0.08665   0.08680   0.08994   0.09096   0.09284
 Alpha virt. eigenvalues --    0.09467   0.09594   0.09726   0.10284   0.10516
 Alpha virt. eigenvalues --    0.10668   0.11067   0.11432   0.11811   0.12067
 Alpha virt. eigenvalues --    0.12080   0.12514   0.12827   0.13121   0.13387
 Alpha virt. eigenvalues --    0.13420   0.13719   0.13738   0.14058   0.14279
 Alpha virt. eigenvalues --    0.14309   0.14668   0.14799   0.14905   0.15416
 Alpha virt. eigenvalues --    0.15660   0.15753   0.15829   0.15889   0.16088
 Alpha virt. eigenvalues --    0.16331   0.16704   0.16984   0.17259   0.17584
 Alpha virt. eigenvalues --    0.17902   0.18153   0.18191   0.18294   0.18497
 Alpha virt. eigenvalues --    0.18642   0.18862   0.19161   0.19278   0.19543
 Alpha virt. eigenvalues --    0.19644   0.19949   0.20052   0.20106   0.20291
 Alpha virt. eigenvalues --    0.20426   0.20586   0.20737   0.21004   0.21226
 Alpha virt. eigenvalues --    0.21458   0.21584   0.21846   0.22088   0.22267
 Alpha virt. eigenvalues --    0.22487   0.22546   0.22832   0.22958   0.23120
 Alpha virt. eigenvalues --    0.23363   0.23482   0.23568   0.24106   0.24222
 Alpha virt. eigenvalues --    0.24402   0.24471   0.24762   0.24945   0.25040
 Alpha virt. eigenvalues --    0.25160   0.25469   0.25534   0.25937   0.26044
 Alpha virt. eigenvalues --    0.26278   0.26404   0.26733   0.26941   0.27148
 Alpha virt. eigenvalues --    0.27577   0.27685   0.27813   0.28071   0.28175
 Alpha virt. eigenvalues --    0.28230   0.28448   0.28594   0.29155   0.29182
 Alpha virt. eigenvalues --    0.29385   0.29599   0.30002   0.30099   0.30393
 Alpha virt. eigenvalues --    0.30653   0.30792   0.30862   0.31376   0.31551
 Alpha virt. eigenvalues --    0.31912   0.31984   0.32319   0.32535   0.32793
 Alpha virt. eigenvalues --    0.33168   0.33348   0.33588   0.33725   0.34041
 Alpha virt. eigenvalues --    0.34331   0.34562   0.35094   0.35398   0.35638
 Alpha virt. eigenvalues --    0.35931   0.36482   0.36745   0.36894   0.37466
 Alpha virt. eigenvalues --    0.37919   0.38209   0.38557   0.38784   0.38854
 Alpha virt. eigenvalues --    0.39619   0.40061   0.40368   0.40970   0.41568
 Alpha virt. eigenvalues --    0.41889   0.42059   0.42366   0.43076   0.43522
 Alpha virt. eigenvalues --    0.43664   0.44413   0.44713   0.44925   0.45200
 Alpha virt. eigenvalues --    0.45465   0.45569   0.45895   0.46123   0.46590
 Alpha virt. eigenvalues --    0.46718   0.47438   0.47893   0.48483   0.49073
 Alpha virt. eigenvalues --    0.49358   0.49642   0.49826   0.50158   0.50535
 Alpha virt. eigenvalues --    0.51425   0.52063   0.52392   0.52794   0.53558
 Alpha virt. eigenvalues --    0.53900   0.54495   0.54888   0.55291   0.55724
 Alpha virt. eigenvalues --    0.55868   0.56166   0.56378   0.56751   0.56796
 Alpha virt. eigenvalues --    0.57118   0.57656   0.58588   0.59043   0.59176
 Alpha virt. eigenvalues --    0.59319   0.60258   0.60462   0.60571   0.61272
 Alpha virt. eigenvalues --    0.61832   0.62032   0.62344   0.62427   0.63157
 Alpha virt. eigenvalues --    0.63521   0.63639   0.63920   0.64166   0.64499
 Alpha virt. eigenvalues --    0.64868   0.65121   0.65614   0.65707   0.66263
 Alpha virt. eigenvalues --    0.66979   0.67173   0.67646   0.67905   0.67937
 Alpha virt. eigenvalues --    0.68831   0.69124   0.69422   0.69936   0.70242
 Alpha virt. eigenvalues --    0.70562   0.70695   0.71223   0.71459   0.72105
 Alpha virt. eigenvalues --    0.72154   0.73090   0.73414   0.73562   0.73720
 Alpha virt. eigenvalues --    0.73962   0.74623   0.74802   0.75016   0.75292
 Alpha virt. eigenvalues --    0.75370   0.75776   0.76349   0.76552   0.77103
 Alpha virt. eigenvalues --    0.77291   0.77505   0.77824   0.78149   0.78559
 Alpha virt. eigenvalues --    0.78985   0.79891   0.80245   0.80963   0.81818
 Alpha virt. eigenvalues --    0.82342   0.82763   0.83487   0.84110   0.85198
 Alpha virt. eigenvalues --    0.85951   0.86134   0.87195   0.87535   0.87631
 Alpha virt. eigenvalues --    0.88115   0.88316   0.88932   0.89727   0.90414
 Alpha virt. eigenvalues --    0.91038   0.91319   0.91626   0.92288   0.92798
 Alpha virt. eigenvalues --    0.93344   0.93616   0.93973   0.94579   0.94946
 Alpha virt. eigenvalues --    0.95203   0.95496   0.96011   0.96356   0.96717
 Alpha virt. eigenvalues --    0.97447   0.97943   0.98506   1.00008   1.00313
 Alpha virt. eigenvalues --    1.00480   1.00949   1.01296   1.01515   1.01676
 Alpha virt. eigenvalues --    1.02460   1.03364   1.03576   1.03900   1.04046
 Alpha virt. eigenvalues --    1.04617   1.04932   1.04980   1.05546   1.06013
 Alpha virt. eigenvalues --    1.06253   1.07211   1.07439   1.07640   1.08222
 Alpha virt. eigenvalues --    1.08361   1.09054   1.09505   1.10105   1.10824
 Alpha virt. eigenvalues --    1.11046   1.11376   1.12308   1.13089   1.13884
 Alpha virt. eigenvalues --    1.14176   1.15232   1.16055   1.16748   1.17557
 Alpha virt. eigenvalues --    1.17963   1.18438   1.18741   1.19593   1.20021
 Alpha virt. eigenvalues --    1.21151   1.21975   1.22341   1.24119   1.25249
 Alpha virt. eigenvalues --    1.25538   1.25768   1.26095   1.26317   1.26475
 Alpha virt. eigenvalues --    1.27469   1.27757   1.28573   1.29240   1.29808
 Alpha virt. eigenvalues --    1.31443   1.32517   1.32578   1.33339   1.34323
 Alpha virt. eigenvalues --    1.35328   1.35826   1.36241   1.36803   1.37551
 Alpha virt. eigenvalues --    1.39563   1.40358   1.40774   1.41768   1.42119
 Alpha virt. eigenvalues --    1.42724   1.42977   1.43049   1.43427   1.44027
 Alpha virt. eigenvalues --    1.44394   1.44570   1.44735   1.44877   1.45414
 Alpha virt. eigenvalues --    1.45904   1.46669   1.46731   1.47197   1.48096
 Alpha virt. eigenvalues --    1.49367   1.50186   1.50611   1.50990   1.51951
 Alpha virt. eigenvalues --    1.52222   1.52886   1.53555   1.53858   1.54116
 Alpha virt. eigenvalues --    1.54709   1.55065   1.55148   1.56076   1.56554
 Alpha virt. eigenvalues --    1.57641   1.58888   1.59719   1.59752   1.60621
 Alpha virt. eigenvalues --    1.61462   1.61937   1.62791   1.63030   1.63740
 Alpha virt. eigenvalues --    1.64075   1.64629   1.65456   1.66048   1.66697
 Alpha virt. eigenvalues --    1.66978   1.67435   1.68489   1.69177   1.69382
 Alpha virt. eigenvalues --    1.69457   1.70320   1.70417   1.70542   1.70894
 Alpha virt. eigenvalues --    1.71624   1.72862   1.73880   1.74053   1.74596
 Alpha virt. eigenvalues --    1.75397   1.76390   1.76596   1.77462   1.78226
 Alpha virt. eigenvalues --    1.79091   1.79183   1.80653   1.81060   1.81604
 Alpha virt. eigenvalues --    1.82481   1.83200   1.84150   1.84779   1.85489
 Alpha virt. eigenvalues --    1.85855   1.86288   1.86799   1.87465   1.87897
 Alpha virt. eigenvalues --    1.88736   1.89649   1.89788   1.90074   1.90931
 Alpha virt. eigenvalues --    1.91402   1.91653   1.92475   1.93842   1.94463
 Alpha virt. eigenvalues --    1.95149   1.95445   1.96123   1.97072   1.97442
 Alpha virt. eigenvalues --    1.98764   1.99028   2.00557   2.01089   2.01670
 Alpha virt. eigenvalues --    2.01796   2.02475   2.03408   2.03860   2.04283
 Alpha virt. eigenvalues --    2.05082   2.05913   2.06112   2.07168   2.08003
 Alpha virt. eigenvalues --    2.08157   2.08467   2.09629   2.10892   2.11281
 Alpha virt. eigenvalues --    2.12146   2.12390   2.12981   2.13919   2.14695
 Alpha virt. eigenvalues --    2.14945   2.15657   2.16252   2.16901   2.17649
 Alpha virt. eigenvalues --    2.18273   2.18927   2.20041   2.20331   2.21309
 Alpha virt. eigenvalues --    2.22119   2.22532   2.25390   2.26061   2.26931
 Alpha virt. eigenvalues --    2.28032   2.31269   2.31883   2.32413   2.34117
 Alpha virt. eigenvalues --    2.35627   2.37024   2.39248   2.39445   2.41614
 Alpha virt. eigenvalues --    2.43032   2.43513   2.43620   2.44524   2.45460
 Alpha virt. eigenvalues --    2.46136   2.46681   2.46875   2.48287   2.48673
 Alpha virt. eigenvalues --    2.49753   2.50624   2.51108   2.52073   2.52080
 Alpha virt. eigenvalues --    2.52336   2.52935   2.53148   2.53747   2.54867
 Alpha virt. eigenvalues --    2.55770   2.57627   2.57870   2.58612   2.58747
 Alpha virt. eigenvalues --    2.59735   2.60827   2.62833   2.63765   2.64187
 Alpha virt. eigenvalues --    2.64764   2.66603   2.67471   2.67921   2.68266
 Alpha virt. eigenvalues --    2.68494   2.68920   2.69625   2.70008   2.70536
 Alpha virt. eigenvalues --    2.70916   2.71849   2.72347   2.73324   2.74653
 Alpha virt. eigenvalues --    2.75048   2.75397   2.76789   2.78783   2.79391
 Alpha virt. eigenvalues --    2.79741   2.81656   2.82734   2.83351   2.83650
 Alpha virt. eigenvalues --    2.83940   2.84374   2.85417   2.85728   2.85888
 Alpha virt. eigenvalues --    2.86999   2.87096   2.87939   2.88059   2.89435
 Alpha virt. eigenvalues --    2.90338   2.91457   2.91974   2.92701   2.93635
 Alpha virt. eigenvalues --    2.94187   2.94781   2.95723   2.96902   2.98433
 Alpha virt. eigenvalues --    2.98973   3.00791   3.00943   3.04128   3.04462
 Alpha virt. eigenvalues --    3.04929   3.05349   3.06500   3.08272   3.08668
 Alpha virt. eigenvalues --    3.10332   3.11086   3.12431   3.13553   3.14808
 Alpha virt. eigenvalues --    3.15532   3.16506   3.17258   3.19121   3.19942
 Alpha virt. eigenvalues --    3.22000   3.23278   3.23968   3.24427   3.24560
 Alpha virt. eigenvalues --    3.26650   3.28255   3.29971   3.30691   3.32547
 Alpha virt. eigenvalues --    3.33410   3.33946   3.34136   3.34833   3.34992
 Alpha virt. eigenvalues --    3.36251   3.38134   3.38901   3.41415   3.42018
 Alpha virt. eigenvalues --    3.43135   3.43727   3.45082   3.46624   3.48028
 Alpha virt. eigenvalues --    3.49675   3.49822   3.53621   3.56276   3.56993
 Alpha virt. eigenvalues --    3.59104   3.59693   3.61594   3.64662   3.65193
 Alpha virt. eigenvalues --    3.66062   3.68757   3.70233   3.71737   3.72459
 Alpha virt. eigenvalues --    3.76155   3.76528   3.76750   3.81386   3.82538
 Alpha virt. eigenvalues --    3.84812   3.84940   3.85974   3.89745   3.91977
 Alpha virt. eigenvalues --    3.92408   3.92906   3.93760   3.97002   4.00932
 Alpha virt. eigenvalues --    4.03653   4.04387   4.08474   4.11117   4.12025
 Alpha virt. eigenvalues --    4.14626   4.18899   4.23357   4.24734   4.27269
 Alpha virt. eigenvalues --    4.34621   4.37529   4.39333   4.50077   4.66357
 Alpha virt. eigenvalues --    4.83219   4.84860   4.86678   4.89847   5.02414
 Alpha virt. eigenvalues --    5.03081   5.03513   5.04779   5.05181   5.07901
 Alpha virt. eigenvalues --    5.10657   5.12215   5.24330   5.26159   5.28236
 Alpha virt. eigenvalues --    5.30642   5.43018   5.44434   5.74967   5.77210
 Alpha virt. eigenvalues --    5.79518   5.80791   5.81391   5.84966   8.03179
 Alpha virt. eigenvalues --    8.07371  17.29923  17.35748  17.50556  17.53672
 Alpha virt. eigenvalues --   17.57546  17.64070  23.48833  23.56957  23.72902
 Alpha virt. eigenvalues --   23.78837  23.81734  23.82893  23.83606  23.85818
 Alpha virt. eigenvalues --   23.86255  23.87361  23.90055  23.90433  23.91645
 Alpha virt. eigenvalues --   23.92377  23.94191  23.94807  23.95563  23.97278
 Alpha virt. eigenvalues --   23.99366  24.02768  24.03458  24.03966  24.11923
 Alpha virt. eigenvalues --   24.13048  24.13506  24.15356  35.55338  35.58211
 Alpha virt. eigenvalues --   49.96870  49.97898  50.01307  50.02929  50.05077
 Alpha virt. eigenvalues --   50.06631 189.20409 189.25893
          Condensed to atoms (all electrons):
 Mulliken charges:
               1
     1  C    0.328163
     2  C    0.038564
     3  C    0.140792
     4  C    0.216798
     5  C    0.215232
     6  C   -0.735969
     7  C    0.216652
     8  C   -0.115805
     9  C    0.460309
    10  C   -0.197781
    11  C    0.339505
    12  C    0.152208
    13  C   -0.530596
    14  C   -0.636692
    15  H    0.163317
    16  H    0.165844
    17  H    0.170647
    18  N   -0.154934
    19  N   -0.139639
    20  O   -0.268988
    21  O   -0.269193
    22  O   -0.274613
    23  O   -0.167471
    24  C   -0.197022
    25  H    0.178378
    26  H    0.176507
    27  H    0.183528
    28  C   -0.196844
    29  H    0.175199
    30  H    0.176875
    31  H    0.183570
    32  C    0.294285
    33  C   -0.577403
    34  S   -0.064412
    35  C   -0.121418
    36  H    0.113382
    37  C    0.216010
    38  O   -0.117363
    39  C    0.859596
    40  C   -0.243173
    41  C    0.102875
    42  S   -0.258992
    43  H    0.165462
    44  H    0.144863
    45  H    0.152290
    46  C   -0.500692
    47  O   -0.147019
    48  C   -0.315287
    49  H    0.128656
    50  C   -0.234171
    51  H    0.156823
    52  H    0.143336
    53  H    0.162799
    54  H    0.143013
 Sum of Mulliken charges =  -0.00000
 Mulliken charges with hydrogens summed into heavy atoms:
               1
     1  C    0.328163
     2  C    0.038564
     3  C    0.140792
     4  C    0.216798
     5  C    0.215232
     6  C   -0.565323
     7  C    0.216652
     8  C   -0.115805
     9  C    0.460309
    10  C   -0.197781
    11  C    0.339505
    12  C    0.152208
    13  C   -0.364751
    14  C   -0.473374
    18  N   -0.154934
    19  N   -0.139639
    20  O   -0.268988
    21  O   -0.269193
    22  O   -0.274613
    23  O   -0.167471
    24  C    0.341391
    28  C    0.338800
    32  C    0.294285
    33  C   -0.464021
    34  S   -0.064412
    35  C   -0.121418
    37  C    0.216010
    38  O   -0.117363
    39  C    0.859596
    40  C    0.219441
    41  C    0.102875
    42  S   -0.258992
    46  C   -0.372036
    47  O   -0.147019
    48  C   -0.158463
    50  C    0.214978
 Electronic spatial extent (au):  <R**2>=          22357.6239
 Charge=             -0.0000 electrons
 Dipole moment (field-independent basis, Debye):
    X=             -1.3475    Y=             -0.1227    Z=              0.0503  Tot=              1.3540
 Quadrupole moment (field-independent basis, Debye-Ang):
   XX=           -220.9368   YY=           -234.9650   ZZ=           -196.2420
   XY=             -4.5666   XZ=              8.7748   YZ=             -4.7291
 Traceless Quadrupole moment (field-independent basis, Debye-Ang):
   XX=             -3.5555   YY=            -17.5837   ZZ=             21.1392
   XY=             -4.5666   XZ=              8.7748   YZ=             -4.7291
 Octapole moment (field-independent basis, Debye-Ang**2):
  XXX=           -270.1833  YYY=             -9.1196  ZZZ=              2.8824  XYY=            -15.8280
  XXY=            -20.2891  XXZ=            -57.3449  XZZ=            -92.1365  YZZ=             -9.1736
  YYZ=             -0.3371  XYZ=             10.9367
 Hexadecapole moment (field-independent basis, Debye-Ang**3):
 XXXX=         -21581.9784 YYYY=          -6120.9929 ZZZZ=          -2165.0085 XXXY=            152.3129
 XXXZ=            477.5787 YYYX=           -522.3797 YYYZ=             13.4435 ZZZX=             53.1757
 ZZZY=            -66.4696 XXYY=          -4869.4966 XXZZ=          -3672.2796 YYZZ=          -1387.9532
 XXYZ=            -90.1673 YYXZ=            -42.1926 ZZXY=            -11.6527
 N-N= 4.079920673868D+03 E-N=-1.369968563938D+04  KE= 2.351793462757D+03
 Calling FoFJK, ICntrl=      2127 FMM=F ISym2X=0 I1Cent= 0 IOpClX= 0 NMat=1 NMatS=1 NMatT=0.
 ***** Axes restored to original set *****
 -------------------------------------------------------------------
 Center     Atomic                   Forces (Hartrees/Bohr)
 Number     Number              X              Y              Z
 -------------------------------------------------------------------
      1        6           0.004768848   -0.006762112   -0.000279193
      2        6          -0.004194410    0.001400102   -0.000136187
      3        6           0.004738410   -0.001243793   -0.000372723
      4        6          -0.003237346    0.002197268    0.000606369
      5        6          -0.005929114   -0.003679426   -0.000381263
      6        6           0.004641345    0.005318180   -0.005367457
      7        6          -0.001755359   -0.001178923    0.001409685
      8        6           0.004955778   -0.011832329    0.002905909
      9        6          -0.024257980   -0.003372759   -0.004779234
     10        6           0.014394330    0.012344424    0.001043635
     11        6          -0.003091472    0.008484284    0.001057145
     12        6          -0.002465326   -0.001954667   -0.000099905
     13        6           0.002156561    0.001872443   -0.000014293
     14        6           0.003284506   -0.002829356   -0.000431793
     15        1           0.000552959    0.000613321    0.000028164
     16        1           0.000632136   -0.001043421   -0.000249654
     17        1           0.001892647    0.002134237    0.001786770
     18        7          -0.002301317   -0.001883115   -0.001339031
     19        7           0.000207270    0.002050574    0.000095429
     20        8          -0.006895603    0.007434422    0.000829773
     21        8           0.007642188    0.002829486    0.000236070
     22        8           0.006664014   -0.007446532   -0.000963813
     23        8          -0.009757094   -0.011057930   -0.004294735
     24        6           0.001095208    0.002893151   -0.000589251
     25        1          -0.000578916   -0.000104878   -0.000483656
     26        1          -0.001177572   -0.000730550    0.001253242
     27        1           0.001067389    0.000020974    0.000090976
     28        6          -0.000577290   -0.002261751   -0.000689163
     29        1          -0.000690188    0.000426887    0.001023727
     30        1          -0.000464922    0.000458484   -0.000525490
     31        1           0.000980616   -0.000409299   -0.000019046
     32        6           0.023484512    0.009530020    0.010409965
     33        6          -0.015820698   -0.002977990    0.004392307
     34       16          -0.006097354   -0.000479713   -0.006033709
     35        6           0.006850183    0.001678372    0.014203704
     36        1          -0.001739504   -0.000711335   -0.001940683
     37        6          -0.003308942    0.000372283   -0.011279667
     38        8          -0.000654895    0.001084356   -0.004183763
     39        6           0.004198199   -0.000830896    0.006368752
     40        6           0.000231560   -0.000876808    0.000070764
     41        6           0.001318817    0.000521528   -0.006711447
     42       16          -0.000539196   -0.000524120    0.002175232
     43        1          -0.000562371    0.000055027    0.000064599
     44        1           0.000770581    0.000804518    0.000527264
     45        1           0.001087330   -0.000121149    0.000129162
     46        6          -0.000694681   -0.000120564   -0.001066540
     47        8          -0.000501867   -0.000556602    0.001793898
     48        6           0.001732910    0.000398570    0.000964839
     49        1           0.000082653    0.000091498   -0.000893181
     50        6           0.000296923    0.001023585    0.001225157
     51        1          -0.001670610   -0.000171052   -0.000159128
     52        1          -0.000875117   -0.001094295   -0.000652220
     53        1           0.000626050    0.000125628   -0.000338221
     54        1          -0.000514780    0.000091742   -0.000418092
 -------------------------------------------------------------------
 Cartesian Forces:  Max     0.024257980 RMS     0.004811968

 GradGradGradGradGradGradGradGradGradGradGradGradGradGradGradGradGradGrad
 Berny optimization.
 FormGI is forming the generalized inverse of G from B-inverse, IUseBI=4.
 Internal  Forces:  Max     0.018169428 RMS     0.002731187
 Search for a local minimum.
 Step number   1 out of a maximum of  307
 All quantities printed in internal units (Hartrees-Bohrs-Radians)
 Mixed Optimization -- RFO/linear search
 Second derivative matrix not updated -- first step.
 ITU=  0
     Eigenvalues ---    0.01155   0.01172   0.01239   0.01297   0.01358
     Eigenvalues ---    0.01392   0.01397   0.01410   0.01451   0.01468
     Eigenvalues ---    0.01511   0.01543   0.01567   0.01591   0.01618
     Eigenvalues ---    0.01650   0.01679   0.01692   0.01711   0.01719
     Eigenvalues ---    0.01721   0.01763   0.01799   0.01845   0.01974
     Eigenvalues ---    0.02039   0.02046   0.02077   0.02086   0.02096
     Eigenvalues ---    0.02133   0.02149   0.02162   0.02176   0.02197
     Eigenvalues ---    0.02253   0.04601   0.04620   0.07665   0.07667
     Eigenvalues ---    0.10061   0.10072   0.10636   0.10640   0.15983
     Eigenvalues ---    0.15999   0.15999   0.16000   0.16000   0.16000
     Eigenvalues ---    0.16000   0.16000   0.16000   0.16000   0.16000
     Eigenvalues ---    0.16000   0.16000   0.16000   0.16000   0.16000
     Eigenvalues ---    0.16000   0.16000   0.22530   0.22583   0.23517
     Eigenvalues ---    0.23582   0.24513   0.24747   0.24864   0.24906
     Eigenvalues ---    0.24952   0.24985   0.24986   0.24988   0.24991
     Eigenvalues ---    0.24994   0.24996   0.24997   0.24998   0.24998
     Eigenvalues ---    0.25000   0.25000   0.25000   0.25000   0.25000
     Eigenvalues ---    0.25000   0.25000   0.25000   0.25000   0.25000
     Eigenvalues ---    0.28799   0.28964   0.30057   0.32085   0.32582
     Eigenvalues ---    0.32774   0.33104   0.33787   0.33952   0.33981
     Eigenvalues ---    0.34127   0.34143   0.34353   0.34466   0.34577
     Eigenvalues ---    0.34629   0.34693   0.34844   0.34894   0.35198
     Eigenvalues ---    0.35218   0.35468   0.35553   0.35582   0.35804
     Eigenvalues ---    0.35831   0.36078   0.36083   0.36284   0.36393
     Eigenvalues ---    0.36662   0.39348   0.40194   0.40200   0.40651
     Eigenvalues ---    0.40713   0.41524   0.41683   0.42061   0.42300
     Eigenvalues ---    0.42704   0.43455   0.43915   0.44092   0.44539
     Eigenvalues ---    0.44594   0.45014   0.45405   0.46251   0.47305
     Eigenvalues ---    0.47551   0.49309   0.49662   0.52944   0.53058
     Eigenvalues ---    0.93281   0.93432   0.93989   0.945851000.00000
     Eigenvalues --- 1000.000001000.000001000.000001000.000001000.00000
     Eigenvalues --- 1000.000001000.000001000.000001000.000001000.00000
     Eigenvalues --- 1000.000001000.000001000.000001000.000001000.00000
     Eigenvalues --- 1000.000001000.000001000.000001000.000001000.00000
     Eigenvalues --- 1000.000001000.000001000.000001000.000001000.00000
     Eigenvalues --- 1000.000001000.000001000.000001000.000001000.00000
     Eigenvalues --- 1000.000001000.000001000.000001000.000001000.00000
     Eigenvalues --- 1000.000001000.000001000.000001000.000001000.00000
     Eigenvalues --- 1000.000001000.000001000.000001000.000001000.00000
     Eigenvalues --- 1000.000001000.000001000.000001000.000001000.00000
     Eigenvalues --- 1000.000001000.000001000.000001000.000001000.00000
     Eigenvalues --- 1000.000001000.000001000.000001000.000001000.00000
     Eigenvalues --- 1000.000001000.000001000.000001000.000001000.00000
     Eigenvalues --- 1000.000001000.000001000.000001000.000001000.00000
     Eigenvalues --- 1000.000001000.000001000.000001000.000001000.00000
     Eigenvalues --- 1000.000001000.000001000.000001000.000001000.00000
     Eigenvalues --- 1000.000001000.000001000.000001000.000001000.00000
     Eigenvalues --- 1000.000001000.000001000.000001000.000001000.00000
     Eigenvalues --- 1000.000001000.000001000.000001000.000001000.00000
     Eigenvalues --- 1000.000001000.000001000.000001000.000001000.00000
     Eigenvalues --- 1000.000001000.000001000.000001000.000001000.00000
     Eigenvalues --- 1000.000001000.000001000.000001000.000001000.00000
     Eigenvalues --- 1000.000001000.000001000.000001000.000001000.00000
     Eigenvalues --- 1000.000001000.000001000.000001000.000001000.00000
     Eigenvalues --- 1000.000001000.000001000.000001000.000001000.00000
     Eigenvalues --- 1000.000001000.000001000.000001000.000001000.00000
     Eigenvalues --- 1000.000001000.000001000.000001000.000001000.00000
     Eigenvalues --- 1000.000001000.000001000.000001000.000001000.00000
     Eigenvalues --- 1000.000001000.000001000.000001000.000001000.00000
     Eigenvalues --- 1000.000001000.00000
 RFO step:  Lambda=-7.69477137D-03 EMin= 1.15532237D-02
 Linear search not attempted -- first point.
 Iteration  1 RMS(Cart)=  0.10431766 RMS(Int)=  0.00144792
 Iteration  2 RMS(Cart)=  0.00316505 RMS(Int)=  0.00019215
 Iteration  3 RMS(Cart)=  0.00000436 RMS(Int)=  0.00019214
 Iteration  4 RMS(Cart)=  0.00000000 RMS(Int)=  0.00019214
 Iteration  1 RMS(Cart)=  0.00001125 RMS(Int)=  0.00001146
 Iteration  2 RMS(Cart)=  0.00000696 RMS(Int)=  0.00001272
 Iteration  3 RMS(Cart)=  0.00000440 RMS(Int)=  0.00001457
 Iteration  4 RMS(Cart)=  0.00000283 RMS(Int)=  0.00001601
 Iteration  5 RMS(Cart)=  0.00000185 RMS(Int)=  0.00001700
 Iteration  6 RMS(Cart)=  0.00000121 RMS(Int)=  0.00001765
 Iteration  7 RMS(Cart)=  0.00000080 RMS(Int)=  0.00001808
 Variable       Old X    -DE/DX   Delta X   Delta X   Delta X     New X
                                 (Linear)    (Quad)   (Total)
    R1        2.80935  -0.00004   0.00000   0.00006   0.00006   2.80941
    R2        2.64584  -0.00019   0.00000  -0.00043  -0.00042   2.64542
    R3        2.31147  -0.01016   0.00000  -0.01072  -0.01072   2.30075
    R4        2.67311  -0.00251   0.00000  -0.00402  -0.00411   2.66900
    R5        2.59267   0.00401   0.00000   0.00900   0.00897   2.60164
    R6        2.66894  -0.00120   0.00000  -0.00250  -0.00251   2.66643
    R7        2.69164  -0.00264   0.00000  -0.00623  -0.00627   2.68537
    R8        2.81049   0.00009   0.00000   0.00010   0.00010   2.81059
    R9        2.62173  -0.00271   0.00000  -0.00530  -0.00530   2.61643
   R10        2.65570  -0.00099   0.00000  -0.00231  -0.00230   2.65340
   R11        2.30889  -0.00815   0.00000  -0.00855  -0.00855   2.30034
   R12        2.70248  -0.00746   0.00000  -0.01792  -0.01789   2.68459
   R13        2.04786  -0.00042   0.00000  -0.00116  -0.00116   2.04670
   R14        2.70495  -0.00631   0.00000  -0.01751  -0.01743   2.68753
   R15        2.68322  -0.00304   0.00000  -0.00774  -0.00775   2.67547
   R16        2.68655  -0.01817   0.00000  -0.04384  -0.04377   2.64278
   R17        2.81233  -0.00106   0.00000  -0.00359  -0.00352   2.80881
   R18        2.76359   0.00819   0.00000   0.02188   0.02188   2.78547
   R19        2.66221  -0.00006   0.00000   0.00027   0.00028   2.66248
   R20        2.31391  -0.01376   0.00000  -0.01461  -0.01461   2.29930
   R21        2.79415   0.00371   0.00000   0.01096   0.01089   2.80504
   R22        2.63842   0.00030   0.00000   0.00137   0.00131   2.63973
   R23        2.31456  -0.00999   0.00000  -0.01062  -0.01062   2.30394
   R24        2.62448  -0.00302   0.00000  -0.00641  -0.00640   2.61808
   R25        2.64561   0.00150   0.00000   0.00336   0.00336   2.64897
   R26        2.04921  -0.00120   0.00000  -0.00331  -0.00331   2.04590
   R27        2.04741  -0.00072   0.00000  -0.00198  -0.00198   2.04543
   R28        2.77259   0.00213   0.00000   0.00577   0.00577   2.77837
   R29        2.77252   0.00191   0.00000   0.00518   0.00518   2.77771
   R30        2.06176  -0.00072   0.00000  -0.00203  -0.00203   2.05973
   R31        2.06551  -0.00186   0.00000  -0.00528  -0.00528   2.06023
   R32        2.05322  -0.00090   0.00000  -0.00251  -0.00251   2.05071
   R33        2.06368  -0.00129   0.00000  -0.00366  -0.00366   2.06002
   R34        2.06281  -0.00082   0.00000  -0.00232  -0.00232   2.06049
   R35        2.05355  -0.00093   0.00000  -0.00258  -0.00258   2.05097
   R36        2.61104  -0.01122   0.00000  -0.02298  -0.02295   2.58808
   R37        3.33381  -0.00834   0.00000  -0.02839  -0.02835   3.30547
   R38        2.66250   0.00677   0.00000   0.01511   0.01509   2.67759
   R39        2.03640   0.00244   0.00000   0.00658   0.00658   2.04298
   R40        3.30484   0.00206   0.00000   0.00695   0.00694   3.31178
   R41        2.64256  -0.00808   0.00000  -0.01692  -0.01696   2.62560
   R42        2.57006   0.00292   0.00000   0.00544   0.00544   2.57550
   R43        2.71283   0.00397   0.00000   0.00970   0.00970   2.72253
   R44        2.69328  -0.00112   0.00000  -0.00265  -0.00265   2.69064
   R45        2.63466  -0.00473   0.00000  -0.01027  -0.01027   2.62439
   R46        3.32738  -0.00088   0.00000  -0.00295  -0.00295   3.32443
   R47        2.05847  -0.00051   0.00000  -0.00144  -0.00144   2.05704
   R48        2.07362  -0.00119   0.00000  -0.00341  -0.00341   2.07021
   R49        2.07116  -0.00077   0.00000  -0.00221  -0.00221   2.06896
   R50        2.69057  -0.00043   0.00000  -0.00122  -0.00122   2.68935
   R51        2.56899   0.00182   0.00000   0.00338   0.00338   2.57237
   R52        3.26339  -0.00125   0.00000  -0.00330  -0.00330   3.26009
   R53        2.58571  -0.00181   0.00000  -0.00335  -0.00334   2.58237
   R54        2.04347  -0.00080   0.00000  -0.00218  -0.00218   2.04129
   R55        2.68846  -0.00028   0.00000  -0.00066  -0.00066   2.68780
   R56        2.04389  -0.00167   0.00000  -0.00457  -0.00457   2.03933
   R57        2.07411  -0.00149   0.00000  -0.00431  -0.00431   2.06981
   R58        2.05929  -0.00072   0.00000  -0.00203  -0.00203   2.05726
   R59        2.07090  -0.00048   0.00000  -0.00138  -0.00138   2.06953
    A1        2.03797   0.00051   0.00000   0.00287   0.00285   2.04082
    A2        2.14521  -0.00078   0.00000  -0.00346  -0.00346   2.14175
    A3        2.10001   0.00027   0.00000   0.00059   0.00060   2.10060
    A4        2.10395  -0.00097   0.00000  -0.00504  -0.00505   2.09890
    A5        2.08282   0.00310   0.00000   0.00899   0.00902   2.09184
    A6        2.09624  -0.00212   0.00000  -0.00378  -0.00385   2.09239
    A7        2.10093   0.00151   0.00000   0.00549   0.00549   2.10642
    A8        2.07104   0.00030   0.00000   0.00360   0.00354   2.07458
    A9        2.11118  -0.00181   0.00000  -0.00899  -0.00900   2.10218
   A10        2.10296  -0.00065   0.00000  -0.00237  -0.00239   2.10057
   A11        2.09911  -0.00105   0.00000  -0.00357  -0.00362   2.09549
   A12        2.08110   0.00170   0.00000   0.00599   0.00601   2.08711
   A13        2.03739   0.00002   0.00000   0.00028   0.00027   2.03766
   A14        2.12972  -0.00028   0.00000  -0.00118  -0.00117   2.12855
   A15        2.11607   0.00026   0.00000   0.00090   0.00090   2.11697
   A16        2.15098  -0.00376   0.00000  -0.01352  -0.01403   2.13695
   A17        2.04399   0.00494   0.00000   0.02617   0.02557   2.06956
   A18        2.08722  -0.00111   0.00000  -0.01006  -0.01064   2.07658
   A19        2.11101  -0.00225   0.00000  -0.00928  -0.00927   2.10173
   A20        2.04385   0.00429   0.00000   0.01809   0.01795   2.06180
   A21        2.12832  -0.00204   0.00000  -0.00873  -0.00883   2.11950
   A22        2.08678   0.00309   0.00000   0.00947   0.00897   2.09575
   A23        2.04738   0.00558   0.00000   0.02307   0.02244   2.06982
   A24        2.14662  -0.00858   0.00000  -0.02827  -0.02903   2.11759
   A25        2.04892   0.00481   0.00000   0.01571   0.01584   2.06476
   A26        2.00754   0.00618   0.00000   0.02561   0.02551   2.03305
   A27        2.22643  -0.01098   0.00000  -0.04099  -0.04111   2.18532
   A28        2.06022  -0.00190   0.00000  -0.00762  -0.00766   2.05257
   A29        2.17370  -0.00677   0.00000  -0.02600  -0.02611   2.14759
   A30        2.04919   0.00868   0.00000   0.03391   0.03381   2.08299
   A31        2.01621   0.00170   0.00000   0.00865   0.00835   2.02455
   A32        2.14188  -0.00198   0.00000  -0.00853  -0.00855   2.13332
   A33        2.12500   0.00029   0.00000   0.00026   0.00024   2.12524
   A34        2.10943  -0.00068   0.00000  -0.00235  -0.00252   2.10691
   A35        2.11468  -0.00260   0.00000  -0.01088  -0.01089   2.10379
   A36        2.05896   0.00329   0.00000   0.01348   0.01352   2.07248
   A37        2.11176  -0.00030   0.00000  -0.00153  -0.00158   2.11018
   A38        2.05670   0.00048   0.00000   0.00275   0.00276   2.05946
   A39        2.11471  -0.00018   0.00000  -0.00118  -0.00117   2.11354
   A40        2.08567   0.00147   0.00000   0.00728   0.00720   2.09287
   A41        2.07549  -0.00032   0.00000  -0.00112  -0.00113   2.07436
   A42        2.12199  -0.00115   0.00000  -0.00604  -0.00606   2.11593
   A43        2.20043  -0.00255   0.00000  -0.00817  -0.00828   2.19215
   A44        2.02023   0.00082   0.00000   0.00230   0.00236   2.02259
   A45        2.06252   0.00174   0.00000   0.00587   0.00592   2.06844
   A46        2.18316  -0.00041   0.00000  -0.00119  -0.00120   2.18196
[...]
 Alpha  occ. eigenvalues --   -0.53925  -0.52122  -0.50632  -0.50257  -0.50097
 Alpha  occ. eigenvalues --   -0.49121  -0.49036  -0.48882  -0.48053  -0.47806
 Alpha  occ. eigenvalues --   -0.47652  -0.47497  -0.47011  -0.46643  -0.45557
 Alpha  occ. eigenvalues --   -0.45343  -0.45098  -0.44883  -0.44617  -0.44117
 Alpha  occ. eigenvalues --   -0.43072  -0.42838  -0.42471  -0.42023  -0.41796
 Alpha  occ. eigenvalues --   -0.41552  -0.41208  -0.40998  -0.40658  -0.40264
 Alpha  occ. eigenvalues --   -0.39991  -0.38834  -0.38122  -0.37877  -0.36865
 Alpha  occ. eigenvalues --   -0.35823  -0.35502  -0.33621  -0.33192  -0.33052
 Alpha  occ. eigenvalues --   -0.32862  -0.32724  -0.31416  -0.30501  -0.30050
 Alpha  occ. eigenvalues --   -0.29546  -0.29325  -0.28817  -0.28738  -0.27225
 Alpha  occ. eigenvalues --   -0.26792  -0.24125  -0.23735  -0.18577
 Alpha virt. eigenvalues --   -0.13575  -0.07292  -0.06181  -0.05114  -0.04321
 Alpha virt. eigenvalues --   -0.01141  -0.00061  -0.00008   0.00234   0.00524
 Alpha virt. eigenvalues --    0.00621   0.00799   0.01058   0.01165   0.01711
 Alpha virt. eigenvalues --    0.02053   0.02156   0.02691   0.03108   0.03238
 Alpha virt. eigenvalues --    0.03468   0.03679   0.03902   0.04151   0.04587
 Alpha virt. eigenvalues --    0.04916   0.05111   0.05349   0.05512   0.05779
 Alpha virt. eigenvalues --    0.05888   0.06083   0.06176   0.06543   0.06847
 Alpha virt. eigenvalues --    0.07243   0.07446   0.07802   0.07970   0.08347
 Alpha virt. eigenvalues --    0.08587   0.08767   0.09016   0.09197   0.09375
 Alpha virt. eigenvalues --    0.09509   0.09580   0.09765   0.10250   0.10619
 Alpha virt. eigenvalues --    0.10818   0.11151   0.11382   0.11792   0.12060
 Alpha virt. eigenvalues --    0.12346   0.12566   0.12998   0.13207   0.13409
 Alpha virt. eigenvalues --    0.13485   0.13611   0.13751   0.13991   0.14186
 Alpha virt. eigenvalues --    0.14373   0.14686   0.14799   0.15045   0.15360
 Alpha virt. eigenvalues --    0.15554   0.15727   0.15833   0.16042   0.16185
 Alpha virt. eigenvalues --    0.16373   0.16780   0.16902   0.17183   0.17723
 Alpha virt. eigenvalues --    0.17926   0.18060   0.18367   0.18441   0.18638
 Alpha virt. eigenvalues --    0.18706   0.19021   0.19191   0.19268   0.19575
 Alpha virt. eigenvalues --    0.19782   0.20015   0.20083   0.20341   0.20364
 Alpha virt. eigenvalues --    0.20416   0.20617   0.20810   0.21072   0.21225
 Alpha virt. eigenvalues --    0.21500   0.21757   0.21952   0.22089   0.22282
 Alpha virt. eigenvalues --    0.22501   0.22637   0.22814   0.22930   0.23109
 Alpha virt. eigenvalues --    0.23437   0.23584   0.23675   0.24164   0.24449
 Alpha virt. eigenvalues --    0.24550   0.24656   0.24785   0.24937   0.25083
 Alpha virt. eigenvalues --    0.25280   0.25394   0.25496   0.25837   0.26199
 Alpha virt. eigenvalues --    0.26430   0.26528   0.26777   0.26937   0.27163
 Alpha virt. eigenvalues --    0.27541   0.27734   0.27814   0.28044   0.28129
 Alpha virt. eigenvalues --    0.28360   0.28587   0.28763   0.29083   0.29376
 Alpha virt. eigenvalues --    0.29515   0.29780   0.30033   0.30387   0.30476
 Alpha virt. eigenvalues --    0.30778   0.30921   0.31033   0.31323   0.31630
 Alpha virt. eigenvalues --    0.31926   0.32016   0.32326   0.32856   0.32876
 Alpha virt. eigenvalues --    0.33291   0.33383   0.33755   0.34023   0.34113
 Alpha virt. eigenvalues --    0.34366   0.34570   0.34842   0.35271   0.35745
 Alpha virt. eigenvalues --    0.36093   0.36503   0.36853   0.37006   0.37717
 Alpha virt. eigenvalues --    0.37914   0.38371   0.38670   0.38719   0.39401
 Alpha virt. eigenvalues --    0.39758   0.39781   0.40499   0.41132   0.41666
 Alpha virt. eigenvalues --    0.41975   0.42460   0.42698   0.43052   0.43447
 Alpha virt. eigenvalues --    0.44171   0.44550   0.44818   0.45078   0.45456
 Alpha virt. eigenvalues --    0.45561   0.45653   0.45708   0.46367   0.46667
 Alpha virt. eigenvalues --    0.46808   0.47540   0.48196   0.48877   0.49546
 Alpha virt. eigenvalues --    0.49628   0.49983   0.50204   0.50666   0.51458
 Alpha virt. eigenvalues --    0.51686   0.52440   0.52632   0.53243   0.53829
 Alpha virt. eigenvalues --    0.54273   0.54575   0.54976   0.55397   0.55679
 Alpha virt. eigenvalues --    0.56123   0.56383   0.56777   0.56910   0.57383
 Alpha virt. eigenvalues --    0.57713   0.58209   0.58254   0.58986   0.59082
 Alpha virt. eigenvalues --    0.59672   0.60123   0.60459   0.60732   0.61496
 Alpha virt. eigenvalues --    0.61881   0.62169   0.62564   0.62879   0.63201
 Alpha virt. eigenvalues --    0.63611   0.63826   0.64134   0.64425   0.64887
 Alpha virt. eigenvalues --    0.65163   0.65467   0.65725   0.66060   0.66391
 Alpha virt. eigenvalues --    0.67278   0.67506   0.67804   0.68154   0.68368
 Alpha virt. eigenvalues --    0.68726   0.69180   0.69362   0.70271   0.70522
 Alpha virt. eigenvalues --    0.70647   0.71103   0.71355   0.71863   0.71926
 Alpha virt. eigenvalues --    0.72555   0.73089   0.73525   0.73784   0.74180
 Alpha virt. eigenvalues --    0.74490   0.74846   0.74981   0.75064   0.75360
 Alpha virt. eigenvalues --    0.75796   0.75963   0.76319   0.76832   0.77209
 Alpha virt. eigenvalues --    0.77307   0.77520   0.78135   0.78478   0.78883
 Alpha virt. eigenvalues --    0.79277   0.79993   0.80173   0.80751   0.81851
 Alpha virt. eigenvalues --    0.82738   0.83082   0.83349   0.84295   0.85445
 Alpha virt. eigenvalues --    0.85898   0.86736   0.87290   0.87678   0.87967
 Alpha virt. eigenvalues --    0.88546   0.88759   0.89652   0.89726   0.90442
 Alpha virt. eigenvalues --    0.90801   0.91851   0.92045   0.92844   0.93273
 Alpha virt. eigenvalues --    0.93346   0.94063   0.94324   0.94546   0.94771
 Alpha virt. eigenvalues --    0.95218   0.95661   0.95984   0.96523   0.97144
 Alpha virt. eigenvalues --    0.97735   0.98341   0.99454   0.99670   1.00358
 Alpha virt. eigenvalues --    1.00551   1.00845   1.01085   1.01612   1.01950
 Alpha virt. eigenvalues --    1.02573   1.03448   1.03988   1.04160   1.04224
 Alpha virt. eigenvalues --    1.04636   1.04895   1.05507   1.05794   1.06021
 Alpha virt. eigenvalues --    1.06656   1.06899   1.07493   1.07924   1.08288
 Alpha virt. eigenvalues --    1.08353   1.09054   1.09779   1.10584   1.11084
 Alpha virt. eigenvalues --    1.11209   1.11738   1.12704   1.13456   1.14463
 Alpha virt. eigenvalues --    1.14793   1.15176   1.15774   1.16517   1.17650
 Alpha virt. eigenvalues --    1.17986   1.18356   1.18509   1.19483   1.20384
 Alpha virt. eigenvalues --    1.21133   1.21735   1.22306   1.23968   1.24972
 Alpha virt. eigenvalues --    1.25834   1.26323   1.26421   1.26791   1.26962
 Alpha virt. eigenvalues --    1.27397   1.27995   1.28209   1.29197   1.29626
 Alpha virt. eigenvalues --    1.31960   1.33131   1.33425   1.33838   1.34423
 Alpha virt. eigenvalues --    1.35841   1.36269   1.36549   1.37467   1.38476
 Alpha virt. eigenvalues --    1.40295   1.41086   1.41476   1.41631   1.42512
 Alpha virt. eigenvalues --    1.42828   1.43087   1.43392   1.43945   1.44161
 Alpha virt. eigenvalues --    1.44441   1.44529   1.44789   1.45330   1.45721
 Alpha virt. eigenvalues --    1.45967   1.46566   1.46826   1.47071   1.48320
 Alpha virt. eigenvalues --    1.49983   1.50424   1.51029   1.51179   1.51952
 Alpha virt. eigenvalues --    1.53172   1.53407   1.53832   1.54203   1.54516
 Alpha virt. eigenvalues --    1.54601   1.55056   1.55271   1.56069   1.56636
 Alpha virt. eigenvalues --    1.57788   1.59091   1.60083   1.60408   1.60998
 Alpha virt. eigenvalues --    1.61687   1.61855   1.63073   1.63441   1.64056
 Alpha virt. eigenvalues --    1.64747   1.64927   1.65266   1.65996   1.66950
 Alpha virt. eigenvalues --    1.67094   1.67469   1.68476   1.69421   1.69558
 Alpha virt. eigenvalues --    1.69716   1.70320   1.70697   1.70938   1.71275
 Alpha virt. eigenvalues --    1.71892   1.73331   1.73861   1.74511   1.75158
 Alpha virt. eigenvalues --    1.75232   1.76644   1.76673   1.78002   1.78592
 Alpha virt. eigenvalues --    1.79226   1.79666   1.80911   1.81904   1.82287
 Alpha virt. eigenvalues --    1.82641   1.83743   1.84442   1.84755   1.85616
 Alpha virt. eigenvalues --    1.86255   1.86519   1.87002   1.87693   1.88422
 Alpha virt. eigenvalues --    1.89011   1.89906   1.90048   1.90808   1.91229
 Alpha virt. eigenvalues --    1.91561   1.92126   1.93087   1.93880   1.94564
 Alpha virt. eigenvalues --    1.95456   1.95694   1.96418   1.97023   1.98171
 Alpha virt. eigenvalues --    1.98731   1.99128   2.00825   2.01495   2.02118
 Alpha virt. eigenvalues --    2.02322   2.02687   2.03728   2.03844   2.04361
 Alpha virt. eigenvalues --    2.05560   2.06112   2.06700   2.07345   2.07884
 Alpha virt. eigenvalues --    2.08338   2.08976   2.10104   2.11608   2.11889
 Alpha virt. eigenvalues --    2.12281   2.12747   2.13138   2.14479   2.14786
 Alpha virt. eigenvalues --    2.15621   2.15776   2.16550   2.17147   2.18189
 Alpha virt. eigenvalues --    2.19015   2.19442   2.20052   2.20806   2.21205
 Alpha virt. eigenvalues --    2.22194   2.22888   2.25334   2.25969   2.26878
 Alpha virt. eigenvalues --    2.28378   2.31424   2.32061   2.32996   2.34138
 Alpha virt. eigenvalues --    2.36209   2.37019   2.39683   2.39710   2.41960
 Alpha virt. eigenvalues --    2.43427   2.43517   2.43963   2.45026   2.45837
 Alpha virt. eigenvalues --    2.46184   2.46835   2.46965   2.48816   2.48984
 Alpha virt. eigenvalues --    2.50236   2.50806   2.51565   2.52060   2.52324
 Alpha virt. eigenvalues --    2.52525   2.53043   2.53115   2.53608   2.55112
 Alpha virt. eigenvalues --    2.56033   2.57649   2.58165   2.58664   2.59140
 Alpha virt. eigenvalues --    2.59527   2.61169   2.63069   2.64159   2.64731
 Alpha virt. eigenvalues --    2.65011   2.66892   2.67835   2.68374   2.68757
 Alpha virt. eigenvalues --    2.68973   2.69156   2.69743   2.70117   2.71071
 Alpha virt. eigenvalues --    2.71576   2.71913   2.72444   2.73864   2.74927
 Alpha virt. eigenvalues --    2.75180   2.75574   2.76400   2.78993   2.80133
 Alpha virt. eigenvalues --    2.80402   2.81946   2.83100   2.83655   2.84029
 Alpha virt. eigenvalues --    2.84538   2.84605   2.85603   2.86020   2.86642
 Alpha virt. eigenvalues --    2.87183   2.87465   2.87999   2.88210   2.89207
 Alpha virt. eigenvalues --    2.90426   2.91878   2.92339   2.92759   2.93948
 Alpha virt. eigenvalues --    2.94478   2.94844   2.96294   2.97024   2.99343
 Alpha virt. eigenvalues --    2.99703   3.00890   3.01278   3.04160   3.04734
 Alpha virt. eigenvalues --    3.05039   3.05920   3.07340   3.08325   3.08792
 Alpha virt. eigenvalues --    3.10432   3.10902   3.13013   3.13727   3.14244
 Alpha virt. eigenvalues --    3.15497   3.16883   3.17219   3.19835   3.20745
 Alpha virt. eigenvalues --    3.22013   3.24195   3.24350   3.24743   3.25211
 Alpha virt. eigenvalues --    3.26856   3.29436   3.30299   3.31234   3.32909
 Alpha virt. eigenvalues --    3.34079   3.34643   3.34830   3.35596   3.36496
 Alpha virt. eigenvalues --    3.37135   3.38699   3.39351   3.42171   3.42732
 Alpha virt. eigenvalues --    3.44512   3.44812   3.46384   3.46966   3.48744
 Alpha virt. eigenvalues --    3.49740   3.51125   3.54005   3.56595   3.57687
 Alpha virt. eigenvalues --    3.59743   3.60440   3.61794   3.65192   3.65504
 Alpha virt. eigenvalues --    3.66537   3.69395   3.71939   3.72202   3.72917
 Alpha virt. eigenvalues --    3.76990   3.77154   3.77452   3.82183   3.82733
 Alpha virt. eigenvalues --    3.85035   3.85244   3.86040   3.89926   3.92213
 Alpha virt. eigenvalues --    3.92859   3.93253   3.93847   3.96744   4.01055
 Alpha virt. eigenvalues --    4.03691   4.04614   4.08823   4.11331   4.11936
 Alpha virt. eigenvalues --    4.15196   4.19394   4.23386   4.24735   4.27372
 Alpha virt. eigenvalues --    4.34871   4.37757   4.39848   4.50376   4.67167
 Alpha virt. eigenvalues --    4.83932   4.86458   4.87275   4.89727   5.02530
 Alpha virt. eigenvalues --    5.03292   5.03817   5.04946   5.05245   5.07574
 Alpha virt. eigenvalues --    5.10971   5.12645   5.24563   5.26365   5.28560
 Alpha virt. eigenvalues --    5.32459   5.43054   5.44478   5.75631   5.77426
 Alpha virt. eigenvalues --    5.80283   5.81099   5.81687   5.86644   8.03466
 Alpha virt. eigenvalues --    8.08080  17.30047  17.35974  17.50928  17.53732
 Alpha virt. eigenvalues --   17.58655  17.63570  23.48897  23.57083  23.73089
 Alpha virt. eigenvalues --   23.78967  23.82506  23.82775  23.83931  23.86603
 Alpha virt. eigenvalues --   23.87123  23.88123  23.88779  23.90930  23.91811
 Alpha virt. eigenvalues --   23.93364  23.94541  23.95850  23.96354  23.99738
 Alpha virt. eigenvalues --   24.01471  24.05035  24.05373  24.05927  24.11833
 Alpha virt. eigenvalues --   24.13732  24.15983  24.16980  35.55515  35.58645
 Alpha virt. eigenvalues --   49.97033  49.98120  50.01849  50.03766  50.05735
 Alpha virt. eigenvalues --   50.07332 189.20741 189.26591
          Condensed to atoms (all electrons):
 Mulliken charges:
               1
     1  C    0.380658
     2  C    0.075760
     3  C    0.167303
     4  C    0.227187
     5  C    0.245638
     6  C   -0.729268
     7  C    0.197978
     8  C   -0.025972
     9  C    0.493264
    10  C   -0.257912
    11  C    0.261961
    12  C    0.229553
    13  C   -0.548792
    14  C   -0.640408
    15  H    0.162238
    16  H    0.163495
    17  H    0.164348
    18  N   -0.160715
    19  N   -0.146457
    20  O   -0.266577
    21  O   -0.269113
    22  O   -0.269003
    23  O   -0.111190
    24  C   -0.215614
    25  H    0.179688
    26  H    0.176004
    27  H    0.183967
    28  C   -0.200596
    29  H    0.175056
    30  H    0.176659
    31  H    0.183081
    32  C    0.415332
    33  C   -0.693103
    34  S   -0.133024
    35  C   -0.278786
    36  H    0.111487
    37  C    0.235021
    38  O   -0.123250
    39  C    0.942611
    40  C   -0.241070
    41  C    0.043031
    42  S   -0.263385
    43  H    0.164807
    44  H    0.143433
    45  H    0.151187
    46  C   -0.507301
    47  O   -0.150629
    48  C   -0.316500
    49  H    0.128154
    50  C   -0.234431
    51  H    0.156510
    52  H    0.142684
    53  H    0.162007
    54  H    0.142990
 Sum of Mulliken charges =  -0.00000
 Mulliken charges with hydrogens summed into heavy atoms:
               1
     1  C    0.380658
     2  C    0.075760
     3  C    0.167303
     4  C    0.227187
     5  C    0.245638
     6  C   -0.564920
     7  C    0.197978
     8  C   -0.025972
     9  C    0.493264
    10  C   -0.257912
    11  C    0.261961
    12  C    0.229553
    13  C   -0.385298
    14  C   -0.478170
    18  N   -0.160715
    19  N   -0.146457
    20  O   -0.266577
    21  O   -0.269113
    22  O   -0.269003
    23  O   -0.111190
    24  C    0.324045
    28  C    0.334200
    32  C    0.415332
    33  C   -0.581615
    34  S   -0.133024
    35  C   -0.278786
    37  C    0.235021
    38  O   -0.123250
    39  C    0.942611
    40  C    0.218358
    41  C    0.043031
    42  S   -0.263385
    46  C   -0.379146
    47  O   -0.150629
    48  C   -0.159990
    50  C    0.213251
 Electronic spatial extent (au):  <R**2>=          22213.1177
 Charge=             -0.0000 electrons
 Dipole moment (field-independent basis, Debye):
    X=             -1.1639    Y=              0.1055    Z=              0.0700  Tot=              1.1708
 Quadrupole moment (field-independent basis, Debye-Ang):
   XX=           -221.3399   YY=           -234.3990   ZZ=           -196.2934
   XY=             -3.7793   XZ=             10.2000   YZ=             -0.9002
 Traceless Quadrupole moment (field-independent basis, Debye-Ang):
   XX=             -3.9958   YY=            -17.0549   ZZ=             21.0507
   XY=             -3.7793   XZ=             10.2000   YZ=             -0.9002
 Octapole moment (field-independent basis, Debye-Ang**2):
  XXX=           -254.8192  YYY=             -5.1351  ZZZ=              4.9504  XYY=            -12.9605
  XXY=            -25.8270  XXZ=            -48.8437  XZZ=            -92.1073  YZZ=             -8.4454
  YYZ=              3.2128  XYZ=              5.7047
 Hexadecapole moment (field-independent basis, Debye-Ang**3):
 XXXX=         -21512.7176 YYYY=          -6012.2031 ZZZZ=          -2219.3439 XXXY=            173.1240
 XXXZ=            502.5546 YYYX=           -519.8864 YYYZ=             74.6545 ZZZX=             62.9980
 ZZZY=            -27.8874 XXYY=          -4757.6470 XXZZ=          -3664.3930 YYZZ=          -1388.9875
 XXYZ=            -49.4503 YYXZ=             -4.0898 ZZXY=             -1.4237
 N-N= 4.091173414398D+03 E-N=-1.372249293004D+04  KE= 2.352045816484D+03
 Unable to Open any file for archive entry.
 1\1\GINC-CX3-5-16\FOpt\RB3LYP\6-311+G(d,p)\C26H18N2O6S2\NS5018\29-Nov-
 2020\0\\# opt=modredundant b3lyp/6-311+g(d,p)\\NDI_-100.pdb\\0,1\C,-2.
 6102582037,-3.0391931094,-0.4764219545\C,-2.2699161609,-1.6068126021,-
 0.2654294424\C,-3.2901171876,-0.659151437,-0.0338271527\C,-4.647044274
 3,-1.0539620455,-0.0020651019\C,-5.0218332457,-2.4795530348,-0.2104957
 452\C,-0.9538510189,-1.2029074715,-0.304915739\C,-2.9382732629,0.70534
 13102,0.1540552849\C,-1.5725713108,1.1037830905,0.1213443526\C,-0.5749
 204689,0.1480821986,-0.1025011539\C,-1.2490636602,2.5559238557,0.26966
 00849\C,-3.6724646013,3.0868811566,0.5455381104\C,-3.9777581478,1.6441
 18692,0.3658174983\C,-5.2994977391,1.2348950629,0.3978435207\C,-5.6378
 013121,-0.1143204506,0.2153897841\H,-6.6709217054,-0.4373638622,0.2360
 012377\H,-6.0657997768,1.9817624531,0.5626864792\H,-0.183715854,-1.943
 383277,-0.4799853123\N,-2.3239299094,3.4423751032,0.4695620278\N,-3.96
 90949597,-3.3787322327,-0.4433080818\O,-1.7661232086,-3.8945309691,-0.
 6630486313\O,-6.1792502258,-2.8523109502,-0.1840275699\O,-4.5442289524
 ,3.914093584,0.7403862292\O,-0.1204716577,2.999745543,0.2306326808\C,-
 1.9636394938,4.8601946158,0.6217781968\H,-1.3013752255,4.982253803,1.4
 789997248\H,-1.4385532161,5.203864477,-0.269399428\H,-2.8807021174,5.4
 224269631,0.7655769531\C,-4.2896985429,-4.7984444569,-0.6529237733\H,-
 3.8991007573,-5.1233915881,-1.6171780301\H,-3.8248625095,-5.4007441671
 ,0.1280938229\H,-5.3693016014,-4.9051072992,-0.6224094602\C,0.87880689
 83,0.4319058953,-0.1387358588\C,1.6676411284,0.5905546504,-1.244800974
 5\S,1.8084259911,0.4971199529,1.3287397311\C,3.0354232474,0.7963106777
 ,-0.9132895839\H,1.2768642965,0.5843720632,-2.2521763794\C,3.303843343
 3,0.7735417816,0.4456621913\O,4.0556801783,0.987816053,-1.7961573896\C
 ,4.5784423318,0.9253253565,1.1038387595\C,3.7303933183,1.1269126141,-3
 .1739122124\C,4.8435024183,0.8906799962,2.4647265466\S,6.077429503,1.2
 025237941,0.2270699986\H,4.6723683726,1.3154271724,-3.6862938006\H,3.2
 810555894,0.2100338228,-3.5703744526\H,3.0517251735,1.9707949922,-3.33
 62327553\C,6.2135262857,1.0833688198,2.7993665781\O,3.818838617,0.6881
 001038,3.3410868188\C,6.9912444788,1.2634672579,1.6901928229\H,6.60348
 74979,1.0883854213,3.8068168336\C,4.1286499074,0.6231834977,4.72759106
 5\H,8.0566703799,1.4295308845,1.6495802658\H,4.5605719239,1.5651892339
 ,5.0818047304\H,3.1833433759,0.4458350394,5.2378902014\H,4.817206051,-
 0.2012120361,4.9411774527\\Version=ES64L-G16RevC.01\State=1-A\HF=-2359
 .3343553\RMSD=3.749e-09\RMSF=3.112e-04\Dipole=0.4368429,0.1413513,0.03
 69065\Quadrupole=-5.8763925,-11.0436917,16.9200842,3.4766728,5.954953,
 -2.046019\PG=C01 [X(C26H18N2O6S2)]\\@
 The archive entry for this job was punched.


 Standing in the middle of the road is very dangerous;
 you get knocked down by the traffic from both sides.
                                -- Margaret Thatcher
 Job cpu time:       1 days 16 hours  2 minutes 15.1 seconds.
 Elapsed time:       0 days  5 hours  2 minutes 54.5 seconds.
 File lengths (MBytes):  RWF=    496 Int=      0 D2E=      0 Chk=     61 Scr=      1
 Normal termination of Gaussian 16 at Sun Nov 29 14:02:13 2020.
