 Entering Gaussian System, Link 0=g16
 Input=NDI_125.gjf
 Output=NDI_125.log
 Initial command:
 /apps/gaussian/g16-c01-avx/g16/l1.exe "/tmp/pbs.2625174[61].pbs/Gau-3008016.inp" -scrdir="/tmp/pbs.2625174[61].pbs/"
 Entering Link 1 = /apps/gaussian/g16-c01-avx/g16/l1.exe PID=   3008017.
  
 Copyright (c) 1988-2019, Gaussian, Inc.  All Rights Reserved.
  
 This is part of the Gaussian(R) 16 program.  It is based on
 the Gaussian(R) 09 system (copyright 2009, Gaussian, Inc.),
 the Gaussian(R) 03 system (copyright 2003, Gaussian, Inc.),
 the Gaussian(R) 98 system (copyright 1998, Gaussian, Inc.),
 the Gaussian(R) 94 system (copyright 1995, Gaussian, Inc.),
 the Gaussian 92(TM) system (copyright 1992, Gaussian, Inc.),
 the Gaussian 90(TM) system (copyright 1990, Gaussian, Inc.),
 the Gaussian 88(TM) system (copyright 1988, Gaussian, Inc.),
 the Gaussian 86(TM) system (copyright 1986, Carnegie Mellon
 University), and the Gaussian 82(TM) system (copyright 1983,
 Carnegie Mellon University). Gaussian is a federally registered
 trademark of Gaussian, Inc.
  
 This software contains proprietary and confidential information,
 including trade secrets, belonging to Gaussian, Inc.
  
 This software is provided under written license and may be
 used, copied, transmitted, or stored only in accord with that
 written license.
  
 The following legend is applicable only to US Government
 contracts under FAR:
  
                    RESTRICTED RIGHTS LEGEND
  
 Use, reproduction and disclosure by the US Government is
 subject to restrictions as set forth in subparagraphs (a)
 and (c) of the Commercial Computer Software - Restricted
 Rights clause in FAR 52.227-19.
  
 Gaussian, Inc.
 340 Quinnipiac St., Bldg. 40, Wallingford CT 06492
  
  
 ---------------------------------------------------------------
 Warning -- This program may not be used in any manner that
 competes with the business of Gaussian, Inc. or will provide
 assistance to any competitor of Gaussian, Inc.  The licensee
 of this program is prohibited from giving any competitor of
 Gaussian, Inc. access to this program.  By using this program,
 the user acknowledges that Gaussian, Inc. is engaged in the
 business of creating and licensing software in the field of
 computational chemistry and represents and warrants to the
 licensee that it is not a competitor of Gaussian, Inc. and that
 it will not use this program in any manner prohibited above.
 ---------------------------------------------------------------
  

 Cite this work as:
 Gaussian 16, Revision C.01,
 M. J. Frisch, G. W. Trucks, H. B. Schlegel, G. E. Scuseria, 
 M. A. Robb, J. R. Cheeseman, G. Scalmani, V. Barone, 
 G. A. Petersson, H. Nakatsuji, X. Li, M. Caricato, A. V. Marenich, 
 J. Bloino, B. G. Janesko, R. Gomperts, B. Mennucci, H. P. Hratchian, 
 J. V. Ortiz, A. F. Izmaylov, J. L. Sonnenberg, D. Williams-Young, 
 F. Ding, F. Lipparini, F. Egidi, J. Goings, B. Peng, A. Petrone, 
 T. Henderson, D. Ranasinghe, V. G. Zakrzewski, J. Gao, N. Rega, 
 G. Zheng, W. Liang, M. Hada, M. Ehara, K. Toyota, R. Fukuda, 
 J. Hasegawa, M. Ishida, T. Nakajima, Y. Honda, O. Kitao, H. Nakai, 
 T. Vreven, K. Throssell, J. A. Montgomery, Jr., J. E. Peralta, 
 F. Ogliaro, M. J. Bearpark, J. J. Heyd, E. N. Brothers, K. N. Kudin, 
 V. N. Staroverov, T. A. Keith, R. Kobayashi, J. Normand, 
 K. Raghavachari, A. P. Rendell, J. C. Burant, S. S. Iyengar, 
 J. Tomasi, M. Cossi, J. M. Millam, M. Klene, C. Adamo, R. Cammi, 
 J. W. Ochterski, R. L. Martin, K. Morokuma, O. Farkas, 
 J. B. Foresman, and D. J. Fox, Gaussian, Inc., Wallingford CT, 2019.
 
 ******************************************
 Gaussian 16:  ES64L-G16RevC.01  3-Jul-2019
                29-Nov-2020 
 ******************************************
 %mem=10GB
 %nprocshared=8
 Will use up to    8 processors via shared memory.
 -------------------------------------
 # opt=modredundant b3lyp/6-311+g(d,p)
 -------------------------------------
 1/18=120,19=15,26=3,38=1/1,3;
 2/9=110,12=2,17=6,18=5,40=1/2;
 3/5=4,6=6,7=111,11=2,25=1,30=1,71=1,74=-5/1,2,3;
 4//1;
 5/5=2,38=5/2;
 6/7=2,8=2,9=2,10=2,28=1/1;
 7//1,2,3,16;
 1/18=20,19=15,26=3/3(2);
 2/9=110/2;
 99//99;
 2/9=110/2;
 3/5=4,6=6,7=111,11=2,25=1,30=1,71=1,74=-5/1,2,3;
 4/5=5,16=3,69=1/1;
 5/5=2,38=5/2;
 7//1,2,3,16;
 1/18=20,19=15,26=3/3(-5);
 2/9=110/2;
 6/7=2,8=2,9=2,10=2,19=2,28=1/1;
 99/9=1/99;
 -----------
 NDI_125.pdb
 -----------
 Symbolic Z-matrix:
 Charge =  0 Multiplicity = 1
 C                    -2.563    -2.994    -0.409 
 C                    -2.257    -1.551    -0.224 
 C                    -3.301    -0.607    -0.083 
 C                    -4.65     -1.024    -0.115 
 C                    -4.992    -2.459    -0.304 
 C                    -0.949    -1.137    -0.215 
 C                    -2.962     0.764     0.102 
 C                    -1.595     1.188     0.123 
 C                    -0.561     0.232    -0.072 
 C                    -1.328     2.616     0.446 
 C                    -3.777     3.115     0.508 
 C                    -4.035     1.679     0.268 
 C                    -5.356     1.252     0.23 
 C                    -5.672    -0.098     0.036 
 H                    -6.699    -0.442     0.008 
 H                    -6.133     1.997     0.361 
 H                    -0.19     -1.895    -0.369 
 N                    -2.432     3.476     0.608 
 N                    -3.916    -3.353    -0.438 
 O                    -1.695    -3.847    -0.532 
 O                    -6.149    -2.85     -0.34 
 O                    -4.676     3.938     0.629 
 O                    -0.212     3.097     0.596 
 C                    -2.111     4.875     0.912 
 H                    -1.54      4.931     1.84 
 H                    -1.5       5.299     0.111 
 H                    -3.05      5.414     1.003 
 C                    -4.206    -4.779    -0.625 
 H                    -3.759    -5.126    -1.559 
 H                    -3.775    -5.355     0.196 
 H                    -5.286    -4.897    -0.649 
 C                     0.876     0.482    -0.178 
 C                     1.939    -0.039     0.534 
 S                     1.44      1.75     -1.267 
 C                     3.176     0.555     0.214 
 H                     1.826    -0.831     1.256 
 C                     3.103     1.552    -0.764 
 O                     4.385     0.249     0.756 
 C                     4.185     2.307    -1.33 
 C                     4.445    -0.866     1.642 
 C                     4.107     3.317    -2.287 
 S                     5.869     2.06     -0.877 
 H                     5.497    -0.99      1.896 
 H                     3.87     -0.677     2.556 
 H                     4.071    -1.777     1.158 
 C                     5.366     3.876    -2.648 
 O                     2.893     3.67     -2.783 
 C                     6.399     3.293    -1.964 
 H                     5.499     4.668    -3.372 
 C                     2.842     4.729    -3.733 
 H                     7.452     3.525    -2.041 
 H                     3.404     4.476    -4.641 
 H                     1.789     4.858    -3.984 
 H                     3.233     5.662    -3.311 
 
 The following ModRedundant input section has been read:
 D       8       9      32      33 F                                           
 D      33      35      38      40 F                                           
 D      46      41      47      50 F                                           
 D      10      18      24      25 F                                           
 D       1      19      28      30 F                                           
 D       9       8      10      23 F                                           
 D      20       1       2       6 F                                           
 

 GradGradGradGradGradGradGradGradGradGradGradGradGradGradGradGradGradGrad
 Berny optimization.
 Initialization pass.
                           ----------------------------
                           !    Initial Parameters    !
                           ! (Angstroms and Degrees)  !
 --------------------------                            --------------------------
 ! Name  Definition              Value          Derivative Info.                !
 --------------------------------------------------------------------------------
 ! R1    R(1,2)                  1.4866         estimate D2E/DX2                !
 ! R2    R(1,19)                 1.4001         estimate D2E/DX2                !
 ! R3    R(1,20)                 1.2232         estimate D2E/DX2                !
 ! R4    R(2,3)                  1.4146         estimate D2E/DX2                !
 ! R5    R(2,6)                  1.372          estimate D2E/DX2                !
 ! R6    R(3,4)                  1.4123         estimate D2E/DX2                !
 ! R7    R(3,7)                  1.4244         estimate D2E/DX2                !
 ! R8    R(4,5)                  1.4872         estimate D2E/DX2                !
 ! R9    R(4,14)                 1.3874         estimate D2E/DX2                !
 ! R10   R(5,19)                 1.4053         estimate D2E/DX2                !
 ! R11   R(5,21)                 1.2218         estimate D2E/DX2                !
 ! R12   R(6,9)                  1.4301         estimate D2E/DX2                !
 ! R13   R(6,17)                 1.0837         estimate D2E/DX2                !
 ! R14   R(7,8)                  1.4314         estimate D2E/DX2                !
 ! R15   R(7,12)                 1.4199         estimate D2E/DX2                !
 ! R16   R(8,9)                  1.4217         estimate D2E/DX2                !
 ! R17   R(8,10)                 1.4882         estimate D2E/DX2                !
 ! R18   R(9,32)                 1.4624         estimate D2E/DX2                !
 ! R19   R(10,18)                1.4088         estimate D2E/DX2                !
 ! R20   R(10,23)                1.2245         estimate D2E/DX2                !
 ! R21   R(11,12)                1.4786         estimate D2E/DX2                !
 ! R22   R(11,18)                1.3962         estimate D2E/DX2                !
 ! R23   R(11,22)                1.2248         estimate D2E/DX2                !
 ! R24   R(12,13)                1.3888         estimate D2E/DX2                !
 ! R25   R(13,14)                1.4            estimate D2E/DX2                !
 ! R26   R(13,16)                1.0844         estimate D2E/DX2                !
 ! R27   R(14,15)                1.0834         estimate D2E/DX2                !
 ! R28   R(18,24)                1.4672         estimate D2E/DX2                !
 ! R29   R(19,28)                1.4672         estimate D2E/DX2                !
 ! R30   R(24,25)                1.091          estimate D2E/DX2                !
 ! R31   R(24,26)                1.093          estimate D2E/DX2                !
 ! R32   R(24,27)                1.0865         estimate D2E/DX2                !
 ! R33   R(28,29)                1.0921         estimate D2E/DX2                !
 ! R34   R(28,30)                1.0916         estimate D2E/DX2                !
 ! R35   R(28,31)                1.0867         estimate D2E/DX2                !
 ! R36   R(32,33)                1.3814         estimate D2E/DX2                !
 ! R37   R(32,34)                1.764          estimate D2E/DX2                !
 ! R38   R(33,35)                1.409          estimate D2E/DX2                !
 ! R39   R(33,36)                1.0776         estimate D2E/DX2                !
 ! R40   R(34,37)                1.7487         estimate D2E/DX2                !
 ! R41   R(35,37)                1.3985         estimate D2E/DX2                !
 ! R42   R(35,38)                1.3598         estimate D2E/DX2                !
 ! R43   R(37,39)                1.4357         estimate D2E/DX2                !
 ! R44   R(38,40)                1.4254         estimate D2E/DX2                !
 ! R45   R(39,41)                1.3936         estimate D2E/DX2                !
 ! R46   R(39,42)                1.7613         estimate D2E/DX2                !
 ! R47   R(40,43)                1.0893         estimate D2E/DX2                !
 ! R48   R(40,44)                1.0962         estimate D2E/DX2                !
 ! R49   R(40,45)                1.0973         estimate D2E/DX2                !
 ! R50   R(41,46)                1.424          estimate D2E/DX2                !
 ! R51   R(41,47)                1.3581         estimate D2E/DX2                !
 ! R52   R(42,48)                1.7271         estimate D2E/DX2                !
 ! R53   R(46,48)                1.3692         estimate D2E/DX2                !
 ! R54   R(46,49)                1.0813         estimate D2E/DX2                !
 ! R55   R(47,50)                1.4236         estimate D2E/DX2                !
 ! R56   R(48,51)                1.081          estimate D2E/DX2                !
 ! R57   R(50,52)                1.0974         estimate D2E/DX2                !
 ! R58   R(50,53)                1.0902         estimate D2E/DX2                !
 ! R59   R(50,54)                1.0961         estimate D2E/DX2                !
 ! A1    A(2,1,19)             116.767          estimate D2E/DX2                !
 ! A2    A(2,1,20)             122.9113         estimate D2E/DX2                !
 ! A3    A(19,1,20)            120.3217         estimate D2E/DX2                !
 ! A4    A(1,2,3)              120.5473         estimate D2E/DX2                !
 ! A5    A(1,2,6)              119.3369         estimate D2E/DX2                !
 ! A6    A(3,2,6)              120.1056         estimate D2E/DX2                !
 ! A7    A(2,3,4)              120.3743         estimate D2E/DX2                !
 ! A8    A(2,3,7)              118.662          estimate D2E/DX2                !
 ! A9    A(4,3,7)              120.9617         estimate D2E/DX2                !
 ! A10   A(3,4,5)              120.4909         estimate D2E/DX2                !
 ! A11   A(3,4,14)             120.2702         estimate D2E/DX2                !
 ! A12   A(5,4,14)             119.2382         estimate D2E/DX2                !
 ! A13   A(4,5,19)             116.7341         estimate D2E/DX2                !
 ! A14   A(4,5,21)             122.024          estimate D2E/DX2                !
 ! A15   A(19,5,21)            121.2418         estimate D2E/DX2                !
 ! A16   A(2,6,9)              123.2421         estimate D2E/DX2                !
 ! A17   A(2,6,17)             117.1119         estimate D2E/DX2                !
 ! A18   A(9,6,17)             119.589          estimate D2E/DX2                !
 ! A19   A(3,7,8)              120.9519         estimate D2E/DX2                !
 ! A20   A(3,7,12)             117.1037         estimate D2E/DX2                !
 ! A21   A(8,7,12)             121.944          estimate D2E/DX2                !
 ! A22   A(7,8,9)              119.5639         estimate D2E/DX2                !
 ! A23   A(7,8,10)             117.3064         estimate D2E/DX2                !
 ! A24   A(9,8,10)             122.9922         estimate D2E/DX2                !
 ! A25   A(6,9,8)              117.3944         estimate D2E/DX2                !
 ! A26   A(6,9,32)             115.0236         estimate D2E/DX2                !
 ! A27   A(8,9,32)             127.5648         estimate D2E/DX2                !
 ! A28   A(8,10,18)            118.042          estimate D2E/DX2                !
 ! A29   A(8,10,23)            124.5436         estimate D2E/DX2                !
 ! A30   A(18,10,23)           117.4097         estimate D2E/DX2                !
 ! A31   A(12,11,18)           115.5202         estimate D2E/DX2                !
 ! A32   A(12,11,22)           122.7205         estimate D2E/DX2                !
 ! A33   A(18,11,22)           121.7534         estimate D2E/DX2                !
 ! A34   A(7,12,11)            120.8614         estimate D2E/DX2                !
 ! A35   A(7,12,13)            121.162          estimate D2E/DX2                !
 ! A36   A(11,12,13)           117.9699         estimate D2E/DX2                !
 ! A37   A(12,13,14)           120.9948         estimate D2E/DX2                !
 ! A38   A(12,13,16)           117.8401         estimate D2E/DX2                !
 ! A39   A(14,13,16)           121.1642         estimate D2E/DX2                !
 ! A40   A(4,14,13)            119.5003         estimate D2E/DX2                !
 ! A41   A(4,14,15)            118.9169         estimate D2E/DX2                !
 ! A42   A(13,14,15)           121.5811         estimate D2E/DX2                !
 ! A43   A(10,18,11)           126.0753         estimate D2E/DX2                !
 ! A44   A(10,18,24)           115.7508         estimate D2E/DX2                !
 ! A45   A(11,18,24)           118.1737         estimate D2E/DX2                !
 ! A46   A(1,19,5)             125.0856         estimate D2E/DX2                !
 ! A47   A(1,19,28)            116.2868         estimate D2E/DX2                !
 ! A48   A(5,19,28)            118.6276         estimate D2E/DX2                !
 ! A49   A(18,24,25)           109.8574         estimate D2E/DX2                !
 ! A50   A(18,24,26)           109.8979         estimate D2E/DX2                !
 ! A51   A(18,24,27)           107.5355         estimate D2E/DX2                !
 ! A52   A(25,24,26)           108.1108         estimate D2E/DX2                !
 ! A53   A(25,24,27)           110.8301         estimate D2E/DX2                !
 ! A54   A(26,24,27)           110.6124         estimate D2E/DX2                !
 ! A55   A(19,28,29)           109.6906         estimate D2E/DX2                !
 ! A56   A(19,28,30)           109.8136         estimate D2E/DX2                !
 ! A57   A(19,28,31)           107.7461         estimate D2E/DX2                !
 ! A58   A(29,28,30)           108.2991         estimate D2E/DX2                !
 ! A59   A(29,28,31)           110.6959         estimate D2E/DX2                !
 ! A60   A(30,28,31)           110.5924         estimate D2E/DX2                !
 ! A61   A(9,32,33)            130.8651         estimate D2E/DX2                !
 ! A62   A(9,32,34)            118.802          estimate D2E/DX2                !
 ! A63   A(33,32,34)           110.0749         estimate D2E/DX2                !
 ! A64   A(32,33,35)           113.5466         estimate D2E/DX2                !
 ! A65   A(32,33,36)           122.8064         estimate D2E/DX2                !
 ! A66   A(35,33,36)           123.6441         estimate D2E/DX2                !
 ! A67   A(32,34,37)            92.5846         estimate D2E/DX2                !
 ! A68   A(33,35,37)           114.4265         estimate D2E/DX2                !
 ! A69   A(33,35,38)           126.5234         estimate D2E/DX2                !
 ! A70   A(37,35,38)           119.05           estimate D2E/DX2                !
 ! A71   A(34,37,35)           109.3612         estimate D2E/DX2                !
 ! A72   A(34,37,39)           122.9424         estimate D2E/DX2                !
 ! A73   A(35,37,39)           127.6816         estimate D2E/DX2                !
 ! A74   A(35,38,40)           117.4645         estimate D2E/DX2                !
 ! A75   A(37,39,41)           127.5678         estimate D2E/DX2                !
 ! A76   A(37,39,42)           123.0552         estimate D2E/DX2                !
 ! A77   A(41,39,42)           109.377          estimate D2E/DX2                !
 ! A78   A(38,40,43)           105.9399         estimate D2E/DX2                !
 ! A79   A(38,40,44)           111.1801         estimate D2E/DX2                !
 ! A80   A(38,40,45)           111.1561         estimate D2E/DX2                !
 ! A81   A(43,40,44)           109.3762         estimate D2E/DX2                !
 ! A82   A(43,40,45)           109.7251         estimate D2E/DX2                !
 ! A83   A(44,40,45)           109.3974         estimate D2E/DX2                !
 ! A84   A(39,41,46)           114.1486         estimate D2E/DX2                !
 ! A85   A(39,41,47)           119.2892         estimate D2E/DX2                !
 ! A86   A(46,41,47)           126.5615         estimate D2E/DX2                !
 ! A87   A(39,42,48)            91.8002         estimate D2E/DX2                !
 ! A88   A(41,46,48)           111.9143         estimate D2E/DX2                !
 ! A89   A(41,46,49)           124.4734         estimate D2E/DX2                !
 ! A90   A(48,46,49)           123.612          estimate D2E/DX2                !
 ! A91   A(41,47,50)           117.976          estimate D2E/DX2                !
 ! A92   A(42,48,46)           112.7598         estimate D2E/DX2                !
 ! A93   A(42,48,51)           119.8005         estimate D2E/DX2                !
 ! A94   A(46,48,51)           127.4397         estimate D2E/DX2                !
 ! A95   A(47,50,52)           111.2417         estimate D2E/DX2                !
 ! A96   A(47,50,53)           106.0382         estimate D2E/DX2                !
 ! A97   A(47,50,54)           111.3153         estimate D2E/DX2                !
 ! A98   A(52,50,53)           109.3559         estimate D2E/DX2                !
 ! A99   A(52,50,54)           109.3965         estimate D2E/DX2                !
 ! A100  A(53,50,54)           109.4192         estimate D2E/DX2                !
 ! D1    D(19,1,2,3)             0.1578         estimate D2E/DX2                !
 ! D2    D(19,1,2,6)          -178.6792         estimate D2E/DX2                !
 ! D3    D(20,1,2,3)          -179.8231         estimate D2E/DX2                !
 ! D4    D(20,1,2,6)             1.3399         Frozen                          !
 ! D5    D(2,1,19,5)            -0.124          estimate D2E/DX2                !
 ! D6    D(2,1,19,28)          179.8267         estimate D2E/DX2                !
 ! D7    D(20,1,19,5)          179.8575         estimate D2E/DX2                !
 ! D8    D(20,1,19,28)          -0.1919         estimate D2E/DX2                !
 ! D9    D(1,2,3,4)              0.0571         estimate D2E/DX2                !
 ! D10   D(1,2,3,7)            179.5453         estimate D2E/DX2                !
 ! D11   D(6,2,3,4)            178.8851         estimate D2E/DX2                !
 ! D12   D(6,2,3,7)             -1.6266         estimate D2E/DX2                !
 ! D13   D(1,2,6,9)            178.625          estimate D2E/DX2                !
 ! D14   D(1,2,6,17)             1.3881         estimate D2E/DX2                !
 ! D15   D(3,2,6,9)             -0.2173         estimate D2E/DX2                !
 ! D16   D(3,2,6,17)          -177.4541         estimate D2E/DX2                !
 ! D17   D(2,3,4,5)             -0.3074         estimate D2E/DX2                !
 ! D18   D(2,3,4,14)           179.3968         estimate D2E/DX2                !
 ! D19   D(7,3,4,5)           -179.7837         estimate D2E/DX2                !
 ! D20   D(7,3,4,14)            -0.0795         estimate D2E/DX2                !
 ! D21   D(2,3,7,8)              1.0523         estimate D2E/DX2                !
 ! D22   D(2,3,7,12)          -178.712          estimate D2E/DX2                !
 ! D23   D(4,3,7,8)           -179.4626         estimate D2E/DX2                !
 ! D24   D(4,3,7,12)             0.7731         estimate D2E/DX2                !
 ! D25   D(3,4,5,19)             0.3343         estimate D2E/DX2                !
 ! D26   D(3,4,5,21)          -179.7799         estimate D2E/DX2                !
 ! D27   D(14,4,5,19)         -179.3729         estimate D2E/DX2                !
 ! D28   D(14,4,5,21)            0.5129         estimate D2E/DX2                !
 ! D29   D(3,4,14,13)           -0.4559         estimate D2E/DX2                !
 ! D30   D(3,4,14,15)         -179.9937         estimate D2E/DX2                !
 ! D31   D(5,4,14,13)          179.252          estimate D2E/DX2                !
 ! D32   D(5,4,14,15)           -0.2858         estimate D2E/DX2                !
 ! D33   D(4,5,19,1)            -0.1141         estimate D2E/DX2                !
 ! D34   D(4,5,19,28)          179.9364         estimate D2E/DX2                !
 ! D35   D(21,5,19,1)          179.9992         estimate D2E/DX2                !
 ! D36   D(21,5,19,28)           0.0496         estimate D2E/DX2                !
 ! D37   D(2,6,9,8)              2.5984         estimate D2E/DX2                !
 ! D38   D(2,6,9,32)          -176.0103         estimate D2E/DX2                !
 ! D39   D(17,6,9,8)           179.77           estimate D2E/DX2                !
 ! D40   D(17,6,9,32)            1.1613         estimate D2E/DX2                !
 ! D41   D(3,7,8,9)              1.3551         estimate D2E/DX2                !
 ! D42   D(3,7,8,10)          -174.5099         estimate D2E/DX2                !
 ! D43   D(12,7,8,9)          -178.8921         estimate D2E/DX2                !
 ! D44   D(12,7,8,10)            5.2428         estimate D2E/DX2                !
 ! D45   D(3,7,12,11)          178.0768         estimate D2E/DX2                !
 ! D46   D(3,7,12,13)           -0.9621         estimate D2E/DX2                !
 ! D47   D(8,7,12,11)           -1.685          estimate D2E/DX2                !
 ! D48   D(8,7,12,13)          179.2761         estimate D2E/DX2                !
 ! D49   D(7,8,9,6)             -3.0809         estimate D2E/DX2                !
 ! D50   D(7,8,9,32)           175.3285         estimate D2E/DX2                !
 ! D51   D(10,8,9,6)           172.5381         estimate D2E/DX2                !
 ! D52   D(10,8,9,32)           -9.0525         estimate D2E/DX2                !
 ! D53   D(7,8,10,18)           -4.7549         estimate D2E/DX2                !
 ! D54   D(7,8,10,23)          174.4235         estimate D2E/DX2                !
 ! D55   D(9,8,10,18)          179.5335         estimate D2E/DX2                !
 ! D56   D(9,8,10,23)           -1.2882         Frozen                          !
 ! D57   D(6,9,32,33)          -56.5745         estimate D2E/DX2                !
 ! D58   D(6,9,32,34)          129.899          estimate D2E/DX2                !
 ! D59   D(8,9,32,33)          124.984          Frozen                          !
 ! D60   D(8,9,32,34)          -48.5426         estimate D2E/DX2                !
 ! D61   D(8,10,18,11)           0.7189         estimate D2E/DX2                !
 ! D62   D(8,10,18,24)        -179.4089         estimate D2E/DX2                !
 ! D63   D(23,10,18,11)       -178.5188         estimate D2E/DX2                !
 ! D64   D(23,10,18,24)          1.3535         estimate D2E/DX2                !
 ! D65   D(18,11,12,7)          -2.3856         estimate D2E/DX2                !
 ! D66   D(18,11,12,13)        176.6833         estimate D2E/DX2                !
 ! D67   D(22,11,12,7)         178.4862         estimate D2E/DX2                !
 ! D68   D(22,11,12,13)         -2.445          estimate D2E/DX2                !
 ! D69   D(12,11,18,10)          2.8444         estimate D2E/DX2                !
 ! D70   D(12,11,18,24)       -177.0251         estimate D2E/DX2                !
 ! D71   D(22,11,18,10)       -178.0181         estimate D2E/DX2                !
 ! D72   D(22,11,18,24)          2.1124         estimate D2E/DX2                !
 ! D73   D(7,12,13,14)           0.461          estimate D2E/DX2                !
 ! D74   D(7,12,13,16)        -179.8781         estimate D2E/DX2                !
 ! D75   D(11,12,13,14)       -178.6049         estimate D2E/DX2                !
 ! D76   D(11,12,13,16)          1.056          estimate D2E/DX2                !
 ! D77   D(12,13,14,4)           0.2708         estimate D2E/DX2                !
 ! D78   D(12,13,14,15)        179.7958         estimate D2E/DX2                !
 ! D79   D(16,13,14,4)        -179.3788         estimate D2E/DX2                !
 ! D80   D(16,13,14,15)          0.1463         estimate D2E/DX2                !
 ! D81   D(10,18,24,25)        -59.609          Frozen                          !
 ! D82   D(10,18,24,26)         59.2209         estimate D2E/DX2                !
 ! D83   D(10,18,24,27)        179.6858         estimate D2E/DX2                !
 ! D84   D(11,18,24,25)        120.2739         estimate D2E/DX2                !
 ! D85   D(11,18,24,26)       -120.8962         estimate D2E/DX2                !
 ! D86   D(11,18,24,27)         -0.4313         estimate D2E/DX2                !
 ! D87   D(1,19,28,29)         -58.1407         estimate D2E/DX2                !
 ! D88   D(1,19,28,30)          60.7668         Frozen                          !
 ! D89   D(1,19,28,31)        -178.7139         estimate D2E/DX2                !
 ! D90   D(5,19,28,29)         121.8132         estimate D2E/DX2                !
 ! D91   D(5,19,28,30)        -119.2792         estimate D2E/DX2                !
 ! D92   D(5,19,28,31)           1.2401         estimate D2E/DX2                !
 ! D93   D(9,32,33,35)        -174.2364         estimate D2E/DX2                !
 ! D94   D(9,32,33,36)           6.3594         estimate D2E/DX2                !
 ! D95   D(34,32,33,35)         -0.2742         estimate D2E/DX2                !
 ! D96   D(34,32,33,36)       -179.6785         estimate D2E/DX2                !
 ! D97   D(9,32,34,37)         175.376          estimate D2E/DX2                !
 ! D98   D(33,32,34,37)          0.5843         estimate D2E/DX2                !
 ! D99   D(32,33,35,37)         -0.2997         estimate D2E/DX2                !
 ! D100  D(32,33,35,38)        179.7595         estimate D2E/DX2                !
 ! D101  D(36,33,35,37)        179.0988         estimate D2E/DX2                !
 ! D102  D(36,33,35,38)         -0.842          estimate D2E/DX2                !
 ! D103  D(32,34,37,35)         -0.7367         estimate D2E/DX2                !
 ! D104  D(32,34,37,39)        177.9621         estimate D2E/DX2                !
 ! D105  D(33,35,37,34)          0.7266         estimate D2E/DX2                !
 ! D106  D(33,35,37,39)       -177.8936         estimate D2E/DX2                !
 ! D107  D(38,35,37,34)       -179.3278         estimate D2E/DX2                !
 ! D108  D(38,35,37,39)          2.052          estimate D2E/DX2                !
 ! D109  D(33,35,38,40)          6.5079         Frozen                          !
 ! D110  D(37,35,38,40)       -173.4305         estimate D2E/DX2                !
 ! D111  D(34,37,39,41)          2.8236         estimate D2E/DX2                !
 ! D112  D(34,37,39,42)       -177.2005         estimate D2E/DX2                !
 ! D113  D(35,37,39,41)       -178.7276         estimate D2E/DX2                !
 ! D114  D(35,37,39,42)          1.2483         estimate D2E/DX2                !
 ! D115  D(35,38,40,43)        175.4917         estimate D2E/DX2                !
 ! D116  D(35,38,40,44)        -65.7773         estimate D2E/DX2                !
 ! D117  D(35,38,40,45)         56.3547         estimate D2E/DX2                !
 ! D118  D(37,39,41,46)       -179.9385         estimate D2E/DX2                !
 ! D119  D(37,39,41,47)         -0.2129         estimate D2E/DX2                !
 ! D120  D(42,39,41,46)          0.0829         estimate D2E/DX2                !
 ! D121  D(42,39,41,47)        179.8085         estimate D2E/DX2                !
 ! D122  D(37,39,42,48)        179.9979         estimate D2E/DX2                !
 ! D123  D(41,39,42,48)         -0.0224         estimate D2E/DX2                !
 ! D124  D(39,41,46,48)         -0.1187         estimate D2E/DX2                !
 ! D125  D(39,41,46,49)       -179.9398         estimate D2E/DX2                !
 ! D126  D(47,41,46,48)       -179.8208         estimate D2E/DX2                !
 ! D127  D(47,41,46,49)          0.3581         estimate D2E/DX2                !
 ! D128  D(39,41,47,50)        178.3703         estimate D2E/DX2                !
 ! D129  D(46,41,47,50)         -1.9413         Frozen                          !
 ! D130  D(39,42,48,46)         -0.0446         estimate D2E/DX2                !
 ! D131  D(39,42,48,51)        179.8999         estimate D2E/DX2                !
 ! D132  D(41,46,48,42)          0.0987         estimate D2E/DX2                !
 ! D133  D(41,46,48,51)       -179.8406         estimate D2E/DX2                !
 ! D134  D(49,46,48,42)        179.9216         estimate D2E/DX2                !
 ! D135  D(49,46,48,51)         -0.0177         estimate D2E/DX2                !
 ! D136  D(41,47,50,52)         62.0761         estimate D2E/DX2                !
 ! D137  D(41,47,50,53)       -179.125          estimate D2E/DX2                !
 ! D138  D(41,47,50,54)        -60.2101         estimate D2E/DX2                !
 --------------------------------------------------------------------------------
 Trust Radius=3.00D-01 FncErr=1.00D-07 GrdErr=1.00D-06 EigMax=2.50D+02 EigMin=1.00D-04
 Number of steps in this run=    307 maximum allowed number of steps=    324.
 GradGradGradGradGradGradGradGradGradGradGradGradGradGradGradGradGradGrad

 Stoichiometry    C26H18N2O6S2
 Framework group  C1[X(C26H18N2O6S2)]
 Deg. of freedom   156
 Full point group                 C1      NOp   1
 Largest Abelian subgroup         C1      NOp   1
 Largest concise Abelian subgroup C1      NOp   1
                         Standard orientation:                         
 ---------------------------------------------------------------------
 Center     Atomic      Atomic             Coordinates (Angstroms)
 Number     Number       Type             X           Y           Z
 ---------------------------------------------------------------------
      1          6           0        3.676322   -2.628771    0.501526
      2          6           0        2.861401   -1.425018    0.190091
      3          6           0        3.465784   -0.148565    0.110449
      4          6           0        4.853924   -0.001037    0.324965
      5          6           0        5.698050   -1.183225    0.644015
      6          6           0        1.508797   -1.558867    0.003307
      7          6           0        2.648711    0.976019   -0.200179
      8          6           0        1.239988    0.827999   -0.406323
      9          6           0        0.642280   -0.454815   -0.271228
     10          6           0        0.484621    2.031410   -0.849071
     11          6           0        2.532909    3.452312   -0.659335
     12          6           0        3.294093    2.236872   -0.299385
     13          6           0        4.659786    2.364278   -0.081517
     14          6           0        5.446543    1.250079    0.234023
     15          1           0        6.513162    1.338047    0.402645
     16          1           0        5.096560    3.352929   -0.169347
     17          1           0        1.090462   -2.552076    0.116851
     18          7           0        1.179104    3.253943   -0.937195
     19          7           0        5.045990   -2.426390    0.709807
     20          8           0        3.199519   -3.752603    0.577838
     21          8           0        6.900440   -1.087238    0.838621
     22          8           0        3.049370    4.560781   -0.728153
     23          8           0       -0.700307    2.032725   -1.157713
     24          6           0        0.383238    4.409719   -1.365493
     25          1           0       -0.037227    4.223974   -2.354972
     26          1           0       -0.444064    4.570222   -0.669428
     27          1           0        1.042482    5.273234   -1.381709
     28          6           0        5.839455   -3.620778    1.020282
     29          1           0        5.443533   -4.102780    1.916660
     30          1           0        5.777942   -4.331032    0.193642
     31          1           0        6.867215   -3.304253    1.176556
     32          6           0       -0.779460   -0.788588   -0.348410
     33          6           0       -1.453138   -1.695302   -1.143634
     34         16           0       -1.929413    0.170262    0.584358
     35          6           0       -2.854142   -1.631249   -1.007658
     36          1           0       -0.947626   -2.388866   -1.795357
     37          6           0       -3.303259   -0.672577   -0.093839
     38          8           0       -3.766821   -2.395389   -1.665069
     39          6           0       -4.657747   -0.396195    0.293562
     40          6           0       -3.272147   -3.456172   -2.478615
     41          6           0       -5.104585    0.576107    1.186309
     42         16           0       -6.038306   -1.291656   -0.334356
     43          1           0       -4.150163   -3.987315   -2.844088
     44          1           0       -2.700769   -3.068820   -3.330219
     45          1           0       -2.641056   -4.140005   -1.897109
     46          6           0       -6.517465    0.599893    1.362628
     47          8           0       -4.199538    1.384792    1.795684
     48          6           0       -7.143396   -0.351640    0.602610
     49          1           0       -7.041484    1.285620    2.014020
     50          6           0       -4.689104    2.391429    2.675224
     51          1           0       -8.204070   -0.551362    0.542250
     52          1           0       -5.222991    1.950270    3.526494
     53          1           0       -3.811722    2.927521    3.037517
     54          1           0       -5.352400    3.089651    2.151794
 ---------------------------------------------------------------------
 Rotational constants (GHZ):           0.1680169           0.0561679           0.0462877
 Standard basis: 6-311+G(d,p) (5D, 7F)
 There are   952 symmetry adapted cartesian basis functions of A   symmetry.
 There are   916 symmetry adapted basis functions of A   symmetry.
   916 basis functions,  1468 primitive gaussians,   952 cartesian basis functions
   134 alpha electrons      134 beta electrons
       nuclear repulsion energy      4102.2700261340 Hartrees.
 NAtoms=   54 NActive=   54 NUniq=   54 SFac= 1.00D+00 NAtFMM=   60 NAOKFM=F Big=F
 Integral buffers will be    131072 words long.
 Raffenetti 2 integral format.
 Two-electron integral symmetry is turned on.
 One-electron integrals computed using PRISM.
 NBasis=   916 RedAO= T EigKep=  1.02D-06  NBF=   916
 NBsUse=   902 1.00D-06 EigRej=  7.05D-07 NBFU=   902
 ExpMin= 4.05D-02 ExpMax= 9.34D+04 ExpMxC= 3.17D+03 IAcc=3 IRadAn=         5 AccDes= 0.00D+00
 Harris functional with IExCor=  402 and IRadAn=       5 diagonalized for initial guess.
 HarFok:  IExCor=  402 AccDes= 0.00D+00 IRadAn=         5 IDoV= 1 UseB2=F ITyADJ=14
 ICtDFT=  3500011 ScaDFX=  1.000000  1.000000  1.000000  1.000000
 FoFCou: FMM=F IPFlag=           0 FMFlag=      100000 FMFlg1=           0
         NFxFlg=           0 DoJE=T BraDBF=F KetDBF=T FulRan=T
         wScrn=  0.000000 ICntrl=       500 IOpCl=  0 I1Cent=   200000004 NGrid=           0
         NMat0=    1 NMatS0=      1 NMatT0=    0 NMatD0=    1 NMtDS0=    0 NMtDT0=    0
 Petite list used in FoFCou.
 Requested convergence on RMS density matrix=1.00D-08 within 128 cycles.
 Requested convergence on MAX density matrix=1.00D-06.
 Requested convergence on             energy=1.00D-06.
 No special actions if energy rises.
 SCF Done:  E(RB3LYP) =  -2359.33083270     A.U. after   19 cycles
            NFock= 19  Conv=0.13D-08     -V/T= 2.0032

 **********************************************************************

            Population analysis using the SCF Density.

 **********************************************************************

 Orbital symmetries:
       Occupied  (A) (A) (A) (A) (A) (A) (A) (A) (A) (A) (A) (A)
                 (A) (A) (A) (A) (A) (A) (A) (A) (A) (A) (A) (A)
                 (A) (A) (A) (A) (A) (A) (A) (A) (A) (A) (A) (A)
                 (A) (A) (A) (A) (A) (A) (A) (A) (A) (A) (A) (A)
                 (A) (A) (A) (A) (A) (A) (A) (A) (A) (A) (A) (A)
                 (A) (A) (A) (A) (A) (A) (A) (A) (A) (A) (A) (A)
                 (A) (A) (A) (A) (A) (A) (A) (A) (A) (A) (A) (A)
                 (A) (A) (A) (A) (A) (A) (A) (A) (A) (A) (A) (A)
                 (A) (A) (A) (A) (A) (A) (A) (A) (A) (A) (A) (A)
                 (A) (A) (A) (A) (A) (A) (A) (A) (A) (A) (A) (A)
                 (A) (A) (A) (A) (A) (A) (A) (A) (A) (A) (A) (A)
                 (A) (A)
       Virtual   (A) (A) (A) (A) (A) (A) (A) (A) (A) (A) (A) (A)
                 (A) (A) (A) (A) (A) (A) (A) (A) (A) (A) (A) (A)
                 (A) (A) (A) (A) (A) (A) (A) (A) (A) (A) (A) (A)
                 (A) (A) (A) (A) (A) (A) (A) (A) (A) (A) (A) (A)
                 (A) (A) (A) (A) (A) (A) (A) (A) (A) (A) (A) (A)
                 (A) (A) (A) (A) (A) (A) (A) (A) (A) (A) (A) (A)
                 (A) (A) (A) (A) (A) (A) (A) (A) (A) (A) (A) (A)
                 (A) (A) (A) (A) (A) (A) (A) (A) (A) (A) (A) (A)
                 (A) (A) (A) (A) (A) (A) (A) (A) (A) (A) (A) (A)
                 (A) (A) (A) (A) (A) (A) (A) (A) (A) (A) (A) (A)
                 (A) (A) (A) (A) (A) (A) (A) (A) (A) (A) (A) (A)
                 (A) (A) (A) (A) (A) (A) (A) (A) (A) (A) (A) (A)
                 (A) (A) (A) (A) (A) (A) (A) (A) (A) (A) (A) (A)
                 (A) (A) (A) (A) (A) (A) (A) (A) (A) (A) (A) (A)
                 (A) (A) (A) (A) (A) (A) (A) (A) (A) (A) (A) (A)
                 (A) (A) (A) (A) (A) (A) (A) (A) (A) (A) (A) (A)
                 (A) (A) (A) (A) (A) (A) (A) (A) (A) (A) (A) (A)
                 (A) (A) (A) (A) (A) (A) (A) (A) (A) (A) (A) (A)
                 (A) (A) (A) (A) (A) (A) (A) (A) (A) (A) (A) (A)
                 (A) (A) (A) (A) (A) (A) (A) (A) (A) (A) (A) (A)
                 (A) (A) (A) (A) (A) (A) (A) (A) (A) (A) (A) (A)
                 (A) (A) (A) (A) (A) (A) (A) (A) (A) (A) (A) (A)
                 (A) (A) (A) (A) (A) (A) (A) (A) (A) (A) (A) (A)
                 (A) (A) (A) (A) (A) (A) (A) (A) (A) (A) (A) (A)
                 (A) (A) (A) (A) (A) (A) (A) (A) (A) (A) (A) (A)
                 (A) (A) (A) (A) (A) (A) (A) (A) (A) (A) (A) (A)
                 (A) (A) (A) (A) (A) (A) (A) (A) (A) (A) (A) (A)
                 (A) (A) (A) (A) (A) (A) (A) (A) (A) (A) (A) (A)
                 (A) (A) (A) (A) (A) (A) (A) (A) (A) (A) (A) (A)
                 (A) (A) (A) (A) (A) (A) (A) (A) (A) (A) (A) (A)
                 (A) (A) (A) (A) (A) (A) (A) (A) (A) (A) (A) (A)
                 (A) (A) (A) (A) (A) (A) (A) (A) (A) (A) (A) (A)
                 (A) (A) (A) (A) (A) (A) (A) (A) (A) (A) (A) (A)
                 (A) (A) (A) (A) (A) (A) (A) (A) (A) (A) (A) (A)
                 (A) (A) (A) (A) (A) (A) (A) (A) (A) (A) (A) (A)
                 (A) (A) (A) (A) (A) (A) (A) (A) (A) (A) (A) (A)
                 (A) (A) (A) (A) (A) (A) (A) (A) (A) (A) (A) (A)
                 (A) (A) (A) (A) (A) (A) (A) (A) (A) (A) (A) (A)
                 (A) (A) (A) (A) (A) (A) (A) (A) (A) (A) (A) (A)
                 (A) (A) (A) (A) (A) (A) (A) (A) (A) (A) (A) (A)
                 (A) (A) (A) (A) (A) (A) (A) (A) (A) (A) (A) (A)
                 (A) (A) (A) (A) (A) (A) (A) (A) (A) (A) (A) (A)
                 (A) (A) (A) (A) (A) (A) (A) (A) (A) (A) (A) (A)
                 (A) (A) (A) (A) (A) (A) (A) (A) (A) (A) (A) (A)
                 (A) (A) (A) (A) (A) (A) (A) (A) (A) (A) (A) (A)
                 (A) (A) (A) (A) (A) (A) (A) (A) (A) (A) (A) (A)
                 (A) (A) (A) (A) (A) (A) (A) (A) (A) (A) (A) (A)
                 (A) (A) (A) (A) (A) (A) (A) (A) (A) (A) (A) (A)
                 (A) (A) (A) (A) (A) (A) (A) (A) (A) (A) (A) (A)
                 (A) (A) (A) (A) (A) (A) (A) (A) (A) (A) (A) (A)
                 (A) (A) (A) (A) (A) (A) (A) (A) (A) (A) (A) (A)
                 (A) (A) (A) (A) (A) (A) (A) (A) (A) (A) (A) (A)
                 (A) (A) (A) (A) (A) (A) (A) (A) (A) (A) (A) (A)
                 (A) (A) (A) (A) (A) (A) (A) (A) (A) (A) (A) (A)
                 (A) (A) (A) (A) (A) (A) (A) (A) (A) (A) (A) (A)
                 (A) (A) (A) (A) (A) (A) (A) (A) (A) (A) (A) (A)
                 (A) (A) (A) (A) (A) (A) (A) (A) (A) (A) (A) (A)
                 (A) (A) (A) (A) (A) (A) (A) (A) (A) (A) (A) (A)
                 (A) (A) (A) (A) (A) (A) (A) (A) (A) (A) (A) (A)
                 (A) (A) (A) (A) (A) (A) (A) (A) (A) (A) (A) (A)
                 (A) (A) (A) (A) (A) (A) (A) (A) (A) (A) (A) (A)
                 (A) (A) (A) (A) (A) (A) (A) (A) (A) (A) (A) (A)
                 (A) (A) (A) (A) (A) (A) (A) (A) (A) (A) (A) (A)
                 (A) (A) (A) (A) (A) (A) (A) (A) (A) (A) (A) (A)
 The electronic state is 1-A.
 Alpha  occ. eigenvalues --  -88.88292 -88.87739 -19.17103 -19.16874 -19.12455
 Alpha  occ. eigenvalues --  -19.12450 -19.11702 -19.11453 -14.38708 -14.38020
 Alpha  occ. eigenvalues --  -10.31122 -10.30979 -10.30469 -10.30323 -10.24733
 Alpha  occ. eigenvalues --  -10.24427 -10.23983 -10.23892 -10.23755 -10.23070
 Alpha  occ. eigenvalues --  -10.22950 -10.22671 -10.22340 -10.22307 -10.22098
 Alpha  occ. eigenvalues --  -10.22094 -10.22028 -10.21626 -10.21544 -10.21178
 Alpha  occ. eigenvalues --  -10.21121 -10.21051 -10.20958 -10.20473 -10.19293
 Alpha  occ. eigenvalues --  -10.18930  -7.96836  -7.96287  -5.93146  -5.92758
 Alpha  occ. eigenvalues --   -5.92609  -5.92404  -5.92211  -5.91830  -1.08664
 Alpha  occ. eigenvalues --   -1.08469  -1.08420  -1.07822  -1.06586  -1.05843
 Alpha  occ. eigenvalues --   -0.96249  -0.95466  -0.92329  -0.90046  -0.88550
 Alpha  occ. eigenvalues --   -0.86535  -0.84218  -0.80397  -0.78414  -0.77598
 Alpha  occ. eigenvalues --   -0.76302  -0.75215  -0.75062  -0.73137  -0.72407
 Alpha  occ. eigenvalues --   -0.71657  -0.70383  -0.68846  -0.67046  -0.65808
 Alpha  occ. eigenvalues --   -0.65398  -0.64775  -0.60886  -0.59904  -0.58598
 Alpha  occ. eigenvalues --   -0.57401  -0.56720  -0.56282  -0.55004  -0.54788
 Alpha  occ. eigenvalues --   -0.53708  -0.51617  -0.50158  -0.49823  -0.49741
 Alpha  occ. eigenvalues --   -0.49340  -0.48718  -0.48661  -0.48424  -0.48377
 Alpha  occ. eigenvalues --   -0.48070  -0.47089  -0.46534  -0.46215  -0.45839
 Alpha  occ. eigenvalues --   -0.45506  -0.44906  -0.44541  -0.44249  -0.43861
 Alpha  occ. eigenvalues --   -0.42748  -0.42304  -0.42237  -0.41897  -0.41712
 Alpha  occ. eigenvalues --   -0.41446  -0.41103  -0.41055  -0.40425  -0.39792
 Alpha  occ. eigenvalues --   -0.39307  -0.39055  -0.38418  -0.37705  -0.37454
 Alpha  occ. eigenvalues --   -0.36383  -0.35704  -0.34194  -0.33927  -0.33487
 Alpha  occ. eigenvalues --   -0.33316  -0.32002  -0.30891  -0.30046  -0.29751
 Alpha  occ. eigenvalues --   -0.29280  -0.28795  -0.28565  -0.27944  -0.27512
 Alpha  occ. eigenvalues --   -0.26122  -0.24801  -0.23776  -0.19255
 Alpha virt. eigenvalues --   -0.13203  -0.07279  -0.06433  -0.04771  -0.03994
 Alpha virt. eigenvalues --   -0.00865  -0.00482  -0.00381  -0.00053   0.00426
 Alpha virt. eigenvalues --    0.00772   0.01026   0.01270   0.01402   0.01881
 Alpha virt. eigenvalues --    0.01975   0.02259   0.02477   0.02709   0.03068
 Alpha virt. eigenvalues --    0.03538   0.03633   0.03842   0.04152   0.04578
 Alpha virt. eigenvalues --    0.04818   0.04884   0.05131   0.05523   0.05690
 Alpha virt. eigenvalues --    0.05952   0.06265   0.06327   0.06926   0.07048
 Alpha virt. eigenvalues --    0.07237   0.07295   0.07620   0.07888   0.08059
 Alpha virt. eigenvalues --    0.08464   0.08663   0.09029   0.09202   0.09379
 Alpha virt. eigenvalues --    0.09408   0.09672   0.09988   0.10226   0.10640
 Alpha virt. eigenvalues --    0.10929   0.11356   0.11463   0.11752   0.11877
 Alpha virt. eigenvalues --    0.12123   0.12766   0.12881   0.13002   0.13375
 Alpha virt. eigenvalues --    0.13529   0.13692   0.14042   0.14273   0.14422
 Alpha virt. eigenvalues --    0.14479   0.14697   0.14885   0.15060   0.15226
 Alpha virt. eigenvalues --    0.15468   0.15623   0.15832   0.16213   0.16342
 Alpha virt. eigenvalues --    0.16670   0.16890   0.17061   0.17198   0.17577
 Alpha virt. eigenvalues --    0.17748   0.18009   0.18302   0.18480   0.18766
 Alpha virt. eigenvalues --    0.18793   0.19064   0.19279   0.19393   0.19624
 Alpha virt. eigenvalues --    0.19787   0.20080   0.20136   0.20393   0.20564
 Alpha virt. eigenvalues --    0.20638   0.20695   0.20857   0.21037   0.21175
 Alpha virt. eigenvalues --    0.21463   0.21693   0.21916   0.22171   0.22370
 Alpha virt. eigenvalues --    0.22699   0.22765   0.22920   0.23112   0.23289
 Alpha virt. eigenvalues --    0.23446   0.23568   0.23798   0.23941   0.24282
 Alpha virt. eigenvalues --    0.24526   0.24797   0.24909   0.25166   0.25415
 Alpha virt. eigenvalues --    0.25622   0.25814   0.25899   0.26174   0.26286
 Alpha virt. eigenvalues --    0.26346   0.26736   0.26768   0.27201   0.27245
 Alpha virt. eigenvalues --    0.27434   0.27539   0.27804   0.28251   0.28407
 Alpha virt. eigenvalues --    0.28538   0.28645   0.28937   0.29154   0.29479
 Alpha virt. eigenvalues --    0.29734   0.29827   0.30064   0.30295   0.30698
 Alpha virt. eigenvalues --    0.30824   0.31111   0.31417   0.31504   0.31622
 Alpha virt. eigenvalues --    0.31901   0.32232   0.32576   0.32818   0.33105
 Alpha virt. eigenvalues --    0.33262   0.33592   0.33843   0.33950   0.34393
 Alpha virt. eigenvalues --    0.34744   0.34979   0.35047   0.35707   0.35810
 Alpha virt. eigenvalues --    0.36220   0.36438   0.36824   0.37234   0.37643
 Alpha virt. eigenvalues --    0.37973   0.38364   0.38756   0.39180   0.39253
 Alpha virt. eigenvalues --    0.39771   0.39859   0.40621   0.40883   0.41403
 Alpha virt. eigenvalues --    0.42163   0.42498   0.42832   0.43027   0.43275
 Alpha virt. eigenvalues --    0.43809   0.44336   0.44801   0.45082   0.45353
 Alpha virt. eigenvalues --    0.45464   0.45752   0.46219   0.46470   0.46860
 Alpha virt. eigenvalues --    0.47071   0.47320   0.47755   0.48781   0.49185
 Alpha virt. eigenvalues --    0.49208   0.49593   0.49750   0.50467   0.50592
 Alpha virt. eigenvalues --    0.50901   0.51868   0.52691   0.53247   0.53522
 Alpha virt. eigenvalues --    0.53862   0.54213   0.54662   0.55085   0.55503
 Alpha virt. eigenvalues --    0.55730   0.56104   0.56521   0.56865   0.57440
 Alpha virt. eigenvalues --    0.57564   0.57837   0.58503   0.58545   0.59119
 Alpha virt. eigenvalues --    0.59825   0.60252   0.60656   0.60839   0.61044
 Alpha virt. eigenvalues --    0.61526   0.62076   0.62189   0.62394   0.62788
 Alpha virt. eigenvalues --    0.63351   0.63616   0.64102   0.64282   0.64749
 Alpha virt. eigenvalues --    0.65054   0.65476   0.66025   0.66198   0.66261
 Alpha virt. eigenvalues --    0.66759   0.67070   0.67225   0.67647   0.68053
 Alpha virt. eigenvalues --    0.68687   0.68977   0.69592   0.69816   0.70176
 Alpha virt. eigenvalues --    0.70430   0.71049   0.71275   0.71571   0.72030
 Alpha virt. eigenvalues --    0.72274   0.72469   0.73025   0.73189   0.73430
 Alpha virt. eigenvalues --    0.73896   0.74203   0.74823   0.74888   0.75118
 Alpha virt. eigenvalues --    0.75730   0.75946   0.76336   0.76556   0.76948
 Alpha virt. eigenvalues --    0.77477   0.77881   0.78014   0.78379   0.79109
 Alpha virt. eigenvalues --    0.79214   0.79941   0.80206   0.80715   0.81059
 Alpha virt. eigenvalues --    0.82129   0.83141   0.83299   0.84038   0.84276
 Alpha virt. eigenvalues --    0.86068   0.86605   0.87002   0.87909   0.88388
 Alpha virt. eigenvalues --    0.88557   0.89115   0.89875   0.89925   0.90257
 Alpha virt. eigenvalues --    0.91133   0.91586   0.92352   0.92415   0.93037
 Alpha virt. eigenvalues --    0.93537   0.93749   0.94027   0.94356   0.95115
 Alpha virt. eigenvalues --    0.95648   0.95713   0.96168   0.97094   0.97559
 Alpha virt. eigenvalues --    0.98253   0.98418   0.98514   0.98884   0.99764
 Alpha virt. eigenvalues --    1.00231   1.00437   1.01125   1.01291   1.01836
 Alpha virt. eigenvalues --    1.02409   1.02653   1.03236   1.03857   1.04467
 Alpha virt. eigenvalues --    1.04948   1.05036   1.05407   1.05641   1.06055
 Alpha virt. eigenvalues --    1.06571   1.07121   1.07211   1.07596   1.08179
 Alpha virt. eigenvalues --    1.08719   1.08826   1.09699   1.09933   1.10198
 Alpha virt. eigenvalues --    1.10975   1.11585   1.12047   1.12384   1.13826
 Alpha virt. eigenvalues --    1.14244   1.15481   1.16031   1.16414   1.17610
 Alpha virt. eigenvalues --    1.17979   1.18405   1.19115   1.19956   1.20118
 Alpha virt. eigenvalues --    1.21703   1.21959   1.22578   1.24208   1.24517
 Alpha virt. eigenvalues --    1.25255   1.25718   1.26209   1.26761   1.27384
 Alpha virt. eigenvalues --    1.27835   1.28387   1.28432   1.30250   1.30494
 Alpha virt. eigenvalues --    1.31698   1.32388   1.32893   1.33847   1.34043
 Alpha virt. eigenvalues --    1.35232   1.35917   1.37128   1.37982   1.38479
 Alpha virt. eigenvalues --    1.39708   1.40213   1.40887   1.41268   1.42263
 Alpha virt. eigenvalues --    1.42403   1.42943   1.43265   1.43558   1.44125
 Alpha virt. eigenvalues --    1.44496   1.44738   1.45278   1.45434   1.45809
 Alpha virt. eigenvalues --    1.45842   1.46354   1.47268   1.47921   1.48443
 Alpha virt. eigenvalues --    1.48891   1.49886   1.51092   1.51465   1.51640
 Alpha virt. eigenvalues --    1.53032   1.53157   1.53670   1.54250   1.54496
 Alpha virt. eigenvalues --    1.54747   1.55044   1.55442   1.55799   1.56717
 Alpha virt. eigenvalues --    1.57254   1.57772   1.58960   1.59245   1.60679
 Alpha virt. eigenvalues --    1.61951   1.62480   1.62624   1.62918   1.63583
 Alpha virt. eigenvalues --    1.63906   1.64923   1.65801   1.66389   1.66555
 Alpha virt. eigenvalues --    1.66883   1.68001   1.68404   1.68946   1.69357
 Alpha virt. eigenvalues --    1.69787   1.69997   1.70487   1.71031   1.71150
 Alpha virt. eigenvalues --    1.71692   1.73419   1.73627   1.74615   1.75086
 Alpha virt. eigenvalues --    1.75749   1.75963   1.77219   1.77371   1.77708
 Alpha virt. eigenvalues --    1.78977   1.79145   1.79886   1.80303   1.81109
 Alpha virt. eigenvalues --    1.82002   1.83440   1.83774   1.85485   1.85635
 Alpha virt. eigenvalues --    1.86293   1.86351   1.86882   1.87064   1.87968
 Alpha virt. eigenvalues --    1.88888   1.89475   1.89970   1.90126   1.90962
 Alpha virt. eigenvalues --    1.91364   1.91789   1.92006   1.93650   1.94749
 Alpha virt. eigenvalues --    1.95165   1.95577   1.96215   1.96687   1.98541
 Alpha virt. eigenvalues --    1.98662   1.99214   2.00313   2.01168   2.01876
 Alpha virt. eigenvalues --    2.01887   2.02451   2.02980   2.03798   2.04353
 Alpha virt. eigenvalues --    2.04957   2.05729   2.06640   2.06852   2.07336
 Alpha virt. eigenvalues --    2.07523   2.08685   2.09438   2.10025   2.11032
 Alpha virt. eigenvalues --    2.11545   2.12013   2.12275   2.13593   2.14435
 Alpha virt. eigenvalues --    2.14925   2.15432   2.16541   2.16951   2.17513
 Alpha virt. eigenvalues --    2.19217   2.19721   2.20501   2.21084   2.21450
 Alpha virt. eigenvalues --    2.21901   2.23044   2.26099   2.26364   2.27043
 Alpha virt. eigenvalues --    2.28950   2.31870   2.32476   2.33150   2.34626
 Alpha virt. eigenvalues --    2.35835   2.37716   2.39336   2.39698   2.41557
 Alpha virt. eigenvalues --    2.42494   2.43060   2.43572   2.44075   2.45663
 Alpha virt. eigenvalues --    2.46103   2.46172   2.47107   2.47952   2.48311
 Alpha virt. eigenvalues --    2.48995   2.50078   2.51489   2.51650   2.52421
 Alpha virt. eigenvalues --    2.52569   2.53189   2.53457   2.54161   2.54173
 Alpha virt. eigenvalues --    2.56248   2.56596   2.57992   2.58718   2.59033
 Alpha virt. eigenvalues --    2.60842   2.62319   2.63361   2.63791   2.65025
 Alpha virt. eigenvalues --    2.66564   2.67264   2.67669   2.67720   2.68231
 Alpha virt. eigenvalues --    2.68832   2.68913   2.69230   2.70333   2.70646
 Alpha virt. eigenvalues --    2.71063   2.71650   2.72865   2.73430   2.74091
 Alpha virt. eigenvalues --    2.75770   2.76092   2.76975   2.77787   2.78069
 Alpha virt. eigenvalues --    2.79669   2.82408   2.82630   2.83427   2.83541
 Alpha virt. eigenvalues --    2.83800   2.84043   2.84919   2.85575   2.86324
 Alpha virt. eigenvalues --    2.86789   2.87851   2.88464   2.88714   2.89744
 Alpha virt. eigenvalues --    2.90169   2.91614   2.92148   2.93129   2.93638
 Alpha virt. eigenvalues --    2.94611   2.95236   2.95505   2.96062   2.97239
 Alpha virt. eigenvalues --    2.99621   3.00101   3.01814   3.03423   3.04322
 Alpha virt. eigenvalues --    3.04609   3.05723   3.05983   3.08094   3.08835
 Alpha virt. eigenvalues --    3.09858   3.11357   3.12479   3.14109   3.14419
 Alpha virt. eigenvalues --    3.15187   3.16478   3.17477   3.19223   3.19907
 Alpha virt. eigenvalues --    3.21459   3.22984   3.23454   3.23799   3.24503
 Alpha virt. eigenvalues --    3.27188   3.28672   3.29612   3.31226   3.31948
 Alpha virt. eigenvalues --    3.33906   3.34306   3.34728   3.34826   3.35907
 Alpha virt. eigenvalues --    3.37273   3.38072   3.39507   3.41659   3.42199
 Alpha virt. eigenvalues --    3.43077   3.44509   3.45695   3.46002   3.48722
 Alpha virt. eigenvalues --    3.49170   3.50127   3.53616   3.55145   3.57668
 Alpha virt. eigenvalues --    3.59571   3.60249   3.61934   3.64865   3.65753
 Alpha virt. eigenvalues --    3.66538   3.69651   3.69962   3.72068   3.73009
 Alpha virt. eigenvalues --    3.75646   3.75966   3.76156   3.81599   3.82400
 Alpha virt. eigenvalues --    3.84254   3.85388   3.86535   3.90334   3.91914
 Alpha virt. eigenvalues --    3.92739   3.93164   3.94804   3.96986   4.01446
 Alpha virt. eigenvalues --    4.03079   4.04778   4.07988   4.10377   4.12813
 Alpha virt. eigenvalues --    4.14235   4.19385   4.23094   4.25259   4.26896
 Alpha virt. eigenvalues --    4.35252   4.38247   4.40117   4.50640   4.67163
 Alpha virt. eigenvalues --    4.83983   4.85708   4.87299   4.90465   5.02005
 Alpha virt. eigenvalues --    5.02671   5.03923   5.05438   5.06002   5.09945
 Alpha virt. eigenvalues --    5.11168   5.12924   5.24834   5.26759   5.28855
 Alpha virt. eigenvalues --    5.31250   5.42520   5.43837   5.75409   5.76671
 Alpha virt. eigenvalues --    5.80089   5.80159   5.81718   5.85146   8.02484
 Alpha virt. eigenvalues --    8.06334  17.29176  17.35305  17.49824  17.52573
 Alpha virt. eigenvalues --   17.58424  17.63451  23.49079  23.56566  23.72054
 Alpha virt. eigenvalues --   23.78803  23.81872  23.82291  23.84182  23.86571
 Alpha virt. eigenvalues --   23.86736  23.88017  23.89086  23.89862  23.90993
 Alpha virt. eigenvalues --   23.92956  23.94622  23.95280  23.96173  23.97903
 Alpha virt. eigenvalues --   24.00237  24.01737  24.02622  24.04759  24.11422
 Alpha virt. eigenvalues --   24.13298  24.13854  24.14231  35.55833  35.58838
 Alpha virt. eigenvalues --   49.95991  49.97455  50.01871  50.03886  50.05641
 Alpha virt. eigenvalues --   50.07374 189.19734 189.24298
          Condensed to atoms (all electrons):
 Mulliken charges:
               1
     1  C    0.354339
     2  C   -0.158204
     3  C    0.121038
     4  C    0.258478
     5  C    0.274677
     6  C   -0.401266
     7  C    0.156575
     8  C    0.200648
     9  C    0.364996
    10  C   -0.288283
    11  C    0.276973
    12  C    0.256626
    13  C   -0.490298
    14  C   -0.632206
    15  H    0.160736
    16  H    0.163266
    17  H    0.158560
    18  N   -0.110510
    19  N   -0.132139
    20  O   -0.280002
    21  O   -0.272678
    22  O   -0.281491
    23  O   -0.195230
    24  C   -0.194402
    25  H    0.177815
    26  H    0.176422
    27  H    0.182760
    28  C   -0.199455
    29  H    0.174731
    30  H    0.173935
    31  H    0.182893
    32  C    0.440950
    33  C   -0.844210
    34  S   -0.474156
    35  C   -0.430362
    36  H    0.130396
    37  C    0.559235
    38  O   -0.110671
    39  C    1.068733
    40  C   -0.255749
    41  C   -0.065843
    42  S   -0.241863
    43  H    0.166561
    44  H    0.146991
    45  H    0.151207
    46  C   -0.522757
    47  O   -0.127990
    48  C   -0.275240
    49  H    0.131953
    50  C   -0.242963
    51  H    0.160707
    52  H    0.144041
    53  H    0.166145
    54  H    0.145582
 Sum of Mulliken charges =  -0.00000
 Mulliken charges with hydrogens summed into heavy atoms:
               1
     1  C    0.354339
     2  C   -0.158204
     3  C    0.121038
     4  C    0.258478
     5  C    0.274677
     6  C   -0.242706
     7  C    0.156575
     8  C    0.200648
     9  C    0.364996
    10  C   -0.288283
    11  C    0.276973
    12  C    0.256626
    13  C   -0.327032
    14  C   -0.471471
    18  N   -0.110510
    19  N   -0.132139
    20  O   -0.280002
    21  O   -0.272678
    22  O   -0.281491
    23  O   -0.195230
    24  C    0.342594
    28  C    0.332104
    32  C    0.440950
    33  C   -0.713814
    34  S   -0.474156
    35  C   -0.430362
    37  C    0.559235
    38  O   -0.110671
    39  C    1.068733
    40  C    0.209010
    41  C   -0.065843
    42  S   -0.241863
    46  C   -0.390803
    47  O   -0.127990
    48  C   -0.114534
    50  C    0.212806
 Electronic spatial extent (au):  <R**2>=          22148.3953
 Charge=             -0.0000 electrons
 Dipole moment (field-independent basis, Debye):
    X=             -3.9093    Y=             -0.6090    Z=              0.3233  Tot=              3.9696
 Quadrupole moment (field-independent basis, Debye-Ang):
   XX=           -215.2838   YY=           -222.4304   ZZ=           -211.9439
   XY=             -9.3272   XZ=             -9.2090   YZ=             15.8635
 Traceless Quadrupole moment (field-independent basis, Debye-Ang):
   XX=              1.2689   YY=             -5.8777   ZZ=              4.6088
   XY=             -9.3272   XZ=             -9.2090   YZ=             15.8635
 Octapole moment (field-independent basis, Debye-Ang**2):
  XXX=           -331.5943  YYY=            -42.1597  ZZZ=              0.6494  XYY=            -87.7215
  XXY=              8.0866  XXZ=             46.7349  XZZ=            -35.0892  YZZ=             -2.4480
  YYZ=            -12.5587  XYZ=            -51.8948
 Hexadecapole moment (field-independent basis, Debye-Ang**3):
 XXXX=         -21503.4472 YYYY=          -6836.7498 ZZZZ=          -1583.9642 XXXY=           -222.4748
 XXXZ=           -512.5122 YYYX=           -358.6400 YYYZ=            165.7414 ZZZX=             -6.4378
 ZZZY=             86.1155 XXYY=          -4528.7935 XXZZ=          -3810.3550 YYZZ=          -1222.0700
 XXYZ=            267.0844 YYXZ=            101.8451 ZZXY=            -80.1178
 N-N= 4.102270026134D+03 E-N=-1.374456522832D+04  KE= 2.351827887414D+03
 Calling FoFJK, ICntrl=      2127 FMM=F ISym2X=0 I1Cent= 0 IOpClX= 0 NMat=1 NMatS=1 NMatT=0.
 ***** Axes restored to original set *****
 -------------------------------------------------------------------
 Center     Atomic                   Forces (Hartrees/Bohr)
 Number     Number              X              Y              Z
 -------------------------------------------------------------------
      1        6           0.004133610   -0.005174684   -0.000865726
      2        6          -0.000482714    0.000392547    0.000176023
      3        6           0.001190403   -0.000496116   -0.000218100
      4        6          -0.000595765    0.001550288    0.000273413
      5        6          -0.005867845   -0.002096867   -0.000147900
      6        6           0.002966809    0.002085882    0.001172395
      7        6          -0.000958210   -0.000471183   -0.000451619
      8        6           0.002170269   -0.004510352   -0.001771673
      9        6          -0.008036165   -0.009478947    0.003149424
     10        6           0.010263888    0.007587672    0.002085499
     11        6          -0.002721569    0.006355115    0.000673756
     12        6          -0.000927426   -0.000961802    0.000085702
     13        6           0.000591853   -0.000189309    0.000013979
     14        6           0.001744469   -0.000457364   -0.000106938
     15        1           0.000599904    0.000691476    0.000054652
     16        1           0.000628681   -0.001084563   -0.000180601
     17        1           0.001398862    0.001725236    0.000602306
     18        7          -0.002477025   -0.001624803   -0.000918402
     19        7           0.000867560    0.001440214    0.000128098
     20        8          -0.005968442    0.006186540    0.001044144
     21        8           0.007404201    0.002215347    0.000149683
     22        8           0.005736715   -0.006080679   -0.000848802
     23        8          -0.011361809   -0.006577978    0.003065947
     24        6           0.000911945    0.002422595   -0.000576346
     25        1          -0.000529305   -0.000061545   -0.000473929
     26        1          -0.001128847   -0.000681418    0.001252073
     27        1           0.000975489    0.000000333    0.000078805
     28        6          -0.000496546   -0.002034886   -0.000701940
     29        1          -0.000690149    0.000395774    0.001005615
     30        1          -0.000468365    0.000392802   -0.000507227
     31        1           0.000949594   -0.000372709   -0.000015478
     32        6           0.003660725    0.025899273   -0.006893352
     33        6          -0.004776827   -0.006098009   -0.003401856
     34       16           0.002721636   -0.008921183    0.001416251
     35        6           0.000144047    0.003642321   -0.003716942
     36        1          -0.001206677   -0.000568859    0.002928213
     37        6          -0.002282060   -0.003252906    0.001609498
     38        8          -0.000005657   -0.002530938    0.001646527
     39        6           0.000843397    0.001330948   -0.001627013
     40        6           0.000156994   -0.000361981    0.000164786
     41        6           0.001546565   -0.001751559    0.001466258
     42       16          -0.000166311    0.001373139   -0.001323597
     43        1          -0.000605473   -0.000141607   -0.000099027
     44        1           0.000495085    0.000292619   -0.000601330
     45        1           0.001137705    0.001231200    0.000295196
     46        6          -0.000466063   -0.000869593    0.001169113
     47        8           0.000823274    0.000504129   -0.000610441
     48        6          -0.000508771    0.000281621   -0.000679039
     49        1           0.000204556   -0.000623169    0.000596736
     50        6           0.000018262    0.001142128   -0.001851112
     51        1          -0.001157865   -0.000378461    0.000327180
     52        1          -0.000933225   -0.000160029    0.001305621
     53        1           0.001057175   -0.000273773    0.000403670
     54        1          -0.000524560   -0.000851931    0.000247830
 -------------------------------------------------------------------
 Cartesian Forces:  Max     0.025899273 RMS     0.003460068

 GradGradGradGradGradGradGradGradGradGradGradGradGradGradGradGradGradGrad
 Berny optimization.
 FormGI is forming the generalized inverse of G from B-inverse, IUseBI=4.
 Internal  Forces:  Max     0.017451285 RMS     0.002365990
 Search for a local minimum.
 Step number   1 out of a maximum of  307
 All quantities printed in internal units (Hartrees-Bohrs-Radians)
 Mixed Optimization -- RFO/linear search
 Second derivative matrix not updated -- first step.
 ITU=  0
     Eigenvalues ---    0.01155   0.01172   0.01239   0.01297   0.01356
     Eigenvalues ---    0.01380   0.01397   0.01410   0.01452   0.01469
     Eigenvalues ---    0.01512   0.01544   0.01567   0.01589   0.01617
     Eigenvalues ---    0.01651   0.01679   0.01693   0.01711   0.01719
     Eigenvalues ---    0.01721   0.01763   0.01799   0.01845   0.01973
     Eigenvalues ---    0.02039   0.02046   0.02073   0.02087   0.02097
     Eigenvalues ---    0.02133   0.02149   0.02162   0.02178   0.02197
     Eigenvalues ---    0.02244   0.04601   0.04620   0.07665   0.07667
     Eigenvalues ---    0.10057   0.10073   0.10631   0.10636   0.15983
     Eigenvalues ---    0.15999   0.15999   0.16000   0.16000   0.16000
     Eigenvalues ---    0.16000   0.16000   0.16000   0.16000   0.16000
     Eigenvalues ---    0.16000   0.16000   0.16000   0.16000   0.16000
     Eigenvalues ---    0.16000   0.16000   0.22530   0.22583   0.23517
     Eigenvalues ---    0.23582   0.24513   0.24747   0.24864   0.24906
     Eigenvalues ---    0.24952   0.24985   0.24986   0.24988   0.24992
     Eigenvalues ---    0.24994   0.24996   0.24997   0.24998   0.24998
     Eigenvalues ---    0.25000   0.25000   0.25000   0.25000   0.25000
     Eigenvalues ---    0.25000   0.25000   0.25000   0.25000   0.25000
     Eigenvalues ---    0.28811   0.28922   0.30075   0.32070   0.32582
     Eigenvalues ---    0.32774   0.33104   0.33787   0.33970   0.33983
     Eigenvalues ---    0.34101   0.34116   0.34353   0.34466   0.34577
     Eigenvalues ---    0.34629   0.34693   0.34794   0.34893   0.35198
     Eigenvalues ---    0.35218   0.35468   0.35553   0.35582   0.35842
     Eigenvalues ---    0.35874   0.36078   0.36083   0.36280   0.36393
     Eigenvalues ---    0.36662   0.39348   0.40187   0.40194   0.40651
     Eigenvalues ---    0.40680   0.41524   0.41655   0.41926   0.42300
     Eigenvalues ---    0.42688   0.43455   0.43905   0.44092   0.44594
     Eigenvalues ---    0.44614   0.45014   0.45405   0.46251   0.47305
     Eigenvalues ---    0.47587   0.49309   0.49516   0.52986   0.53335
     Eigenvalues ---    0.93281   0.93432   0.93989   0.945851000.00000
     Eigenvalues --- 1000.000001000.000001000.000001000.000001000.00000
     Eigenvalues --- 1000.000001000.000001000.000001000.000001000.00000
     Eigenvalues --- 1000.000001000.000001000.000001000.000001000.00000
     Eigenvalues --- 1000.000001000.000001000.000001000.000001000.00000
     Eigenvalues --- 1000.000001000.000001000.000001000.000001000.00000
     Eigenvalues --- 1000.000001000.000001000.000001000.000001000.00000
     Eigenvalues --- 1000.000001000.000001000.000001000.000001000.00000
     Eigenvalues --- 1000.000001000.000001000.000001000.000001000.00000
     Eigenvalues --- 1000.000001000.000001000.000001000.000001000.00000
     Eigenvalues --- 1000.000001000.000001000.000001000.000001000.00000
     Eigenvalues --- 1000.000001000.000001000.000001000.000001000.00000
     Eigenvalues --- 1000.000001000.000001000.000001000.000001000.00000
     Eigenvalues --- 1000.000001000.000001000.000001000.000001000.00000
     Eigenvalues --- 1000.000001000.000001000.000001000.000001000.00000
     Eigenvalues --- 1000.000001000.000001000.000001000.000001000.00000
     Eigenvalues --- 1000.000001000.000001000.000001000.000001000.00000
     Eigenvalues --- 1000.000001000.000001000.000001000.000001000.00000
     Eigenvalues --- 1000.000001000.000001000.000001000.000001000.00000
     Eigenvalues --- 1000.000001000.000001000.000001000.000001000.00000
     Eigenvalues --- 1000.000001000.000001000.000001000.000001000.00000
     Eigenvalues --- 1000.000001000.000001000.000001000.000001000.00000
     Eigenvalues --- 1000.000001000.000001000.000001000.000001000.00000
     Eigenvalues --- 1000.000001000.000001000.000001000.000001000.00000
     Eigenvalues --- 1000.000001000.000001000.000001000.000001000.00000
     Eigenvalues --- 1000.000001000.000001000.000001000.000001000.00000
     Eigenvalues --- 1000.000001000.000001000.000001000.000001000.00000
     Eigenvalues --- 1000.000001000.000001000.000001000.000001000.00000
     Eigenvalues --- 1000.000001000.000001000.000001000.000001000.00000
     Eigenvalues --- 1000.000001000.000001000.000001000.000001000.00000
     Eigenvalues --- 1000.000001000.00000
 RFO step:  Lambda=-1.28431236D-02 EMin= 1.15532237D-02
 Linear search not attempted -- first point.
 Iteration  1 RMS(Cart)=  0.32841545 RMS(Int)=  0.00790318
 Iteration  2 RMS(Cart)=  0.04600583 RMS(Int)=  0.00105702
 Iteration  3 RMS(Cart)=  0.00062727 RMS(Int)=  0.00105086
 Iteration  4 RMS(Cart)=  0.00000335 RMS(Int)=  0.00105086
 Iteration  5 RMS(Cart)=  0.00000001 RMS(Int)=  0.00105086
 Iteration  1 RMS(Cart)=  0.00013014 RMS(Int)=  0.00002537
 Iteration  2 RMS(Cart)=  0.00006264 RMS(Int)=  0.00002826
 Iteration  3 RMS(Cart)=  0.00003123 RMS(Int)=  0.00003143
 Iteration  4 RMS(Cart)=  0.00001604 RMS(Int)=  0.00003340
 Iteration  5 RMS(Cart)=  0.00000842 RMS(Int)=  0.00003454
 Iteration  6 RMS(Cart)=  0.00000450 RMS(Int)=  0.00003519
 Iteration  7 RMS(Cart)=  0.00000243 RMS(Int)=  0.00003557
 Iteration  8 RMS(Cart)=  0.00000132 RMS(Int)=  0.00003579
 Iteration  9 RMS(Cart)=  0.00000072 RMS(Int)=  0.00003592
 Variable       Old X    -DE/DX   Delta X   Delta X   Delta X     New X
                                 (Linear)    (Quad)   (Total)
    R1        2.80935  -0.00064   0.00000  -0.00187  -0.00188   2.80747
    R2        2.64584  -0.00131   0.00000  -0.00283  -0.00279   2.64305
    R3        2.31147  -0.00865   0.00000  -0.00908  -0.00908   2.30239
    R4        2.67311  -0.00202   0.00000  -0.00441  -0.00453   2.66858
    R5        2.59267  -0.00115   0.00000  -0.00245  -0.00245   2.59023
    R6        2.66894  -0.00155   0.00000  -0.00329  -0.00333   2.66561
    R7        2.69164  -0.00093   0.00000  -0.00159  -0.00174   2.68990
    R8        2.81049  -0.00027   0.00000  -0.00073  -0.00073   2.80977
    R9        2.62173  -0.00222   0.00000  -0.00459  -0.00450   2.61722
   R10        2.65570  -0.00104   0.00000  -0.00225  -0.00220   2.65349
   R11        2.30889  -0.00772   0.00000  -0.00806  -0.00806   2.30083
   R12        2.70248  -0.00564   0.00000  -0.01374  -0.01367   2.68881
   R13        2.04786  -0.00031   0.00000  -0.00085  -0.00085   2.04701
   R14        2.70495  -0.00102   0.00000  -0.00203  -0.00213   2.70282
   R15        2.68322  -0.00140   0.00000  -0.00316  -0.00325   2.67997
   R16        2.68655  -0.00379   0.00000  -0.00882  -0.00876   2.67779
   R17        2.81233   0.00193   0.00000   0.00560   0.00553   2.81786
   R18        2.76359   0.00222   0.00000   0.00585   0.00585   2.76944
   R19        2.66221  -0.00014   0.00000  -0.00030  -0.00029   2.66192
   R20        2.31391  -0.01256   0.00000  -0.01326  -0.01326   2.30064
   R21        2.79415   0.00025   0.00000   0.00058   0.00066   2.79481
   R22        2.63842  -0.00238   0.00000  -0.00506  -0.00498   2.63344
   R23        2.31456  -0.00838   0.00000  -0.00886  -0.00886   2.30570
   R24        2.62448  -0.00176   0.00000  -0.00371  -0.00371   2.62078
   R25        2.64561  -0.00163   0.00000  -0.00365  -0.00356   2.64205
   R26        2.04921  -0.00122   0.00000  -0.00331  -0.00331   2.04590
   R27        2.04741  -0.00079   0.00000  -0.00214  -0.00214   2.04527
   R28        2.77259   0.00171   0.00000   0.00458   0.00458   2.77717
   R29        2.77252   0.00174   0.00000   0.00466   0.00466   2.77718
   R30        2.06176  -0.00068   0.00000  -0.00190  -0.00190   2.05986
   R31        2.06551  -0.00181   0.00000  -0.00507  -0.00507   2.06044
   R32        2.05322  -0.00084   0.00000  -0.00229  -0.00229   2.05093
   R33        2.06368  -0.00127   0.00000  -0.00354  -0.00354   2.06014
   R34        2.06281  -0.00077   0.00000  -0.00215  -0.00215   2.06066
   R35        2.05355  -0.00090   0.00000  -0.00247  -0.00247   2.05108
   R36        2.61053  -0.00226   0.00000  -0.00504  -0.00412   2.60641
   R37        3.33355  -0.00664   0.00000  -0.02252  -0.02166   3.31190
   R38        2.66271  -0.00001   0.00000   0.00003  -0.00004   2.66267
   R39        2.03645   0.00251   0.00000   0.00667   0.00667   2.04312
   R40        3.30447  -0.00049   0.00000  -0.00092  -0.00160   3.30287
   R41        2.64280  -0.00314   0.00000  -0.00606  -0.00713   2.63566
   R42        2.56967   0.00195   0.00000   0.00359   0.00359   2.57326
   R43        2.71299   0.00064   0.00000   0.00153   0.00153   2.71453
   R44        2.69365  -0.00090   0.00000  -0.00209  -0.00209   2.69156
   R45        2.63346  -0.00219   0.00000  -0.00459  -0.00459   2.62888
   R46        3.32832  -0.00070   0.00000  -0.00206  -0.00206   3.32626
   R47        2.05850  -0.00059   0.00000  -0.00164  -0.00164   2.05686
   R48        2.07159  -0.00071   0.00000  -0.00201  -0.00201   2.06958
   R49        2.07358  -0.00154   0.00000  -0.00437  -0.00437   2.06922
   R50        2.69104  -0.00151   0.00000  -0.00367  -0.00367   2.68737
   R51        2.56643  -0.00011   0.00000  -0.00021  -0.00021   2.56622
   R52        3.26368  -0.00170   0.00000  -0.00488  -0.00488   3.25881
   R53        2.58750  -0.00209   0.00000  -0.00408  -0.00408   2.58342
   R54        2.04329  -0.00083   0.00000  -0.00224  -0.00224   2.04105
   R55        2.69018  -0.00016   0.00000  -0.00038  -0.00038   2.68980
   R56        2.04279  -0.00123   0.00000  -0.00332  -0.00332   2.03948
   R57        2.07381  -0.00152   0.00000  -0.00432  -0.00432   2.06950
   R58        2.06011  -0.00115   0.00000  -0.00318  -0.00318   2.05693
   R59        2.07135  -0.00082   0.00000  -0.00231  -0.00231   2.06904
    A1        2.03797   0.00038   0.00000   0.00144   0.00140   2.03936
    A2        2.14521  -0.00047   0.00000  -0.00179  -0.00178   2.14343
    A3        2.10001   0.00009   0.00000   0.00035   0.00035   2.10036
    A4        2.10395   0.00025   0.00000   0.00103   0.00103   2.10497
    A5        2.08282   0.00092   0.00000   0.00345   0.00365   2.08647
    A6        2.09624  -0.00117   0.00000  -0.00459  -0.00479   2.09145
    A7        2.10093  -0.00012   0.00000  -0.00105  -0.00097   2.09996
    A8        2.07104   0.00038   0.00000   0.00199   0.00187   2.07291
    A9        2.11118  -0.00026   0.00000  -0.00106  -0.00113   2.11005
   A10        2.10296  -0.00007   0.00000  -0.00007  -0.00014   2.10282
   A11        2.09911  -0.00018   0.00000  -0.00071  -0.00074   2.09837
   A12        2.08110   0.00025   0.00000   0.00076   0.00086   2.08196
   A13        2.03739   0.00039   0.00000   0.00167   0.00165   2.03904
   A14        2.12972   0.00013   0.00000   0.00039   0.00039   2.13012
   A15        2.11607  -0.00052   0.00000  -0.00207  -0.00206   2.11401
   A16        2.15098   0.00009   0.00000  -0.00087  -0.00113   2.14986
   A17        2.04399   0.00218   0.00000   0.01283   0.01273   2.05672
   A18        2.08722  -0.00232   0.00000  -0.01329  -0.01337   2.07386
   A19        2.11101  -0.00022   0.00000   0.00030   0.00053   2.11154
   A20        2.04385   0.00035   0.00000   0.00143   0.00149   2.04533
   A21        2.12832  -0.00013   0.00000  -0.00178  -0.00213   2.12619
   A22        2.08678  -0.00165   0.00000  -0.00788  -0.00848   2.07830
   A23        2.04738  -0.00061   0.00000  -0.00442  -0.00582   2.04156
   A24        2.14662   0.00218   0.00000   0.00722   0.00653   2.15315
   A25        2.04892   0.00248   0.00000   0.00862   0.00842   2.05734
   A26        2.00754  -0.01126   0.00000  -0.04272  -0.04273   1.96481
   A27        2.22643   0.00877   0.00000   0.03352   0.03345   2.25988
   A28        2.06022   0.00027   0.00000   0.00036  -0.00012   2.06010
   A29        2.17370  -0.00090   0.00000  -0.00312  -0.00287   2.17082
   A30        2.04919   0.00061   0.00000   0.00279   0.00302   2.05221
   A31        2.01621   0.00055   0.00000   0.00099   0.00050   2.01671
   A32        2.14188  -0.00098   0.00000  -0.00341  -0.00347   2.13840
   A33        2.12500   0.00042   0.00000   0.00193   0.00186   2.12685
   A34        2.10943   0.00038   0.00000   0.00061   0.00032   2.10975
   A35        2.11468  -0.00058   0.00000  -0.00185  -0.00191   2.11276
   A36        2.05896   0.00019   0.00000   0.00115   0.00147   2.06044
   A37        2.11176   0.00021   0.00000   0.00039   0.00030   2.11205
   A38        2.05670   0.00025   0.00000   0.00187   0.00190   2.05860
   A39        2.11471  -0.00047   0.00000  -0.00230  -0.00226   2.11245
   A40        2.08567   0.00045   0.00000   0.00146   0.00145   2.08712
   A41        2.07549   0.00025   0.00000   0.00199   0.00196   2.07746
   A42        2.12199  -0.00070   0.00000  -0.00354  -0.00356   2.11843
   A43        2.20043  -0.00063   0.00000  -0.00327  -0.00362   2.19681
   A44        2.02023   0.00007   0.00000   0.00071   0.00088   2.02111
[...]
 Alpha  occ. eigenvalues --   -0.57520  -0.56687  -0.56031  -0.55190  -0.54553
 Alpha  occ. eigenvalues --   -0.53811  -0.51797  -0.50317  -0.49945  -0.49769
 Alpha  occ. eigenvalues --   -0.49446  -0.48735  -0.48616  -0.48497  -0.48231
 Alpha  occ. eigenvalues --   -0.47919  -0.47250  -0.46676  -0.46428  -0.45750
 Alpha  occ. eigenvalues --   -0.45353  -0.44999  -0.44775  -0.44435  -0.43981
 Alpha  occ. eigenvalues --   -0.42832  -0.42476  -0.42255  -0.42049  -0.41755
 Alpha  occ. eigenvalues --   -0.41415  -0.41301  -0.41244  -0.40633  -0.39980
 Alpha  occ. eigenvalues --   -0.39576  -0.38975  -0.38520  -0.37779  -0.37328
 Alpha  occ. eigenvalues --   -0.36180  -0.35704  -0.34072  -0.33677  -0.33466
 Alpha  occ. eigenvalues --   -0.33213  -0.32300  -0.31079  -0.30183  -0.29827
 Alpha  occ. eigenvalues --   -0.29324  -0.28976  -0.28727  -0.28173  -0.27486
 Alpha  occ. eigenvalues --   -0.26288  -0.24599  -0.24118  -0.19054
 Alpha virt. eigenvalues --   -0.13217  -0.07088  -0.06283  -0.04846  -0.04044
 Alpha virt. eigenvalues --   -0.00898  -0.00392  -0.00254   0.00064   0.00588
 Alpha virt. eigenvalues --    0.00667   0.01042   0.01194   0.01367   0.01860
 Alpha virt. eigenvalues --    0.02035   0.02230   0.02470   0.02908   0.03059
 Alpha virt. eigenvalues --    0.03523   0.03711   0.03844   0.04127   0.04612
 Alpha virt. eigenvalues --    0.04879   0.04983   0.05086   0.05561   0.05717
 Alpha virt. eigenvalues --    0.05880   0.06199   0.06322   0.06809   0.07021
 Alpha virt. eigenvalues --    0.07267   0.07347   0.07643   0.07909   0.08131
 Alpha virt. eigenvalues --    0.08556   0.08786   0.09079   0.09148   0.09254
 Alpha virt. eigenvalues --    0.09460   0.09604   0.09899   0.10120   0.10801
 Alpha virt. eigenvalues --    0.10899   0.11280   0.11498   0.11824   0.11861
 Alpha virt. eigenvalues --    0.12192   0.12794   0.12820   0.13190   0.13323
 Alpha virt. eigenvalues --    0.13547   0.13696   0.13963   0.14118   0.14386
 Alpha virt. eigenvalues --    0.14500   0.14780   0.14848   0.15087   0.15204
 Alpha virt. eigenvalues --    0.15481   0.15734   0.15960   0.16171   0.16282
 Alpha virt. eigenvalues --    0.16570   0.16811   0.17119   0.17319   0.17609
 Alpha virt. eigenvalues --    0.17805   0.18281   0.18351   0.18415   0.18800
 Alpha virt. eigenvalues --    0.18883   0.19030   0.19190   0.19568   0.19657
 Alpha virt. eigenvalues --    0.19756   0.20065   0.20171   0.20420   0.20485
 Alpha virt. eigenvalues --    0.20689   0.20785   0.20844   0.21231   0.21343
 Alpha virt. eigenvalues --    0.21447   0.21777   0.21871   0.22146   0.22383
 Alpha virt. eigenvalues --    0.22621   0.22887   0.22928   0.23140   0.23312
 Alpha virt. eigenvalues --    0.23373   0.23595   0.23849   0.24009   0.24272
 Alpha virt. eigenvalues --    0.24611   0.24881   0.24999   0.25117   0.25392
 Alpha virt. eigenvalues --    0.25626   0.25812   0.25979   0.26106   0.26255
 Alpha virt. eigenvalues --    0.26329   0.26808   0.26908   0.26968   0.27139
 Alpha virt. eigenvalues --    0.27461   0.27720   0.27923   0.28246   0.28358
 Alpha virt. eigenvalues --    0.28477   0.28754   0.28994   0.29144   0.29527
 Alpha virt. eigenvalues --    0.29766   0.29856   0.30138   0.30350   0.30724
 Alpha virt. eigenvalues --    0.30766   0.31015   0.31071   0.31454   0.31502
 Alpha virt. eigenvalues --    0.31914   0.32392   0.32528   0.32706   0.33152
 Alpha virt. eigenvalues --    0.33557   0.33631   0.34009   0.34251   0.34561
 Alpha virt. eigenvalues --    0.34801   0.34942   0.35434   0.35776   0.35903
 Alpha virt. eigenvalues --    0.36262   0.36804   0.37222   0.37573   0.37867
 Alpha virt. eigenvalues --    0.38233   0.38377   0.38901   0.39187   0.39555
 Alpha virt. eigenvalues --    0.39814   0.40187   0.40725   0.40971   0.41619
 Alpha virt. eigenvalues --    0.41787   0.42211   0.42979   0.43219   0.43494
 Alpha virt. eigenvalues --    0.44046   0.44332   0.44788   0.45249   0.45318
 Alpha virt. eigenvalues --    0.45492   0.45945   0.46261   0.46568   0.46989
 Alpha virt. eigenvalues --    0.47136   0.47755   0.48473   0.48988   0.49288
 Alpha virt. eigenvalues --    0.49544   0.49835   0.50391   0.50823   0.51184
 Alpha virt. eigenvalues --    0.51998   0.52618   0.53195   0.53786   0.53902
 Alpha virt. eigenvalues --    0.54350   0.54527   0.55149   0.55614   0.55844
 Alpha virt. eigenvalues --    0.55967   0.56543   0.56803   0.57006   0.57460
 Alpha virt. eigenvalues --    0.57805   0.58278   0.58779   0.59154   0.59518
 Alpha virt. eigenvalues --    0.60161   0.60689   0.60979   0.61035   0.61711
 Alpha virt. eigenvalues --    0.62216   0.62371   0.62491   0.62684   0.63314
 Alpha virt. eigenvalues --    0.63661   0.64320   0.64457   0.64750   0.65154
 Alpha virt. eigenvalues --    0.65694   0.65971   0.66182   0.66333   0.66512
 Alpha virt. eigenvalues --    0.67232   0.67528   0.67905   0.68102   0.68692
 Alpha virt. eigenvalues --    0.69105   0.69269   0.69469   0.69725   0.70572
 Alpha virt. eigenvalues --    0.71090   0.71357   0.71595   0.72273   0.72307
 Alpha virt. eigenvalues --    0.72569   0.72811   0.73203   0.73304   0.74179
 Alpha virt. eigenvalues --    0.74334   0.74680   0.74844   0.75066   0.75539
 Alpha virt. eigenvalues --    0.75977   0.76140   0.76555   0.76953   0.77227
 Alpha virt. eigenvalues --    0.77741   0.77900   0.78076   0.79027   0.79449
 Alpha virt. eigenvalues --    0.79964   0.80326   0.80539   0.81605   0.81863
 Alpha virt. eigenvalues --    0.82648   0.83006   0.83764   0.84596   0.85876
 Alpha virt. eigenvalues --    0.86637   0.87239   0.87407   0.87874   0.88251
 Alpha virt. eigenvalues --    0.88817   0.89092   0.90309   0.90390   0.90880
 Alpha virt. eigenvalues --    0.91660   0.91875   0.92323   0.92564   0.93144
 Alpha virt. eigenvalues --    0.93687   0.93822   0.94240   0.94487   0.95629
 Alpha virt. eigenvalues --    0.95823   0.96218   0.96505   0.96844   0.97603
 Alpha virt. eigenvalues --    0.97774   0.97924   0.99145   0.99798   1.00608
 Alpha virt. eigenvalues --    1.00893   1.01314   1.01564   1.01744   1.01921
 Alpha virt. eigenvalues --    1.02763   1.03415   1.03803   1.04247   1.04796
 Alpha virt. eigenvalues --    1.05181   1.05325   1.05865   1.05983   1.06370
 Alpha virt. eigenvalues --    1.06509   1.07096   1.07690   1.08136   1.08645
 Alpha virt. eigenvalues --    1.09112   1.09390   1.09825   1.10777   1.11100
 Alpha virt. eigenvalues --    1.11150   1.12647   1.13211   1.13681   1.14151
 Alpha virt. eigenvalues --    1.15510   1.15718   1.16398   1.16868   1.17871
 Alpha virt. eigenvalues --    1.18259   1.18828   1.19949   1.20846   1.21667
 Alpha virt. eigenvalues --    1.21988   1.22401   1.23564   1.24651   1.25122
 Alpha virt. eigenvalues --    1.25312   1.26225   1.26581   1.26749   1.27397
 Alpha virt. eigenvalues --    1.27805   1.28127   1.29576   1.30138   1.31469
 Alpha virt. eigenvalues --    1.32121   1.33284   1.33615   1.34172   1.35670
 Alpha virt. eigenvalues --    1.35829   1.36195   1.36833   1.39261   1.39871
 Alpha virt. eigenvalues --    1.40431   1.41079   1.41520   1.42387   1.42645
 Alpha virt. eigenvalues --    1.43252   1.43349   1.43542   1.43766   1.44400
 Alpha virt. eigenvalues --    1.44680   1.45231   1.45427   1.45537   1.45931
 Alpha virt. eigenvalues --    1.46083   1.46776   1.47544   1.48524   1.49771
 Alpha virt. eigenvalues --    1.50351   1.51180   1.51290   1.51538   1.52639
 Alpha virt. eigenvalues --    1.53281   1.53418   1.54018   1.54482   1.54738
 Alpha virt. eigenvalues --    1.55006   1.55463   1.55948   1.56910   1.57158
 Alpha virt. eigenvalues --    1.58705   1.58900   1.60213   1.60849   1.61764
 Alpha virt. eigenvalues --    1.62451   1.62657   1.63384   1.63828   1.64138
 Alpha virt. eigenvalues --    1.64512   1.65239   1.66083   1.66640   1.67066
 Alpha virt. eigenvalues --    1.68115   1.68463   1.69196   1.69363   1.69800
 Alpha virt. eigenvalues --    1.70111   1.70856   1.71101   1.71247   1.71578
 Alpha virt. eigenvalues --    1.73520   1.73891   1.74304   1.74755   1.75403
 Alpha virt. eigenvalues --    1.76490   1.77179   1.77366   1.78126   1.78805
 Alpha virt. eigenvalues --    1.79499   1.80205   1.80775   1.81833   1.82038
 Alpha virt. eigenvalues --    1.83338   1.84300   1.85489   1.85884   1.86033
 Alpha virt. eigenvalues --    1.86569   1.86739   1.87527   1.87915   1.88594
 Alpha virt. eigenvalues --    1.89730   1.90182   1.90602   1.91037   1.91462
 Alpha virt. eigenvalues --    1.91678   1.92185   1.93585   1.94534   1.95289
 Alpha virt. eigenvalues --    1.96042   1.96293   1.96856   1.98125   1.98660
 Alpha virt. eigenvalues --    1.99051   2.00839   2.01180   2.01647   2.02007
 Alpha virt. eigenvalues --    2.02686   2.02995   2.03753   2.04387   2.05114
 Alpha virt. eigenvalues --    2.06077   2.06640   2.06835   2.07573   2.08114
 Alpha virt. eigenvalues --    2.08898   2.09237   2.10414   2.11135   2.11576
 Alpha virt. eigenvalues --    2.12029   2.12339   2.13944   2.14569   2.15255
 Alpha virt. eigenvalues --    2.15685   2.16032   2.16975   2.17997   2.19062
 Alpha virt. eigenvalues --    2.19608   2.20272   2.20939   2.21574   2.21755
 Alpha virt. eigenvalues --    2.22886   2.25981   2.26407   2.27081   2.28634
 Alpha virt. eigenvalues --    2.31678   2.32517   2.33116   2.34356   2.36644
 Alpha virt. eigenvalues --    2.37735   2.39333   2.39972   2.41459   2.43014
 Alpha virt. eigenvalues --    2.43419   2.43971   2.44294   2.45918   2.46359
 Alpha virt. eigenvalues --    2.46593   2.47036   2.48456   2.48976   2.49372
 Alpha virt. eigenvalues --    2.50304   2.51615   2.51696   2.52352   2.52380
 Alpha virt. eigenvalues --    2.53077   2.53388   2.53854   2.54612   2.56131
 Alpha virt. eigenvalues --    2.56496   2.58348   2.58534   2.58937   2.60139
 Alpha virt. eigenvalues --    2.62173   2.63568   2.63894   2.64897   2.66651
 Alpha virt. eigenvalues --    2.66983   2.67835   2.67984   2.68068   2.68314
 Alpha virt. eigenvalues --    2.69100   2.69460   2.70453   2.71064   2.71289
 Alpha virt. eigenvalues --    2.71980   2.72552   2.73177   2.74285   2.75782
 Alpha virt. eigenvalues --    2.76036   2.77616   2.77737   2.78456   2.80853
 Alpha virt. eigenvalues --    2.82208   2.82835   2.83490   2.83805   2.84000
 Alpha virt. eigenvalues --    2.84402   2.85625   2.85777   2.86172   2.87490
 Alpha virt. eigenvalues --    2.87763   2.88297   2.88871   2.89690   2.90202
 Alpha virt. eigenvalues --    2.91806   2.92401   2.93151   2.93761   2.94504
 Alpha virt. eigenvalues --    2.95120   2.95575   2.96568   2.98273   3.00189
 Alpha virt. eigenvalues --    3.00552   3.01987   3.03622   3.04441   3.04822
 Alpha virt. eigenvalues --    3.06313   3.06819   3.08210   3.08614   3.09740
 Alpha virt. eigenvalues --    3.10566   3.12887   3.13988   3.14437   3.14963
 Alpha virt. eigenvalues --    3.16657   3.17310   3.19375   3.21326   3.21710
 Alpha virt. eigenvalues --    3.23415   3.23864   3.24352   3.24917   3.27069
 Alpha virt. eigenvalues --    3.29571   3.29888   3.31181   3.32492   3.34383
 Alpha virt. eigenvalues --    3.34905   3.35206   3.35523   3.36605   3.37903
 Alpha virt. eigenvalues --    3.38253   3.39712   3.41562   3.42891   3.44001
 Alpha virt. eigenvalues --    3.44757   3.46044   3.46615   3.49227   3.49534
 Alpha virt. eigenvalues --    3.51123   3.53769   3.55694   3.58055   3.60037
 Alpha virt. eigenvalues --    3.60733   3.62161   3.65377   3.65838   3.66707
 Alpha virt. eigenvalues --    3.69804   3.70971   3.72422   3.73414   3.76082
 Alpha virt. eigenvalues --    3.76770   3.77039   3.81745   3.82657   3.84681
 Alpha virt. eigenvalues --    3.85292   3.86188   3.90084   3.91684   3.93014
 Alpha virt. eigenvalues --    3.93161   3.94864   3.96545   4.01163   4.03221
 Alpha virt. eigenvalues --    4.04327   4.08284   4.10763   4.12233   4.14596
 Alpha virt. eigenvalues --    4.19581   4.23006   4.25087   4.26785   4.35104
 Alpha virt. eigenvalues --    4.38477   4.39907   4.50205   4.67371   4.84288
 Alpha virt. eigenvalues --    4.86778   4.86916   4.89897   5.02137   5.02816
 Alpha virt. eigenvalues --    5.03894   5.05408   5.05750   5.09069   5.11135
 Alpha virt. eigenvalues --    5.12397   5.24788   5.26611   5.28624   5.31556
 Alpha virt. eigenvalues --    5.41995   5.43347   5.75810   5.76934   5.80012
 Alpha virt. eigenvalues --    5.80578   5.81887   5.85332   8.02815   8.06136
 Alpha virt. eigenvalues --   17.29480  17.35145  17.50013  17.52902  17.58967
 Alpha virt. eigenvalues --   17.63152  23.48688  23.56610  23.72556  23.79271
 Alpha virt. eigenvalues --   23.82319  23.82973  23.84443  23.86928  23.87303
 Alpha virt. eigenvalues --   23.87943  23.88742  23.90412  23.91355  23.93569
 Alpha virt. eigenvalues --   23.94801  23.96082  23.96508  24.00000  24.01356
 Alpha virt. eigenvalues --   24.03928  24.03975  24.05433  24.11561  24.14053
 Alpha virt. eigenvalues --   24.14174  24.15416  35.55694  35.58321  49.96354
 Alpha virt. eigenvalues --   49.97597  50.02088  50.03894  50.05913  50.07321
 Alpha virt. eigenvalues --  189.20024 189.24262
          Condensed to atoms (all electrons):
 Mulliken charges:
               1
     1  C    0.334265
     2  C   -0.040599
     3  C    0.169924
     4  C    0.231118
     5  C    0.224337
     6  C   -0.369137
     7  C    0.206699
     8  C    0.008163
     9  C    0.293375
    10  C   -0.329847
    11  C    0.262290
    12  C    0.111818
    13  C   -0.450037
    14  C   -0.615781
    15  H    0.160386
    16  H    0.161765
    17  H    0.164127
    18  N   -0.113745
    19  N   -0.141744
    20  O   -0.275710
    21  O   -0.270977
    22  O   -0.277686
    23  O   -0.188043
    24  C   -0.179495
    25  H    0.177205
    26  H    0.177999
    27  H    0.182896
    28  C   -0.197078
    29  H    0.175117
    30  H    0.173950
    31  H    0.182647
    32  C    0.412456
    33  C   -0.543424
    34  S   -0.446282
    35  C   -0.125356
    36  H    0.124831
    37  C    0.443464
    38  O   -0.131077
    39  C    0.852468
    40  C   -0.228424
    41  C    0.016265
    42  S   -0.275774
    43  H    0.165627
    44  H    0.145916
    45  H    0.151432
    46  C   -0.581197
    47  O   -0.140981
    48  C   -0.292820
    49  H    0.130224
    50  C   -0.237389
    51  H    0.158834
    52  H    0.143372
    53  H    0.164357
    54  H    0.145279
 Sum of Mulliken charges =  -0.00000
 Mulliken charges with hydrogens summed into heavy atoms:
               1
     1  C    0.334265
     2  C   -0.040599
     3  C    0.169924
     4  C    0.231118
     5  C    0.224337
     6  C   -0.205010
     7  C    0.206699
     8  C    0.008163
     9  C    0.293375
    10  C   -0.329847
    11  C    0.262290
    12  C    0.111818
    13  C   -0.288272
    14  C   -0.455395
    18  N   -0.113745
    19  N   -0.141744
    20  O   -0.275710
    21  O   -0.270977
    22  O   -0.277686
    23  O   -0.188043
    24  C    0.358604
    28  C    0.334636
    32  C    0.412456
    33  C   -0.418593
    34  S   -0.446282
    35  C   -0.125356
    37  C    0.443464
    38  O   -0.131077
    39  C    0.852468
    40  C    0.234551
    41  C    0.016265
    42  S   -0.275774
    46  C   -0.450972
    47  O   -0.140981
    48  C   -0.133987
    50  C    0.215619
 Electronic spatial extent (au):  <R**2>=          22136.8164
 Charge=             -0.0000 electrons
 Dipole moment (field-independent basis, Debye):
    X=             -2.9487    Y=             -0.4360    Z=              0.2844  Tot=              2.9943
 Quadrupole moment (field-independent basis, Debye-Ang):
   XX=           -217.3762   YY=           -225.7869   ZZ=           -206.7946
   XY=             -7.2497   XZ=            -11.1580   YZ=             14.1349
 Traceless Quadrupole moment (field-independent basis, Debye-Ang):
   XX=             -0.7236   YY=             -9.1344   ZZ=              9.8579
   XY=             -7.2497   XZ=            -11.1580   YZ=             14.1349
 Octapole moment (field-independent basis, Debye-Ang**2):
  XXX=           -300.4397  YYY=            -26.6878  ZZZ=              1.3363  XYY=            -61.8566
  XXY=             -2.3883  XXZ=             48.2827  XZZ=            -55.4735  YZZ=             -4.8253
  YYZ=            -13.6812  XYZ=            -51.7479
 Hexadecapole moment (field-independent basis, Debye-Ang**3):
 XXXX=         -21260.8935 YYYY=          -6613.7967 ZZZZ=          -1936.2277 XXXY=            -49.4662
 XXXZ=           -597.6821 YYYX=           -434.7526 YYYZ=             48.3960 ZZZX=            -46.7399
 ZZZY=            124.2931 XXYY=          -4598.0516 XXZZ=          -3751.1420 YYZZ=          -1256.4250
 XXYZ=            279.6856 YYXZ=             94.7401 ZZXY=            -56.3361
 N-N= 4.096883261739D+03 E-N=-1.373392002946D+04  KE= 2.352053266303D+03
 Unable to Open any file for archive entry.
 1\1\GINC-CX3-6-4\FOpt\RB3LYP\6-311+G(d,p)\C26H18N2O6S2\NS5018\29-Nov-2
 020\0\\# opt=modredundant b3lyp/6-311+g(d,p)\\NDI_125.pdb\\0,1\C,-2.45
 06259032,-2.8954000749,-0.5517698758\C,-2.1988841068,-1.4555344623,-0.
 2811474604\C,-3.280402229,-0.5624735274,-0.1068845013\C,-4.6130062751,
 -1.0207507953,-0.1902594774\C,-4.8998605947,-2.4519660015,-0.478715702
 5\C,-0.9066770744,-0.9898301668,-0.2183503672\C,-3.0072950752,0.803281
 9988,0.1798629579\C,-1.6638897314,1.270052044,0.250730086\C,-0.6046189
 693,0.3793497025,0.0085728328\C,-1.427187791,2.6602914555,0.7351385264
 \C,-3.8847565493,3.0972336019,0.745910262\C,-4.1050510475,1.6724321194
 ,0.3946791737\C,-5.405529604,1.203859988,0.2997126025\C,-5.6642763768,
 -0.141023307,0.0043302398\H,-6.6787551985,-0.5121478849,-0.0659538164\
 H,-6.2162340435,1.9019421173,0.4660946201\H,-0.0951256942,-1.685432355
 5,-0.3898615815\N,-2.5543118014,3.4829971588,0.9229200168\N,-3.7891083
 164,-3.2978640672,-0.636293747\O,-1.5534637331,-3.7041464021,-0.700615
 9068\O,-6.0357285952,-2.8773519416,-0.5710988458\O,-4.8056355628,3.880
 9626225,0.8939161611\O,-0.3253187197,3.1128567147,0.974563068\C,-2.276
 6080129,4.8596685216,1.3580720741\H,-1.7453761625,4.8450372841,2.30975
 90951\H,-1.6464361825,5.3590214299,0.6218218474\H,-3.2268595594,5.3744
 881256,1.4575227184\C,-4.023798556,-4.7221140699,-0.9154055995\H,-3.54
 55665923,-4.9953539122,-1.8560431096\H,-3.5918259432,-5.3296504131,-0.
 1197217157\H,-5.0962079127,-4.8787262575,-0.9728911745\C,0.8190720518,
 0.73713701,-0.0764263097\C,1.8438172446,0.1903225143,0.6595393673\S,1.
 4217822349,1.8433614578,-1.2767722524\C,3.1150132548,0.6863642028,0.28
 20618516\H,1.6773665123,-0.516725283,1.4597125506\C,3.083539253,1.5908
 954678,-0.7738870737\O,4.3091876086,0.364587371,0.8500350473\C,4.19811
 4766,2.2347915538,-1.4175157584\C,4.3254096648,-0.6627711105,1.8352495
 477\C,4.1658498956,3.1334304685,-2.4763710771\S,5.8682099021,1.9671528
 773,-0.932965757\H,5.3690135462,-0.7898433946,2.117693237\H,3.74436025
 53,-0.373420372,2.7171102936\H,3.9393704885,-1.6041029454,1.4304559521
 \C,5.446024611,3.5978272596,-2.8875332395\O,2.9678923136,3.4836868294,
 -3.0179551721\C,6.4524778574,3.0500808181,-2.1420920148\H,5.6146631242
 ,4.2991700914,-3.6915962731\C,2.9629204286,4.435639413,-4.0761355647\H
 ,7.5131589865,3.2256886027,-2.235263359\H,3.5148594441,4.0628777805,-4
 .9452137689\H,1.917781852,4.5774376314,-4.3455982486\H,3.3875366182,5.
 3907025108,-3.7501253791\\Version=ES64L-G16RevC.01\State=1-A\HF=-2359.
 3358562\RMSD=3.804e-09\RMSF=4.677e-04\Dipole=1.1125815,0.2598907,-0.28
 71457\Quadrupole=-5.8772985,-1.8899391,7.7672376,4.0314603,-1.7969625,
 -13.7719647\PG=C01 [X(C26H18N2O6S2)]\\@
 The archive entry for this job was punched.


 MANHOOD BEGINS BY TRYING TO SHAVE FACE,
 AND ENDS BY TRYING TO SAVE FACE.
 Job cpu time:       1 days  4 hours 34 minutes 16.2 seconds.
 Elapsed time:       0 days  3 hours 36 minutes  9.7 seconds.
 File lengths (MBytes):  RWF=    496 Int=      0 D2E=      0 Chk=     61 Scr=      1
 Normal termination of Gaussian 16 at Sun Nov 29 14:36:04 2020.
