 Entering Gaussian System, Link 0=g16
 Input=NDI_110.gjf
 Output=NDI_110.log
 Initial command:
 /apps/gaussian/g16-c01-avx/g16/l1.exe "/tmp/pbs.2625174[58].pbs/Gau-1486464.inp" -scrdir="/tmp/pbs.2625174[58].pbs/"
 Entering Link 1 = /apps/gaussian/g16-c01-avx/g16/l1.exe PID=   1486465.
  
 Copyright (c) 1988-2019, Gaussian, Inc.  All Rights Reserved.
  
 This is part of the Gaussian(R) 16 program.  It is based on
 the Gaussian(R) 09 system (copyright 2009, Gaussian, Inc.),
 the Gaussian(R) 03 system (copyright 2003, Gaussian, Inc.),
 the Gaussian(R) 98 system (copyright 1998, Gaussian, Inc.),
 the Gaussian(R) 94 system (copyright 1995, Gaussian, Inc.),
 the Gaussian 92(TM) system (copyright 1992, Gaussian, Inc.),
 the Gaussian 90(TM) system (copyright 1990, Gaussian, Inc.),
 the Gaussian 88(TM) system (copyright 1988, Gaussian, Inc.),
 the Gaussian 86(TM) system (copyright 1986, Carnegie Mellon
 University), and the Gaussian 82(TM) system (copyright 1983,
 Carnegie Mellon University). Gaussian is a federally registered
 trademark of Gaussian, Inc.
  
 This software contains proprietary and confidential information,
 including trade secrets, belonging to Gaussian, Inc.
  
 This software is provided under written license and may be
 used, copied, transmitted, or stored only in accord with that
 written license.
  
 The following legend is applicable only to US Government
 contracts under FAR:
  
                    RESTRICTED RIGHTS LEGEND
  
 Use, reproduction and disclosure by the US Government is
 subject to restrictions as set forth in subparagraphs (a)
 and (c) of the Commercial Computer Software - Restricted
 Rights clause in FAR 52.227-19.
  
 Gaussian, Inc.
 340 Quinnipiac St., Bldg. 40, Wallingford CT 06492
  
  
 ---------------------------------------------------------------
 Warning -- This program may not be used in any manner that
 competes with the business of Gaussian, Inc. or will provide
 assistance to any competitor of Gaussian, Inc.  The licensee
 of this program is prohibited from giving any competitor of
 Gaussian, Inc. access to this program.  By using this program,
 the user acknowledges that Gaussian, Inc. is engaged in the
 business of creating and licensing software in the field of
 computational chemistry and represents and warrants to the
 licensee that it is not a competitor of Gaussian, Inc. and that
 it will not use this program in any manner prohibited above.
 ---------------------------------------------------------------
  

 Cite this work as:
 Gaussian 16, Revision C.01,
 M. J. Frisch, G. W. Trucks, H. B. Schlegel, G. E. Scuseria, 
 M. A. Robb, J. R. Cheeseman, G. Scalmani, V. Barone, 
 G. A. Petersson, H. Nakatsuji, X. Li, M. Caricato, A. V. Marenich, 
 J. Bloino, B. G. Janesko, R. Gomperts, B. Mennucci, H. P. Hratchian, 
 J. V. Ortiz, A. F. Izmaylov, J. L. Sonnenberg, D. Williams-Young, 
 F. Ding, F. Lipparini, F. Egidi, J. Goings, B. Peng, A. Petrone, 
 T. Henderson, D. Ranasinghe, V. G. Zakrzewski, J. Gao, N. Rega, 
 G. Zheng, W. Liang, M. Hada, M. Ehara, K. Toyota, R. Fukuda, 
 J. Hasegawa, M. Ishida, T. Nakajima, Y. Honda, O. Kitao, H. Nakai, 
 T. Vreven, K. Throssell, J. A. Montgomery, Jr., J. E. Peralta, 
 F. Ogliaro, M. J. Bearpark, J. J. Heyd, E. N. Brothers, K. N. Kudin, 
 V. N. Staroverov, T. A. Keith, R. Kobayashi, J. Normand, 
 K. Raghavachari, A. P. Rendell, J. C. Burant, S. S. Iyengar, 
 J. Tomasi, M. Cossi, J. M. Millam, M. Klene, C. Adamo, R. Cammi, 
 J. W. Ochterski, R. L. Martin, K. Morokuma, O. Farkas, 
 J. B. Foresman, and D. J. Fox, Gaussian, Inc., Wallingford CT, 2019.
 
 ******************************************
 Gaussian 16:  ES64L-G16RevC.01  3-Jul-2019
                29-Nov-2020 
 ******************************************
 %mem=10GB
 %nprocshared=8
 Will use up to    8 processors via shared memory.
 -------------------------------------
 # opt=modredundant b3lyp/6-311+g(d,p)
 -------------------------------------
 1/18=120,19=15,26=3,38=1/1,3;
 2/9=110,12=2,17=6,18=5,40=1/2;
 3/5=4,6=6,7=111,11=2,25=1,30=1,71=1,74=-5/1,2,3;
 4//1;
 5/5=2,38=5/2;
 6/7=2,8=2,9=2,10=2,28=1/1;
 7//1,2,3,16;
 1/18=20,19=15,26=3/3(2);
 2/9=110/2;
 99//99;
 2/9=110/2;
 3/5=4,6=6,7=111,11=2,25=1,30=1,71=1,74=-5/1,2,3;
 4/5=5,16=3,69=1/1;
 5/5=2,38=5/2;
 7//1,2,3,16;
 1/18=20,19=15,26=3/3(-5);
 2/9=110/2;
 6/7=2,8=2,9=2,10=2,19=2,28=1/1;
 99/9=1/99;
 -----------
 NDI_110.pdb
 -----------
 Symbolic Z-matrix:
 Charge =  0 Multiplicity = 1
 C                    -2.563    -2.994    -0.409 
 C                    -2.257    -1.551    -0.224 
 C                    -3.301    -0.607    -0.083 
 C                    -4.65     -1.024    -0.115 
 C                    -4.992    -2.459    -0.304 
 C                    -0.949    -1.137    -0.215 
 C                    -2.962     0.764     0.102 
 C                    -1.595     1.188     0.123 
 C                    -0.561     0.232    -0.072 
 C                    -1.328     2.616     0.446 
 C                    -3.777     3.115     0.508 
 C                    -4.035     1.679     0.268 
 C                    -5.356     1.252     0.23 
 C                    -5.672    -0.098     0.036 
 H                    -6.699    -0.442     0.008 
 H                    -6.133     1.997     0.361 
 H                    -0.19     -1.895    -0.369 
 N                    -2.432     3.476     0.608 
 N                    -3.916    -3.353    -0.438 
 O                    -1.695    -3.847    -0.532 
 O                    -6.149    -2.85     -0.34 
 O                    -4.676     3.938     0.629 
 O                    -0.212     3.097     0.596 
 C                    -2.111     4.875     0.912 
 H                    -1.54      4.931     1.84 
 H                    -1.5       5.299     0.111 
 H                    -3.05      5.414     1.003 
 C                    -4.206    -4.779    -0.625 
 H                    -3.759    -5.126    -1.559 
 H                    -3.775    -5.355     0.196 
 H                    -5.286    -4.897    -0.649 
 C                     0.876     0.482    -0.178 
 C                     1.912     0.185     0.687 
 S                     1.474     1.445    -1.529 
 C                     3.154     0.708     0.278 
 H                     1.775    -0.4       1.582 
 C                     3.114     1.423    -0.923 
 O                     4.34      0.58      0.931 
 C                     4.211     2.035    -1.617 
 C                     4.373    -0.272     2.073 
 C                     4.165     2.767    -2.803 
 S                     5.875     1.953    -1.047 
 H                     5.414    -0.302     2.394 
 H                     3.754     0.129     2.884 
 H                     4.034    -1.284     1.822 
 C                     5.432     3.247    -3.241 
 O                     2.97      2.953    -3.423 
 C                     6.439     2.882    -2.389 
 H                     5.588     3.832    -4.137 
 C                     2.95      3.734    -4.612 
 H                     7.492     3.112    -2.478 
 H                     3.557     3.272    -5.402 
 H                     1.909     3.769    -4.932 
 H                     3.309     4.753    -4.425 
 
 The following ModRedundant input section has been read:
 D       8       9      32      33 F                                           
 D      33      35      38      40 F                                           
 D      46      41      47      50 F                                           
 D      10      18      24      25 F                                           
 D       1      19      28      30 F                                           
 D       9       8      10      23 F                                           
 D      20       1       2       6 F                                           
 

 GradGradGradGradGradGradGradGradGradGradGradGradGradGradGradGradGradGrad
 Berny optimization.
 Initialization pass.
                           ----------------------------
                           !    Initial Parameters    !
                           ! (Angstroms and Degrees)  !
 --------------------------                            --------------------------
 ! Name  Definition              Value          Derivative Info.                !
 --------------------------------------------------------------------------------
 ! R1    R(1,2)                  1.4866         estimate D2E/DX2                !
 ! R2    R(1,19)                 1.4001         estimate D2E/DX2                !
 ! R3    R(1,20)                 1.2232         estimate D2E/DX2                !
 ! R4    R(2,3)                  1.4146         estimate D2E/DX2                !
 ! R5    R(2,6)                  1.372          estimate D2E/DX2                !
 ! R6    R(3,4)                  1.4123         estimate D2E/DX2                !
 ! R7    R(3,7)                  1.4244         estimate D2E/DX2                !
 ! R8    R(4,5)                  1.4872         estimate D2E/DX2                !
 ! R9    R(4,14)                 1.3874         estimate D2E/DX2                !
 ! R10   R(5,19)                 1.4053         estimate D2E/DX2                !
 ! R11   R(5,21)                 1.2218         estimate D2E/DX2                !
 ! R12   R(6,9)                  1.4301         estimate D2E/DX2                !
 ! R13   R(6,17)                 1.0837         estimate D2E/DX2                !
 ! R14   R(7,8)                  1.4314         estimate D2E/DX2                !
 ! R15   R(7,12)                 1.4199         estimate D2E/DX2                !
 ! R16   R(8,9)                  1.4217         estimate D2E/DX2                !
 ! R17   R(8,10)                 1.4882         estimate D2E/DX2                !
 ! R18   R(9,32)                 1.4624         estimate D2E/DX2                !
 ! R19   R(10,18)                1.4088         estimate D2E/DX2                !
 ! R20   R(10,23)                1.2245         estimate D2E/DX2                !
 ! R21   R(11,12)                1.4786         estimate D2E/DX2                !
 ! R22   R(11,18)                1.3962         estimate D2E/DX2                !
 ! R23   R(11,22)                1.2248         estimate D2E/DX2                !
 ! R24   R(12,13)                1.3888         estimate D2E/DX2                !
 ! R25   R(13,14)                1.4            estimate D2E/DX2                !
 ! R26   R(13,16)                1.0844         estimate D2E/DX2                !
 ! R27   R(14,15)                1.0834         estimate D2E/DX2                !
 ! R28   R(18,24)                1.4672         estimate D2E/DX2                !
 ! R29   R(19,28)                1.4672         estimate D2E/DX2                !
 ! R30   R(24,25)                1.091          estimate D2E/DX2                !
 ! R31   R(24,26)                1.093          estimate D2E/DX2                !
 ! R32   R(24,27)                1.0865         estimate D2E/DX2                !
 ! R33   R(28,29)                1.0921         estimate D2E/DX2                !
 ! R34   R(28,30)                1.0916         estimate D2E/DX2                !
 ! R35   R(28,31)                1.0867         estimate D2E/DX2                !
 ! R36   R(32,33)                1.3819         estimate D2E/DX2                !
 ! R37   R(32,34)                1.7636         estimate D2E/DX2                !
 ! R38   R(33,35)                1.4083         estimate D2E/DX2                !
 ! R39   R(33,36)                1.078          estimate D2E/DX2                !
 ! R40   R(34,37)                1.7485         estimate D2E/DX2                !
 ! R41   R(35,37)                1.3983         estimate D2E/DX2                !
 ! R42   R(35,38)                1.3599         estimate D2E/DX2                !
 ! R43   R(37,39)                1.4351         estimate D2E/DX2                !
 ! R44   R(38,40)                1.4252         estimate D2E/DX2                !
 ! R45   R(39,41)                1.3945         estimate D2E/DX2                !
 ! R46   R(39,42)                1.7608         estimate D2E/DX2                !
 ! R47   R(40,43)                1.0898         estimate D2E/DX2                !
 ! R48   R(40,44)                1.0962         estimate D2E/DX2                !
 ! R49   R(40,45)                1.0964         estimate D2E/DX2                !
 ! R50   R(41,46)                1.4239         estimate D2E/DX2                !
 ! R51   R(41,47)                1.3591         estimate D2E/DX2                !
 ! R52   R(42,48)                1.7269         estimate D2E/DX2                !
 ! R53   R(46,48)                1.3686         estimate D2E/DX2                !
 ! R54   R(46,49)                1.0814         estimate D2E/DX2                !
 ! R55   R(47,50)                1.4227         estimate D2E/DX2                !
 ! R56   R(48,51)                1.0815         estimate D2E/DX2                !
 ! R57   R(50,52)                1.0982         estimate D2E/DX2                !
 ! R58   R(50,53)                1.0896         estimate D2E/DX2                !
 ! R59   R(50,54)                1.0965         estimate D2E/DX2                !
 ! A1    A(2,1,19)             116.767          estimate D2E/DX2                !
 ! A2    A(2,1,20)             122.9113         estimate D2E/DX2                !
 ! A3    A(19,1,20)            120.3217         estimate D2E/DX2                !
 ! A4    A(1,2,3)              120.5473         estimate D2E/DX2                !
 ! A5    A(1,2,6)              119.3369         estimate D2E/DX2                !
 ! A6    A(3,2,6)              120.1056         estimate D2E/DX2                !
 ! A7    A(2,3,4)              120.3743         estimate D2E/DX2                !
 ! A8    A(2,3,7)              118.662          estimate D2E/DX2                !
 ! A9    A(4,3,7)              120.9617         estimate D2E/DX2                !
 ! A10   A(3,4,5)              120.4909         estimate D2E/DX2                !
 ! A11   A(3,4,14)             120.2702         estimate D2E/DX2                !
 ! A12   A(5,4,14)             119.2382         estimate D2E/DX2                !
 ! A13   A(4,5,19)             116.7341         estimate D2E/DX2                !
 ! A14   A(4,5,21)             122.024          estimate D2E/DX2                !
 ! A15   A(19,5,21)            121.2418         estimate D2E/DX2                !
 ! A16   A(2,6,9)              123.2421         estimate D2E/DX2                !
 ! A17   A(2,6,17)             117.1119         estimate D2E/DX2                !
 ! A18   A(9,6,17)             119.589          estimate D2E/DX2                !
 ! A19   A(3,7,8)              120.9519         estimate D2E/DX2                !
 ! A20   A(3,7,12)             117.1037         estimate D2E/DX2                !
 ! A21   A(8,7,12)             121.944          estimate D2E/DX2                !
 ! A22   A(7,8,9)              119.5639         estimate D2E/DX2                !
 ! A23   A(7,8,10)             117.3064         estimate D2E/DX2                !
 ! A24   A(9,8,10)             122.9922         estimate D2E/DX2                !
 ! A25   A(6,9,8)              117.3944         estimate D2E/DX2                !
 ! A26   A(6,9,32)             115.0236         estimate D2E/DX2                !
 ! A27   A(8,9,32)             127.5648         estimate D2E/DX2                !
 ! A28   A(8,10,18)            118.042          estimate D2E/DX2                !
 ! A29   A(8,10,23)            124.5436         estimate D2E/DX2                !
 ! A30   A(18,10,23)           117.4097         estimate D2E/DX2                !
 ! A31   A(12,11,18)           115.5202         estimate D2E/DX2                !
 ! A32   A(12,11,22)           122.7205         estimate D2E/DX2                !
 ! A33   A(18,11,22)           121.7534         estimate D2E/DX2                !
 ! A34   A(7,12,11)            120.8614         estimate D2E/DX2                !
 ! A35   A(7,12,13)            121.162          estimate D2E/DX2                !
 ! A36   A(11,12,13)           117.9699         estimate D2E/DX2                !
 ! A37   A(12,13,14)           120.9948         estimate D2E/DX2                !
 ! A38   A(12,13,16)           117.8401         estimate D2E/DX2                !
 ! A39   A(14,13,16)           121.1642         estimate D2E/DX2                !
 ! A40   A(4,14,13)            119.5003         estimate D2E/DX2                !
 ! A41   A(4,14,15)            118.9169         estimate D2E/DX2                !
 ! A42   A(13,14,15)           121.5811         estimate D2E/DX2                !
 ! A43   A(10,18,11)           126.0753         estimate D2E/DX2                !
 ! A44   A(10,18,24)           115.7508         estimate D2E/DX2                !
 ! A45   A(11,18,24)           118.1737         estimate D2E/DX2                !
 ! A46   A(1,19,5)             125.0856         estimate D2E/DX2                !
 ! A47   A(1,19,28)            116.2868         estimate D2E/DX2                !
 ! A48   A(5,19,28)            118.6276         estimate D2E/DX2                !
 ! A49   A(18,24,25)           109.8574         estimate D2E/DX2                !
 ! A50   A(18,24,26)           109.8979         estimate D2E/DX2                !
 ! A51   A(18,24,27)           107.5355         estimate D2E/DX2                !
 ! A52   A(25,24,26)           108.1108         estimate D2E/DX2                !
 ! A53   A(25,24,27)           110.8301         estimate D2E/DX2                !
 ! A54   A(26,24,27)           110.6124         estimate D2E/DX2                !
 ! A55   A(19,28,29)           109.6906         estimate D2E/DX2                !
 ! A56   A(19,28,30)           109.8136         estimate D2E/DX2                !
 ! A57   A(19,28,31)           107.7461         estimate D2E/DX2                !
 ! A58   A(29,28,30)           108.2991         estimate D2E/DX2                !
 ! A59   A(29,28,31)           110.6959         estimate D2E/DX2                !
 ! A60   A(30,28,31)           110.5924         estimate D2E/DX2                !
 ! A61   A(9,32,33)            130.8841         estimate D2E/DX2                !
 ! A62   A(9,32,34)            118.8201         estimate D2E/DX2                !
 ! A63   A(33,32,34)           110.0388         estimate D2E/DX2                !
 ! A64   A(32,33,35)           113.5497         estimate D2E/DX2                !
 ! A65   A(32,33,36)           122.755          estimate D2E/DX2                !
 ! A66   A(35,33,36)           123.6927         estimate D2E/DX2                !
 ! A67   A(32,34,37)            92.6176         estimate D2E/DX2                !
 ! A68   A(33,35,37)           114.4629         estimate D2E/DX2                !
 ! A69   A(33,35,38)           126.4918         estimate D2E/DX2                !
 ! A70   A(37,35,38)           119.0452         estimate D2E/DX2                !
 ! A71   A(34,37,35)           109.326          estimate D2E/DX2                !
 ! A72   A(34,37,39)           122.9555         estimate D2E/DX2                !
 ! A73   A(35,37,39)           127.7009         estimate D2E/DX2                !
 ! A74   A(35,38,40)           117.4662         estimate D2E/DX2                !
 ! A75   A(37,39,41)           127.5842         estimate D2E/DX2                !
 ! A76   A(37,39,42)           123.0902         estimate D2E/DX2                !
 ! A77   A(41,39,42)           109.3256         estimate D2E/DX2                !
 ! A78   A(38,40,43)           105.9383         estimate D2E/DX2                !
 ! A79   A(38,40,44)           111.1652         estimate D2E/DX2                !
 ! A80   A(38,40,45)           111.1739         estimate D2E/DX2                !
 ! A81   A(43,40,44)           109.3628         estimate D2E/DX2                !
 ! A82   A(43,40,45)           109.7174         estimate D2E/DX2                !
 ! A83   A(44,40,45)           109.416          estimate D2E/DX2                !
 ! A84   A(39,41,46)           114.1558         estimate D2E/DX2                !
 ! A85   A(39,41,47)           119.2649         estimate D2E/DX2                !
 ! A86   A(46,41,47)           126.5789         estimate D2E/DX2                !
 ! A87   A(39,42,48)            91.8352         estimate D2E/DX2                !
 ! A88   A(41,46,48)           111.9191         estimate D2E/DX2                !
 ! A89   A(41,46,49)           124.4438         estimate D2E/DX2                !
 ! A90   A(48,46,49)           123.637          estimate D2E/DX2                !
 ! A91   A(41,47,50)           117.9534         estimate D2E/DX2                !
 ! A92   A(42,48,46)           112.7642         estimate D2E/DX2                !
 ! A93   A(42,48,51)           119.7593         estimate D2E/DX2                !
 ! A94   A(46,48,51)           127.4765         estimate D2E/DX2                !
 ! A95   A(47,50,52)           111.2532         estimate D2E/DX2                !
 ! A96   A(47,50,53)           106.0513         estimate D2E/DX2                !
 ! A97   A(47,50,54)           111.287          estimate D2E/DX2                !
 ! A98   A(52,50,53)           109.2878         estimate D2E/DX2                !
 ! A99   A(52,50,54)           109.4323         estimate D2E/DX2                !
 ! A100  A(53,50,54)           109.4534         estimate D2E/DX2                !
 ! D1    D(19,1,2,3)             0.1578         estimate D2E/DX2                !
 ! D2    D(19,1,2,6)          -178.6792         estimate D2E/DX2                !
 ! D3    D(20,1,2,3)          -179.8231         estimate D2E/DX2                !
 ! D4    D(20,1,2,6)             1.3399         Frozen                          !
 ! D5    D(2,1,19,5)            -0.124          estimate D2E/DX2                !
 ! D6    D(2,1,19,28)          179.8267         estimate D2E/DX2                !
 ! D7    D(20,1,19,5)          179.8575         estimate D2E/DX2                !
 ! D8    D(20,1,19,28)          -0.1919         estimate D2E/DX2                !
 ! D9    D(1,2,3,4)              0.0571         estimate D2E/DX2                !
 ! D10   D(1,2,3,7)            179.5453         estimate D2E/DX2                !
 ! D11   D(6,2,3,4)            178.8851         estimate D2E/DX2                !
 ! D12   D(6,2,3,7)             -1.6266         estimate D2E/DX2                !
 ! D13   D(1,2,6,9)            178.625          estimate D2E/DX2                !
 ! D14   D(1,2,6,17)             1.3881         estimate D2E/DX2                !
 ! D15   D(3,2,6,9)             -0.2173         estimate D2E/DX2                !
 ! D16   D(3,2,6,17)          -177.4541         estimate D2E/DX2                !
 ! D17   D(2,3,4,5)             -0.3074         estimate D2E/DX2                !
 ! D18   D(2,3,4,14)           179.3968         estimate D2E/DX2                !
 ! D19   D(7,3,4,5)           -179.7837         estimate D2E/DX2                !
 ! D20   D(7,3,4,14)            -0.0795         estimate D2E/DX2                !
 ! D21   D(2,3,7,8)              1.0523         estimate D2E/DX2                !
 ! D22   D(2,3,7,12)          -178.712          estimate D2E/DX2                !
 ! D23   D(4,3,7,8)           -179.4626         estimate D2E/DX2                !
 ! D24   D(4,3,7,12)             0.7731         estimate D2E/DX2                !
 ! D25   D(3,4,5,19)             0.3343         estimate D2E/DX2                !
 ! D26   D(3,4,5,21)          -179.7799         estimate D2E/DX2                !
 ! D27   D(14,4,5,19)         -179.3729         estimate D2E/DX2                !
 ! D28   D(14,4,5,21)            0.5129         estimate D2E/DX2                !
 ! D29   D(3,4,14,13)           -0.4559         estimate D2E/DX2                !
 ! D30   D(3,4,14,15)         -179.9937         estimate D2E/DX2                !
 ! D31   D(5,4,14,13)          179.252          estimate D2E/DX2                !
 ! D32   D(5,4,14,15)           -0.2858         estimate D2E/DX2                !
 ! D33   D(4,5,19,1)            -0.1141         estimate D2E/DX2                !
 ! D34   D(4,5,19,28)          179.9364         estimate D2E/DX2                !
 ! D35   D(21,5,19,1)          179.9992         estimate D2E/DX2                !
 ! D36   D(21,5,19,28)           0.0496         estimate D2E/DX2                !
 ! D37   D(2,6,9,8)              2.5984         estimate D2E/DX2                !
 ! D38   D(2,6,9,32)          -176.0103         estimate D2E/DX2                !
 ! D39   D(17,6,9,8)           179.77           estimate D2E/DX2                !
 ! D40   D(17,6,9,32)            1.1613         estimate D2E/DX2                !
 ! D41   D(3,7,8,9)              1.3551         estimate D2E/DX2                !
 ! D42   D(3,7,8,10)          -174.5099         estimate D2E/DX2                !
 ! D43   D(12,7,8,9)          -178.8921         estimate D2E/DX2                !
 ! D44   D(12,7,8,10)            5.2428         estimate D2E/DX2                !
 ! D45   D(3,7,12,11)          178.0768         estimate D2E/DX2                !
 ! D46   D(3,7,12,13)           -0.9621         estimate D2E/DX2                !
 ! D47   D(8,7,12,11)           -1.685          estimate D2E/DX2                !
 ! D48   D(8,7,12,13)          179.2761         estimate D2E/DX2                !
 ! D49   D(7,8,9,6)             -3.0809         estimate D2E/DX2                !
 ! D50   D(7,8,9,32)           175.3285         estimate D2E/DX2                !
 ! D51   D(10,8,9,6)           172.5381         estimate D2E/DX2                !
 ! D52   D(10,8,9,32)           -9.0525         estimate D2E/DX2                !
 ! D53   D(7,8,10,18)           -4.7549         estimate D2E/DX2                !
 ! D54   D(7,8,10,23)          174.4235         estimate D2E/DX2                !
 ! D55   D(9,8,10,18)          179.5335         estimate D2E/DX2                !
 ! D56   D(9,8,10,23)           -1.2882         Frozen                          !
 ! D57   D(6,9,32,33)          -71.5673         estimate D2E/DX2                !
 ! D58   D(6,9,32,34)          114.8965         estimate D2E/DX2                !
 ! D59   D(8,9,32,33)          109.9911         Frozen                          !
 ! D60   D(8,9,32,34)          -63.545          estimate D2E/DX2                !
 ! D61   D(8,10,18,11)           0.7189         estimate D2E/DX2                !
 ! D62   D(8,10,18,24)        -179.4089         estimate D2E/DX2                !
 ! D63   D(23,10,18,11)       -178.5188         estimate D2E/DX2                !
 ! D64   D(23,10,18,24)          1.3535         estimate D2E/DX2                !
 ! D65   D(18,11,12,7)          -2.3856         estimate D2E/DX2                !
 ! D66   D(18,11,12,13)        176.6833         estimate D2E/DX2                !
 ! D67   D(22,11,12,7)         178.4862         estimate D2E/DX2                !
 ! D68   D(22,11,12,13)         -2.445          estimate D2E/DX2                !
 ! D69   D(12,11,18,10)          2.8444         estimate D2E/DX2                !
 ! D70   D(12,11,18,24)       -177.0251         estimate D2E/DX2                !
 ! D71   D(22,11,18,10)       -178.0181         estimate D2E/DX2                !
 ! D72   D(22,11,18,24)          2.1124         estimate D2E/DX2                !
 ! D73   D(7,12,13,14)           0.461          estimate D2E/DX2                !
 ! D74   D(7,12,13,16)        -179.8781         estimate D2E/DX2                !
 ! D75   D(11,12,13,14)       -178.6049         estimate D2E/DX2                !
 ! D76   D(11,12,13,16)          1.056          estimate D2E/DX2                !
 ! D77   D(12,13,14,4)           0.2708         estimate D2E/DX2                !
 ! D78   D(12,13,14,15)        179.7958         estimate D2E/DX2                !
 ! D79   D(16,13,14,4)        -179.3788         estimate D2E/DX2                !
 ! D80   D(16,13,14,15)          0.1463         estimate D2E/DX2                !
 ! D81   D(10,18,24,25)        -59.609          Frozen                          !
 ! D82   D(10,18,24,26)         59.2209         estimate D2E/DX2                !
 ! D83   D(10,18,24,27)        179.6858         estimate D2E/DX2                !
 ! D84   D(11,18,24,25)        120.2739         estimate D2E/DX2                !
 ! D85   D(11,18,24,26)       -120.8962         estimate D2E/DX2                !
 ! D86   D(11,18,24,27)         -0.4313         estimate D2E/DX2                !
 ! D87   D(1,19,28,29)         -58.1407         estimate D2E/DX2                !
 ! D88   D(1,19,28,30)          60.7668         Frozen                          !
 ! D89   D(1,19,28,31)        -178.7139         estimate D2E/DX2                !
 ! D90   D(5,19,28,29)         121.8132         estimate D2E/DX2                !
 ! D91   D(5,19,28,30)        -119.2792         estimate D2E/DX2                !
 ! D92   D(5,19,28,31)           1.2401         estimate D2E/DX2                !
 ! D93   D(9,32,33,35)        -174.2522         estimate D2E/DX2                !
 ! D94   D(9,32,33,36)           6.3127         estimate D2E/DX2                !
 ! D95   D(34,32,33,35)         -0.2787         estimate D2E/DX2                !
 ! D96   D(34,32,33,36)       -179.7137         estimate D2E/DX2                !
 ! D97   D(9,32,34,37)         175.3469         estimate D2E/DX2                !
 ! D98   D(33,32,34,37)          0.5447         estimate D2E/DX2                !
 ! D99   D(32,33,35,37)         -0.2374         estimate D2E/DX2                !
 ! D100  D(32,33,35,38)        179.6926         estimate D2E/DX2                !
 ! D101  D(36,33,35,37)        179.1916         estimate D2E/DX2                !
 ! D102  D(36,33,35,38)         -0.8784         estimate D2E/DX2                !
 ! D103  D(32,34,37,35)         -0.6642         estimate D2E/DX2                !
 ! D104  D(32,34,37,39)        177.9143         estimate D2E/DX2                !
 ! D105  D(33,35,37,34)          0.637          estimate D2E/DX2                !
 ! D106  D(33,35,37,39)       -177.8554         estimate D2E/DX2                !
 ! D107  D(38,35,37,34)       -179.2986         estimate D2E/DX2                !
 ! D108  D(38,35,37,39)          2.2089         estimate D2E/DX2                !
 ! D109  D(33,35,38,40)          6.6037         Frozen                          !
 ! D110  D(37,35,38,40)       -173.4692         estimate D2E/DX2                !
 ! D111  D(34,37,39,41)          2.8853         estimate D2E/DX2                !
 ! D112  D(34,37,39,42)       -177.1636         estimate D2E/DX2                !
 ! D113  D(35,37,39,41)       -178.8101         estimate D2E/DX2                !
 ! D114  D(35,37,39,42)          1.141          estimate D2E/DX2                !
 ! D115  D(35,38,40,43)        175.4173         estimate D2E/DX2                !
 ! D116  D(35,38,40,44)        -65.8767         estimate D2E/DX2                !
 ! D117  D(35,38,40,45)         56.2809         estimate D2E/DX2                !
 ! D118  D(37,39,41,46)       -179.9943         estimate D2E/DX2                !
 ! D119  D(37,39,41,47)         -0.2159         estimate D2E/DX2                !
 ! D120  D(42,39,41,46)          0.0491         estimate D2E/DX2                !
 ! D121  D(42,39,41,47)        179.8275         estimate D2E/DX2                !
 ! D122  D(37,39,42,48)       -179.9733         estimate D2E/DX2                !
 ! D123  D(41,39,42,48)         -0.0144         estimate D2E/DX2                !
 ! D124  D(39,41,46,48)         -0.0688         estimate D2E/DX2                !
 ! D125  D(39,41,46,49)       -179.9547         estimate D2E/DX2                !
 ! D126  D(47,41,46,48)       -179.8281         estimate D2E/DX2                !
 ! D127  D(47,41,46,49)          0.2861         estimate D2E/DX2                !
 ! D128  D(39,41,47,50)        178.3621         estimate D2E/DX2                !
 ! D129  D(46,41,47,50)         -1.8897         Frozen                          !
 ! D130  D(39,42,48,46)         -0.0244         estimate D2E/DX2                !
 ! D131  D(39,42,48,51)        179.917          estimate D2E/DX2                !
 ! D132  D(41,46,48,42)          0.0561         estimate D2E/DX2                !
 ! D133  D(41,46,48,51)       -179.8797         estimate D2E/DX2                !
 ! D134  D(49,46,48,42)        179.943          estimate D2E/DX2                !
 ! D135  D(49,46,48,51)          0.0072         estimate D2E/DX2                !
 ! D136  D(41,47,50,52)         62.0917         estimate D2E/DX2                !
 ! D137  D(41,47,50,53)       -179.1772         estimate D2E/DX2                !
 ! D138  D(41,47,50,54)        -60.2285         estimate D2E/DX2                !
 --------------------------------------------------------------------------------
 Trust Radius=3.00D-01 FncErr=1.00D-07 GrdErr=1.00D-06 EigMax=2.50D+02 EigMin=1.00D-04
 Number of steps in this run=    307 maximum allowed number of steps=    324.
 GradGradGradGradGradGradGradGradGradGradGradGradGradGradGradGradGradGrad

 Stoichiometry    C26H18N2O6S2
 Framework group  C1[X(C26H18N2O6S2)]
 Deg. of freedom   156
 Full point group                 C1      NOp   1
 Largest Abelian subgroup         C1      NOp   1
 Largest concise Abelian subgroup C1      NOp   1
                         Standard orientation:                         
 ---------------------------------------------------------------------
 Center     Atomic      Atomic             Coordinates (Angstroms)
 Number     Number       Type             X           Y           Z
 ---------------------------------------------------------------------
      1          6           0        3.536094   -2.717671    0.400302
      2          6           0        2.783551   -1.467087    0.117762
      3          6           0        3.443623   -0.215989    0.114419
      4          6           0        4.828856   -0.138677    0.378746
      5          6           0        5.611220   -1.369342    0.670772
      6          6           0        1.433459   -1.533504   -0.117146
      7          6           0        2.685560    0.955634   -0.170932
      8          6           0        1.279476    0.878366   -0.427566
      9          6           0        0.623955   -0.381782   -0.368931
     10          6           0        0.590751    2.131712   -0.839372
     11          6           0        2.689786    3.452231   -0.521999
     12          6           0        3.386564    2.190222   -0.193223
     13          6           0        4.748420    2.248286    0.072843
     14          6           0        5.476487    1.088138    0.362615
     15          1           0        6.539674    1.122037    0.568366
     16          1           0        5.229242    3.219803    0.043166
     17          1           0        0.970002   -2.511493   -0.061420
     18          7           0        1.338797    3.325428   -0.850777
     19          7           0        4.905406   -2.584531    0.660283
     20          8           0        3.009975   -3.821864    0.411162
     21          8           0        6.809456   -1.334496    0.907084
     22          8           0        3.254609    4.539033   -0.524820
     23          8           0       -0.582147    2.198177   -1.184639
     24          6           0        0.607140    4.532370   -1.251559
     25          1           0        0.212334    4.408331   -2.261066
     26          1           0       -0.235328    4.698450   -0.575274
     27          1           0        1.302444    5.366163   -1.208366
     28          6           0        5.636952   -3.824789    0.941612
     29          1           0        5.191441   -4.327534    1.802624
     30          1           0        5.573011   -4.495090    0.082435
     31          1           0        6.671400   -3.560533    1.144063
     32          6           0       -0.807261   -0.649486   -0.505532
     33          6           0       -1.519482   -1.267539   -1.515720
     34         16           0       -1.914641    0.013322    0.696370
     35          6           0       -2.914857   -1.218735   -1.331541
     36          1           0       -1.043588   -1.747078   -2.355712
     37          6           0       -3.322454   -0.563056   -0.165704
     38          8           0       -3.858919   -1.735538   -2.162834
     39          6           0       -4.661434   -0.387168    0.319873
     40          6           0       -3.407028   -2.518596   -3.264548
     41          6           0       -5.066926    0.286887    1.471291
     42         16           0       -6.076509   -1.028980   -0.508473
     43          1           0       -4.305513   -2.900992   -3.748407
     44          1           0       -2.841523   -1.908355   -3.978336
     45          1           0       -2.784223   -3.355277   -2.926696
     46          6           0       -6.475233    0.286009    1.681536
     47          8           0       -4.129253    0.861966    2.269461
     48          6           0       -7.139227   -0.386010    0.691243
     49          1           0       -6.968839    0.758919    2.519442
     50          6           0       -4.576235    1.572841    3.417914
     51          1           0       -8.206069   -0.538572    0.600673
     52          1           0       -5.106072    0.910091    4.115071
     53          1           0       -3.679320    1.959947    3.900612
     54          1           0       -5.230420    2.407617    3.139701
 ---------------------------------------------------------------------
 Rotational constants (GHZ):           0.1642650           0.0550191           0.0473021
 Standard basis: 6-311+G(d,p) (5D, 7F)
 There are   952 symmetry adapted cartesian basis functions of A   symmetry.
 There are   916 symmetry adapted basis functions of A   symmetry.
   916 basis functions,  1468 primitive gaussians,   952 cartesian basis functions
   134 alpha electrons      134 beta electrons
       nuclear repulsion energy      4092.6942091775 Hartrees.
 NAtoms=   54 NActive=   54 NUniq=   54 SFac= 1.00D+00 NAtFMM=   60 NAOKFM=F Big=F
 Integral buffers will be    131072 words long.
 Raffenetti 2 integral format.
 Two-electron integral symmetry is turned on.
 One-electron integrals computed using PRISM.
 NBasis=   916 RedAO= T EigKep=  1.00D-06  NBF=   916
 NBsUse=   902 1.00D-06 EigRej=  6.79D-07 NBFU=   902
 ExpMin= 4.05D-02 ExpMax= 9.34D+04 ExpMxC= 3.17D+03 IAcc=3 IRadAn=         5 AccDes= 0.00D+00
 Harris functional with IExCor=  402 and IRadAn=       5 diagonalized for initial guess.
 HarFok:  IExCor=  402 AccDes= 0.00D+00 IRadAn=         5 IDoV= 1 UseB2=F ITyADJ=14
 ICtDFT=  3500011 ScaDFX=  1.000000  1.000000  1.000000  1.000000
 FoFCou: FMM=F IPFlag=           0 FMFlag=      100000 FMFlg1=           0
         NFxFlg=           0 DoJE=T BraDBF=F KetDBF=T FulRan=T
         wScrn=  0.000000 ICntrl=       500 IOpCl=  0 I1Cent=   200000004 NGrid=           0
         NMat0=    1 NMatS0=      1 NMatT0=    0 NMatD0=    1 NMtDS0=    0 NMtDT0=    0
 Petite list used in FoFCou.
 Requested convergence on RMS density matrix=1.00D-08 within 128 cycles.
 Requested convergence on MAX density matrix=1.00D-06.
 Requested convergence on             energy=1.00D-06.
 No special actions if energy rises.
 SCF Done:  E(RB3LYP) =  -2359.33167020     A.U. after   19 cycles
            NFock= 19  Conv=0.20D-08     -V/T= 2.0032

 **********************************************************************

            Population analysis using the SCF Density.

 **********************************************************************

 Orbital symmetries:
       Occupied  (A) (A) (A) (A) (A) (A) (A) (A) (A) (A) (A) (A)
                 (A) (A) (A) (A) (A) (A) (A) (A) (A) (A) (A) (A)
                 (A) (A) (A) (A) (A) (A) (A) (A) (A) (A) (A) (A)
                 (A) (A) (A) (A) (A) (A) (A) (A) (A) (A) (A) (A)
                 (A) (A) (A) (A) (A) (A) (A) (A) (A) (A) (A) (A)
                 (A) (A) (A) (A) (A) (A) (A) (A) (A) (A) (A) (A)
                 (A) (A) (A) (A) (A) (A) (A) (A) (A) (A) (A) (A)
                 (A) (A) (A) (A) (A) (A) (A) (A) (A) (A) (A) (A)
                 (A) (A) (A) (A) (A) (A) (A) (A) (A) (A) (A) (A)
                 (A) (A) (A) (A) (A) (A) (A) (A) (A) (A) (A) (A)
                 (A) (A) (A) (A) (A) (A) (A) (A) (A) (A) (A) (A)
                 (A) (A)
       Virtual   (A) (A) (A) (A) (A) (A) (A) (A) (A) (A) (A) (A)
                 (A) (A) (A) (A) (A) (A) (A) (A) (A) (A) (A) (A)
                 (A) (A) (A) (A) (A) (A) (A) (A) (A) (A) (A) (A)
                 (A) (A) (A) (A) (A) (A) (A) (A) (A) (A) (A) (A)
                 (A) (A) (A) (A) (A) (A) (A) (A) (A) (A) (A) (A)
                 (A) (A) (A) (A) (A) (A) (A) (A) (A) (A) (A) (A)
                 (A) (A) (A) (A) (A) (A) (A) (A) (A) (A) (A) (A)
                 (A) (A) (A) (A) (A) (A) (A) (A) (A) (A) (A) (A)
                 (A) (A) (A) (A) (A) (A) (A) (A) (A) (A) (A) (A)
                 (A) (A) (A) (A) (A) (A) (A) (A) (A) (A) (A) (A)
                 (A) (A) (A) (A) (A) (A) (A) (A) (A) (A) (A) (A)
                 (A) (A) (A) (A) (A) (A) (A) (A) (A) (A) (A) (A)
                 (A) (A) (A) (A) (A) (A) (A) (A) (A) (A) (A) (A)
                 (A) (A) (A) (A) (A) (A) (A) (A) (A) (A) (A) (A)
                 (A) (A) (A) (A) (A) (A) (A) (A) (A) (A) (A) (A)
                 (A) (A) (A) (A) (A) (A) (A) (A) (A) (A) (A) (A)
                 (A) (A) (A) (A) (A) (A) (A) (A) (A) (A) (A) (A)
                 (A) (A) (A) (A) (A) (A) (A) (A) (A) (A) (A) (A)
                 (A) (A) (A) (A) (A) (A) (A) (A) (A) (A) (A) (A)
                 (A) (A) (A) (A) (A) (A) (A) (A) (A) (A) (A) (A)
                 (A) (A) (A) (A) (A) (A) (A) (A) (A) (A) (A) (A)
                 (A) (A) (A) (A) (A) (A) (A) (A) (A) (A) (A) (A)
                 (A) (A) (A) (A) (A) (A) (A) (A) (A) (A) (A) (A)
                 (A) (A) (A) (A) (A) (A) (A) (A) (A) (A) (A) (A)
                 (A) (A) (A) (A) (A) (A) (A) (A) (A) (A) (A) (A)
                 (A) (A) (A) (A) (A) (A) (A) (A) (A) (A) (A) (A)
                 (A) (A) (A) (A) (A) (A) (A) (A) (A) (A) (A) (A)
                 (A) (A) (A) (A) (A) (A) (A) (A) (A) (A) (A) (A)
                 (A) (A) (A) (A) (A) (A) (A) (A) (A) (A) (A) (A)
                 (A) (A) (A) (A) (A) (A) (A) (A) (A) (A) (A) (A)
                 (A) (A) (A) (A) (A) (A) (A) (A) (A) (A) (A) (A)
                 (A) (A) (A) (A) (A) (A) (A) (A) (A) (A) (A) (A)
                 (A) (A) (A) (A) (A) (A) (A) (A) (A) (A) (A) (A)
                 (A) (A) (A) (A) (A) (A) (A) (A) (A) (A) (A) (A)
                 (A) (A) (A) (A) (A) (A) (A) (A) (A) (A) (A) (A)
                 (A) (A) (A) (A) (A) (A) (A) (A) (A) (A) (A) (A)
                 (A) (A) (A) (A) (A) (A) (A) (A) (A) (A) (A) (A)
                 (A) (A) (A) (A) (A) (A) (A) (A) (A) (A) (A) (A)
                 (A) (A) (A) (A) (A) (A) (A) (A) (A) (A) (A) (A)
                 (A) (A) (A) (A) (A) (A) (A) (A) (A) (A) (A) (A)
                 (A) (A) (A) (A) (A) (A) (A) (A) (A) (A) (A) (A)
                 (A) (A) (A) (A) (A) (A) (A) (A) (A) (A) (A) (A)
                 (A) (A) (A) (A) (A) (A) (A) (A) (A) (A) (A) (A)
                 (A) (A) (A) (A) (A) (A) (A) (A) (A) (A) (A) (A)
                 (A) (A) (A) (A) (A) (A) (A) (A) (A) (A) (A) (A)
                 (A) (A) (A) (A) (A) (A) (A) (A) (A) (A) (A) (A)
                 (A) (A) (A) (A) (A) (A) (A) (A) (A) (A) (A) (A)
                 (A) (A) (A) (A) (A) (A) (A) (A) (A) (A) (A) (A)
                 (A) (A) (A) (A) (A) (A) (A) (A) (A) (A) (A) (A)
                 (A) (A) (A) (A) (A) (A) (A) (A) (A) (A) (A) (A)
                 (A) (A) (A) (A) (A) (A) (A) (A) (A) (A) (A) (A)
                 (A) (A) (A) (A) (A) (A) (A) (A) (A) (A) (A) (A)
                 (A) (A) (A) (A) (A) (A) (A) (A) (A) (A) (A) (A)
                 (A) (A) (A) (A) (A) (A) (A) (A) (A) (A) (A) (A)
                 (A) (A) (A) (A) (A) (A) (A) (A) (A) (A) (A) (A)
                 (A) (A) (A) (A) (A) (A) (A) (A) (A) (A) (A) (A)
                 (A) (A) (A) (A) (A) (A) (A) (A) (A) (A) (A) (A)
                 (A) (A) (A) (A) (A) (A) (A) (A) (A) (A) (A) (A)
                 (A) (A) (A) (A) (A) (A) (A) (A) (A) (A) (A) (A)
                 (A) (A) (A) (A) (A) (A) (A) (A) (A) (A) (A) (A)
                 (A) (A) (A) (A) (A) (A) (A) (A) (A) (A) (A) (A)
                 (A) (A) (A) (A) (A) (A) (A) (A) (A) (A) (A) (A)
                 (A) (A) (A) (A) (A) (A) (A) (A) (A) (A) (A) (A)
                 (A) (A) (A) (A) (A) (A) (A) (A) (A) (A) (A) (A)
 The electronic state is 1-A.
 Alpha  occ. eigenvalues --  -88.87956 -88.87810 -19.16788 -19.16663 -19.12663
 Alpha  occ. eigenvalues --  -19.12616 -19.12008 -19.11836 -14.38889 -14.38268
 Alpha  occ. eigenvalues --  -10.31340 -10.31147 -10.30758 -10.30628 -10.24307
 Alpha  occ. eigenvalues --  -10.24173 -10.24164 -10.23681 -10.23585 -10.23466
 Alpha  occ. eigenvalues --  -10.23371 -10.23022 -10.22656 -10.22535 -10.22484
 Alpha  occ. eigenvalues --  -10.21917 -10.21679 -10.21630 -10.21563 -10.21469
 Alpha  occ. eigenvalues --  -10.21279 -10.21187 -10.20620 -10.20541 -10.18991
 Alpha  occ. eigenvalues --  -10.18591  -7.96501  -7.96342  -5.92811  -5.92667
 Alpha  occ. eigenvalues --   -5.92424  -5.92275  -5.92070  -5.91883  -1.08653
 Alpha  occ. eigenvalues --   -1.08359  -1.08203  -1.08063  -1.06768  -1.06078
 Alpha  occ. eigenvalues --   -0.96436  -0.95714  -0.92604  -0.89844  -0.88365
 Alpha  occ. eigenvalues --   -0.86671  -0.84504  -0.80470  -0.78693  -0.77440
 Alpha  occ. eigenvalues --   -0.76111  -0.75343  -0.74924  -0.72968  -0.72549
 Alpha  occ. eigenvalues --   -0.71825  -0.70177  -0.68792  -0.67252  -0.66025
 Alpha  occ. eigenvalues --   -0.65565  -0.64891  -0.60870  -0.59737  -0.58670
 Alpha  occ. eigenvalues --   -0.57549  -0.56735  -0.56022  -0.55219  -0.54514
 Alpha  occ. eigenvalues --   -0.53812  -0.51831  -0.50323  -0.49954  -0.49768
 Alpha  occ. eigenvalues --   -0.49432  -0.48818  -0.48612  -0.48453  -0.48185
 Alpha  occ. eigenvalues --   -0.47909  -0.47370  -0.46663  -0.46373  -0.45723
 Alpha  occ. eigenvalues --   -0.45337  -0.44981  -0.44640  -0.44423  -0.44043
 Alpha  occ. eigenvalues --   -0.42787  -0.42409  -0.42257  -0.41944  -0.41718
 Alpha  occ. eigenvalues --   -0.41295  -0.41233  -0.41126  -0.40539  -0.39888
 Alpha  occ. eigenvalues --   -0.39458  -0.38976  -0.38299  -0.37800  -0.37376
 Alpha  occ. eigenvalues --   -0.36174  -0.35547  -0.34002  -0.33648  -0.33392
 Alpha  occ. eigenvalues --   -0.33157  -0.32312  -0.31086  -0.30166  -0.29825
 Alpha  occ. eigenvalues --   -0.29280  -0.28971  -0.28657  -0.28179  -0.27505
 Alpha  occ. eigenvalues --   -0.26379  -0.24608  -0.24067  -0.18985
 Alpha virt. eigenvalues --   -0.13449  -0.07247  -0.06389  -0.05015  -0.04453
 Alpha virt. eigenvalues --   -0.00957  -0.00469  -0.00268   0.00053   0.00547
 Alpha virt. eigenvalues --    0.00655   0.00917   0.01033   0.01229   0.01832
 Alpha virt. eigenvalues --    0.02038   0.02172   0.02502   0.02904   0.03033
 Alpha virt. eigenvalues --    0.03514   0.03727   0.03809   0.04119   0.04628
 Alpha virt. eigenvalues --    0.04797   0.05062   0.05075   0.05457   0.05694
 Alpha virt. eigenvalues --    0.05878   0.06221   0.06292   0.06716   0.06921
 Alpha virt. eigenvalues --    0.07184   0.07385   0.07657   0.07772   0.08049
 Alpha virt. eigenvalues --    0.08640   0.08726   0.08941   0.09145   0.09341
 Alpha virt. eigenvalues --    0.09553   0.09622   0.09885   0.10006   0.10651
 Alpha virt. eigenvalues --    0.10840   0.11218   0.11396   0.11755   0.11953
 Alpha virt. eigenvalues --    0.12084   0.12604   0.13030   0.13152   0.13284
 Alpha virt. eigenvalues --    0.13580   0.13617   0.13896   0.14130   0.14278
 Alpha virt. eigenvalues --    0.14470   0.14696   0.14801   0.15065   0.15137
 Alpha virt. eigenvalues --    0.15392   0.15733   0.15849   0.16056   0.16276
 Alpha virt. eigenvalues --    0.16459   0.16822   0.16911   0.17350   0.17469
 Alpha virt. eigenvalues --    0.17722   0.18089   0.18336   0.18474   0.18718
 Alpha virt. eigenvalues --    0.18796   0.18930   0.19110   0.19328   0.19578
 Alpha virt. eigenvalues --    0.19652   0.19926   0.20165   0.20349   0.20429
 Alpha virt. eigenvalues --    0.20542   0.20622   0.20801   0.20987   0.21268
 Alpha virt. eigenvalues --    0.21514   0.21785   0.21842   0.21886   0.22342
 Alpha virt. eigenvalues --    0.22530   0.22626   0.22813   0.22913   0.23164
 Alpha virt. eigenvalues --    0.23262   0.23523   0.23675   0.23861   0.24323
 Alpha virt. eigenvalues --    0.24432   0.24800   0.24884   0.25017   0.25355
 Alpha virt. eigenvalues --    0.25443   0.25576   0.25865   0.25984   0.26214
 Alpha virt. eigenvalues --    0.26238   0.26672   0.26936   0.26961   0.27166
 Alpha virt. eigenvalues --    0.27391   0.27751   0.27834   0.28143   0.28204
 Alpha virt. eigenvalues --    0.28361   0.28484   0.28728   0.29128   0.29167
 Alpha virt. eigenvalues --    0.29659   0.29729   0.29906   0.30157   0.30506
 Alpha virt. eigenvalues --    0.30741   0.30803   0.31113   0.31366   0.31536
 Alpha virt. eigenvalues --    0.31742   0.32231   0.32595   0.32988   0.33058
 Alpha virt. eigenvalues --    0.33170   0.33294   0.33800   0.34135   0.34254
 Alpha virt. eigenvalues --    0.34601   0.34628   0.34940   0.35596   0.36005
 Alpha virt. eigenvalues --    0.36207   0.36285   0.36719   0.36793   0.37593
 Alpha virt. eigenvalues --    0.37941   0.38357   0.38604   0.38932   0.39122
 Alpha virt. eigenvalues --    0.39837   0.40304   0.40560   0.40955   0.41227
 Alpha virt. eigenvalues --    0.42039   0.42277   0.42688   0.42970   0.43466
 Alpha virt. eigenvalues --    0.43855   0.44411   0.44718   0.44849   0.45206
 Alpha virt. eigenvalues --    0.45448   0.45790   0.46199   0.46403   0.46800
 Alpha virt. eigenvalues --    0.47039   0.47239   0.47998   0.48723   0.48916
 Alpha virt. eigenvalues --    0.49335   0.49518   0.49832   0.50467   0.50582
 Alpha virt. eigenvalues --    0.51215   0.52282   0.52325   0.52985   0.53564
 Alpha virt. eigenvalues --    0.53716   0.54460   0.54573   0.55310   0.55466
 Alpha virt. eigenvalues --    0.55793   0.56322   0.56486   0.56734   0.57198
 Alpha virt. eigenvalues --    0.57345   0.57427   0.58209   0.58894   0.59355
 Alpha virt. eigenvalues --    0.59543   0.60370   0.60513   0.60867   0.60989
 Alpha virt. eigenvalues --    0.61624   0.62153   0.62212   0.62451   0.62776
 Alpha virt. eigenvalues --    0.63605   0.63828   0.64064   0.64433   0.64484
 Alpha virt. eigenvalues --    0.65110   0.65702   0.65870   0.66017   0.66483
 Alpha virt. eigenvalues --    0.66768   0.67259   0.67407   0.67918   0.68390
 Alpha virt. eigenvalues --    0.68883   0.68968   0.69346   0.69628   0.69941
 Alpha virt. eigenvalues --    0.70357   0.71011   0.71504   0.71615   0.71923
 Alpha virt. eigenvalues --    0.72333   0.72678   0.73113   0.73369   0.73741
 Alpha virt. eigenvalues --    0.74036   0.74178   0.74614   0.74784   0.75331
 Alpha virt. eigenvalues --    0.75719   0.75965   0.76129   0.76779   0.77143
 Alpha virt. eigenvalues --    0.77225   0.77484   0.77689   0.78111   0.78798
 Alpha virt. eigenvalues --    0.79162   0.80131   0.80370   0.80702   0.81527
 Alpha virt. eigenvalues --    0.82208   0.82624   0.83329   0.83617   0.84590
 Alpha virt. eigenvalues --    0.85411   0.86747   0.87290   0.87538   0.88297
 Alpha virt. eigenvalues --    0.88606   0.88739   0.89535   0.90011   0.90423
 Alpha virt. eigenvalues --    0.91058   0.91858   0.91974   0.92289   0.93071
 Alpha virt. eigenvalues --    0.93386   0.93694   0.93872   0.94331   0.94806
 Alpha virt. eigenvalues --    0.95089   0.95862   0.96239   0.96920   0.97098
 Alpha virt. eigenvalues --    0.97834   0.97983   0.98561   0.99108   1.00313
 Alpha virt. eigenvalues --    1.00419   1.01047   1.01342   1.01456   1.01731
 Alpha virt. eigenvalues --    1.02005   1.02760   1.03679   1.04147   1.04244
 Alpha virt. eigenvalues --    1.04843   1.04975   1.05352   1.05841   1.06268
 Alpha virt. eigenvalues --    1.06562   1.06762   1.06893   1.07650   1.07906
 Alpha virt. eigenvalues --    1.08573   1.08871   1.09324   1.10178   1.10921
 Alpha virt. eigenvalues --    1.11033   1.11458   1.12595   1.13103   1.13806
 Alpha virt. eigenvalues --    1.14182   1.15134   1.15706   1.16265   1.17072
 Alpha virt. eigenvalues --    1.17952   1.18295   1.18969   1.19793   1.20796
 Alpha virt. eigenvalues --    1.21284   1.21752   1.22405   1.24053   1.24965
 Alpha virt. eigenvalues --    1.25257   1.25529   1.26498   1.26571   1.26691
 Alpha virt. eigenvalues --    1.27638   1.27867   1.28322   1.29858   1.30108
 Alpha virt. eigenvalues --    1.31560   1.32315   1.33128   1.33229   1.34227
 Alpha virt. eigenvalues --    1.35567   1.35988   1.36814   1.37420   1.38561
 Alpha virt. eigenvalues --    1.39845   1.40853   1.41104   1.41161   1.42206
 Alpha virt. eigenvalues --    1.42424   1.43190   1.43215   1.43411   1.44056
 Alpha virt. eigenvalues --    1.44404   1.44855   1.45098   1.45257   1.45666
 Alpha virt. eigenvalues --    1.46014   1.46044   1.47045   1.47592   1.48304
 Alpha virt. eigenvalues --    1.49411   1.49573   1.50966   1.51077   1.51586
 Alpha virt. eigenvalues --    1.52906   1.53447   1.53506   1.53878   1.54672
 Alpha virt. eigenvalues --    1.54760   1.54924   1.55475   1.55957   1.56796
 Alpha virt. eigenvalues --    1.57277   1.58272   1.59701   1.59823   1.60719
 Alpha virt. eigenvalues --    1.61545   1.62327   1.62744   1.62881   1.63561
 Alpha virt. eigenvalues --    1.64112   1.64589   1.65377   1.66325   1.66525
 Alpha virt. eigenvalues --    1.66862   1.67860   1.68459   1.69071   1.69428
 Alpha virt. eigenvalues --    1.69658   1.69922   1.70640   1.70987   1.71259
 Alpha virt. eigenvalues --    1.71657   1.73411   1.73705   1.74457   1.74833
 Alpha virt. eigenvalues --    1.75493   1.76084   1.76965   1.77527   1.77825
 Alpha virt. eigenvalues --    1.78580   1.79262   1.80085   1.81447   1.81733
 Alpha virt. eigenvalues --    1.82040   1.83332   1.83749   1.84539   1.85568
 Alpha virt. eigenvalues --    1.85988   1.86339   1.86626   1.87083   1.87890
 Alpha virt. eigenvalues --    1.88830   1.89653   1.90009   1.90398   1.90605
 Alpha virt. eigenvalues --    1.91722   1.91832   1.91939   1.93882   1.94567
 Alpha virt. eigenvalues --    1.95338   1.95716   1.96213   1.96848   1.98090
 Alpha virt. eigenvalues --    1.98734   1.99014   2.00419   2.01092   2.01639
 Alpha virt. eigenvalues --    2.02090   2.02351   2.02898   2.03823   2.04319
 Alpha virt. eigenvalues --    2.05498   2.05922   2.06499   2.06913   2.07337
 Alpha virt. eigenvalues --    2.08052   2.08679   2.09640   2.10363   2.11320
 Alpha virt. eigenvalues --    2.11748   2.12233   2.12656   2.13909   2.14108
 Alpha virt. eigenvalues --    2.14987   2.15619   2.16186   2.16819   2.17589
 Alpha virt. eigenvalues --    2.19009   2.19405   2.20182   2.20815   2.21166
 Alpha virt. eigenvalues --    2.21670   2.22941   2.25760   2.26029   2.26935
 Alpha virt. eigenvalues --    2.29101   2.31573   2.32174   2.32897   2.34255
 Alpha virt. eigenvalues --    2.35835   2.37324   2.39341   2.39633   2.41424
 Alpha virt. eigenvalues --    2.42710   2.43229   2.43796   2.44077   2.45922
 Alpha virt. eigenvalues --    2.46167   2.46316   2.46810   2.48359   2.48854
 Alpha virt. eigenvalues --    2.48982   2.50126   2.51363   2.51806   2.52360
 Alpha virt. eigenvalues --    2.52504   2.52982   2.53253   2.53955   2.54426
 Alpha virt. eigenvalues --    2.56122   2.57273   2.58232   2.58690   2.58951
 Alpha virt. eigenvalues --    2.60297   2.61341   2.63441   2.63743   2.64657
 Alpha virt. eigenvalues --    2.65574   2.66986   2.67629   2.67839   2.68105
 Alpha virt. eigenvalues --    2.68704   2.68813   2.69306   2.70290   2.70509
 Alpha virt. eigenvalues --    2.71166   2.71833   2.72747   2.73486   2.74424
 Alpha virt. eigenvalues --    2.75558   2.75683   2.77014   2.78268   2.78480
 Alpha virt. eigenvalues --    2.80319   2.82415   2.82807   2.83643   2.83751
 Alpha virt. eigenvalues --    2.83928   2.84137   2.85750   2.85839   2.86020
 Alpha virt. eigenvalues --    2.86492   2.87467   2.88249   2.88576   2.89521
 Alpha virt. eigenvalues --    2.90495   2.91764   2.91902   2.92997   2.93795
 Alpha virt. eigenvalues --    2.94339   2.94935   2.95779   2.96411   2.97946
 Alpha virt. eigenvalues --    2.99695   3.00344   3.01485   3.03694   3.04459
 Alpha virt. eigenvalues --    3.04890   3.05845   3.06699   3.08257   3.08624
 Alpha virt. eigenvalues --    3.09813   3.11107   3.12662   3.13946   3.14630
 Alpha virt. eigenvalues --    3.15072   3.16587   3.17130   3.19267   3.19526
 Alpha virt. eigenvalues --    3.21749   3.23277   3.23691   3.23995   3.24716
 Alpha virt. eigenvalues --    3.26890   3.28622   3.29717   3.31059   3.32139
 Alpha virt. eigenvalues --    3.33715   3.34162   3.34422   3.34554   3.35861
 Alpha virt. eigenvalues --    3.36779   3.38020   3.39191   3.41803   3.41919
 Alpha virt. eigenvalues --    3.43046   3.44203   3.45460   3.46313   3.48446
 Alpha virt. eigenvalues --    3.49198   3.49921   3.53573   3.55731   3.57387
 Alpha virt. eigenvalues --    3.59363   3.60078   3.61853   3.64690   3.65557
 Alpha virt. eigenvalues --    3.66277   3.69439   3.69886   3.71965   3.72870
 Alpha virt. eigenvalues --    3.76092   3.76124   3.76440   3.81670   3.82457
 Alpha virt. eigenvalues --    3.84470   3.85201   3.86325   3.90188   3.92239
 Alpha virt. eigenvalues --    3.92736   3.93073   3.94435   3.96818   4.01285
 Alpha virt. eigenvalues --    4.03324   4.04706   4.08241   4.10652   4.12511
 Alpha virt. eigenvalues --    4.14318   4.19000   4.23056   4.25021   4.26986
 Alpha virt. eigenvalues --    4.34969   4.37607   4.39757   4.50171   4.66632
 Alpha virt. eigenvalues --    4.83638   4.85648   4.87096   4.90236   5.02254
 Alpha virt. eigenvalues --    5.02957   5.03779   5.05324   5.05739   5.08755
 Alpha virt. eigenvalues --    5.10970   5.12663   5.24605   5.26524   5.28639
 Alpha virt. eigenvalues --    5.31548   5.42776   5.44108   5.75264   5.76862
 Alpha virt. eigenvalues --    5.79922   5.80428   5.81547   5.85429   8.02705
 Alpha virt. eigenvalues --    8.06258  17.29479  17.35824  17.50137  17.52922
 Alpha virt. eigenvalues --   17.58357  17.63012  23.49021  23.56659  23.72473
 Alpha virt. eigenvalues --   23.78814  23.81958  23.82433  23.83753  23.86312
 Alpha virt. eigenvalues --   23.86477  23.87815  23.89665  23.90089  23.91392
 Alpha virt. eigenvalues --   23.92721  23.94463  23.94996  23.95948  23.97647
 Alpha virt. eigenvalues --   23.99864  24.02141  24.02857  24.04395  24.11587
 Alpha virt. eigenvalues --   24.13410  24.13518  24.14742  35.55607  35.58623
 Alpha virt. eigenvalues --   49.96324  49.97590  50.01658  50.03590  50.05429
 Alpha virt. eigenvalues --   50.07042 189.19932 189.24526
          Condensed to atoms (all electrons):
 Mulliken charges:
               1
     1  C    0.361771
     2  C   -0.091329
     3  C    0.101464
     4  C    0.279394
     5  C    0.249928
     6  C   -0.544650
     7  C    0.182218
     8  C    0.138084
     9  C    0.393582
    10  C   -0.262746
    11  C    0.295958
    12  C    0.275290
    13  C   -0.514142
    14  C   -0.645761
    15  H    0.162116
    16  H    0.164572
    17  H    0.161852
    18  N   -0.120021
    19  N   -0.132195
    20  O   -0.276185
    21  O   -0.272331
    22  O   -0.279738
    23  O   -0.177464
    24  C   -0.193254
    25  H    0.176821
    26  H    0.178531
    27  H    0.183023
    28  C   -0.199335
    29  H    0.175293
    30  H    0.174705
    31  H    0.183030
    32  C    0.610997
    33  C   -1.073761
    34  S   -0.338747
    35  C   -0.345472
    36  H    0.121568
    37  C    0.522740
    38  O   -0.112020
    39  C    0.988377
    40  C   -0.257182
    41  C   -0.006926
    42  S   -0.255540
    43  H    0.166100
    44  H    0.148070
    45  H    0.150101
    46  C   -0.530446
    47  O   -0.134277
    48  C   -0.286048
    49  H    0.130647
    50  C   -0.238320
    51  H    0.159135
    52  H    0.143348
    53  H    0.164470
    54  H    0.144705
 Sum of Mulliken charges =  -0.00000
 Mulliken charges with hydrogens summed into heavy atoms:
               1
     1  C    0.361771
     2  C   -0.091329
     3  C    0.101464
     4  C    0.279394
     5  C    0.249928
     6  C   -0.382798
     7  C    0.182218
     8  C    0.138084
     9  C    0.393582
    10  C   -0.262746
    11  C    0.295958
    12  C    0.275290
    13  C   -0.349569
    14  C   -0.483645
    18  N   -0.120021
    19  N   -0.132195
    20  O   -0.276185
    21  O   -0.272331
    22  O   -0.279738
    23  O   -0.177464
    24  C    0.345121
    28  C    0.333693
    32  C    0.610997
    33  C   -0.952193
    34  S   -0.338747
    35  C   -0.345472
    37  C    0.522740
    38  O   -0.112020
    39  C    0.988377
    40  C    0.207089
    41  C   -0.006926
    42  S   -0.255540
    46  C   -0.399799
    47  O   -0.134277
    48  C   -0.126912
    50  C    0.214202
 Electronic spatial extent (au):  <R**2>=          22170.0375
 Charge=             -0.0000 electrons
 Dipole moment (field-independent basis, Debye):
    X=             -2.8265    Y=             -0.4821    Z=              0.2276  Tot=              2.8763
 Quadrupole moment (field-independent basis, Debye-Ang):
   XX=           -217.6127   YY=           -229.6814   ZZ=           -203.3781
   XY=             -6.5962   XZ=            -10.2280   YZ=             13.7275
 Traceless Quadrupole moment (field-independent basis, Debye-Ang):
   XX=             -0.7220   YY=            -12.7907   ZZ=             13.5127
   XY=             -6.5962   XZ=            -10.2280   YZ=             13.7275
 Octapole moment (field-independent basis, Debye-Ang**2):
  XXX=           -295.4765  YYY=            -23.9994  ZZZ=              1.5951  XYY=            -51.8024
  XXY=             -7.7093  XXZ=             48.6673  XZZ=            -68.3523  YZZ=             -6.9096
  YYZ=            -11.9912  XYZ=            -48.4825
 Hexadecapole moment (field-independent basis, Debye-Ang**3):
 XXXX=         -21462.8667 YYYY=          -6410.2984 ZZZZ=          -2075.5654 XXXY=            -59.5721
 XXXZ=           -553.8113 YYYX=           -426.5604 YYYZ=             39.8281 ZZZX=            -45.3051
 ZZZY=            139.5938 XXYY=          -4600.6408 XXZZ=          -3745.1949 YYZZ=          -1263.7171
 XXYZ=            254.0195 YYXZ=            104.9808 ZZXY=            -48.5255
 N-N= 4.092694209177D+03 E-N=-1.372530345259D+04  KE= 2.351796552699D+03
 Calling FoFJK, ICntrl=      2127 FMM=F ISym2X=0 I1Cent= 0 IOpClX= 0 NMat=1 NMatS=1 NMatT=0.
 ***** Axes restored to original set *****
 -------------------------------------------------------------------
 Center     Atomic                   Forces (Hartrees/Bohr)
 Number     Number              X              Y              Z
 -------------------------------------------------------------------
      1        6           0.004402603   -0.005665865   -0.000891718
      2        6          -0.002653175    0.000594409    0.000060607
      3        6           0.003038252   -0.000895073   -0.000324671
      4        6          -0.001904319    0.001760596    0.000396365
      5        6          -0.005826318   -0.002780944   -0.000261046
      6        6           0.004217886    0.003758294    0.000616952
      7        6          -0.001487966   -0.000763429   -0.000198862
      8        6           0.003711474   -0.007497670   -0.001813279
      9        6          -0.015917388   -0.009855059    0.004460154
     10        6           0.013253171    0.009687556    0.001318071
     11        6          -0.002679428    0.007447108    0.000861375
     12        6          -0.001630100   -0.001418366   -0.000057972
     13        6           0.001292157    0.000744914    0.000120069
     14        6           0.002505128   -0.001525039   -0.000274410
     15        1           0.000578094    0.000648367    0.000048885
     16        1           0.000637591   -0.001064366   -0.000179525
     17        1           0.001709650    0.001964790    0.000928064
     18        7          -0.002557637   -0.001795950   -0.000807093
     19        7           0.000535605    0.001713683    0.000168410
     20        8          -0.006324811    0.006646271    0.001089860
     21        8           0.007440001    0.002479345    0.000192029
     22        8           0.006091811   -0.006715830   -0.000938522
     23        8          -0.008789357   -0.010090053   -0.001018730
     24        6           0.001012763    0.002659117   -0.000616977
     25        1          -0.000555157   -0.000076050   -0.000470554
     26        1          -0.001140812   -0.000725660    0.001252709
     27        1           0.001019870    0.000007476    0.000089826
     28        6          -0.000539269   -0.002125640   -0.000715415
     29        1          -0.000690544    0.000411812    0.001016408
     30        1          -0.000464369    0.000416388   -0.000513653
     31        1           0.000962134   -0.000388949   -0.000019247
     32        6           0.012489091    0.022203605   -0.005473549
     33        6          -0.010714050   -0.007126788   -0.003762213
     34       16          -0.003368139   -0.004045482    0.004863442
     35        6           0.002547831    0.005547360   -0.008286837
     36        1          -0.001506246    0.000356981    0.002612882
     37        6          -0.001487583   -0.003451222    0.006366846
     38        8          -0.000239671   -0.002326724    0.002054151
     39        6           0.001858650    0.002474000   -0.004400010
     40        6           0.000567878    0.000167130    0.000522846
     41        6           0.002023761   -0.002227847    0.003864779
     42       16          -0.000496073    0.000832724   -0.001581615
     43        1          -0.000851651   -0.000170571   -0.000166485
     44        1           0.000531776    0.000114349   -0.000597597
     45        1           0.000973247    0.000754331   -0.000075877
     46        6          -0.000712450   -0.000556718    0.001006545
     47        8           0.000089074    0.000296652   -0.000765035
     48        6           0.000696042    0.000364481   -0.000816444
     49        1           0.000235746   -0.000456986    0.000788772
     50        6           0.000672292    0.000501074   -0.002202176
     51        1          -0.001533221   -0.000338970    0.000382829
     52        1          -0.001112815    0.000435357    0.001539334
     53        1           0.000641039   -0.000020467    0.000380372
     54        1          -0.000552068   -0.000882453    0.000226930
 -------------------------------------------------------------------
 Cartesian Forces:  Max     0.022203605 RMS     0.003983917

 GradGradGradGradGradGradGradGradGradGradGradGradGradGradGradGradGradGrad
 Berny optimization.
 FormGI is forming the generalized inverse of G from B-inverse, IUseBI=4.
 Internal  Forces:  Max     0.015137100 RMS     0.002301859
 Search for a local minimum.
 Step number   1 out of a maximum of  307
 All quantities printed in internal units (Hartrees-Bohrs-Radians)
 Mixed Optimization -- RFO/linear search
 Second derivative matrix not updated -- first step.
 ITU=  0
     Eigenvalues ---    0.01155   0.01172   0.01239   0.01297   0.01359
     Eigenvalues ---    0.01391   0.01397   0.01410   0.01452   0.01470
     Eigenvalues ---    0.01512   0.01544   0.01567   0.01590   0.01624
     Eigenvalues ---    0.01651   0.01679   0.01693   0.01715   0.01719
     Eigenvalues ---    0.01721   0.01763   0.01799   0.01845   0.01972
     Eigenvalues ---    0.02039   0.02050   0.02075   0.02090   0.02095
     Eigenvalues ---    0.02133   0.02149   0.02162   0.02178   0.02197
     Eigenvalues ---    0.02250   0.04601   0.04620   0.07665   0.07667
     Eigenvalues ---    0.10062   0.10073   0.10636   0.10638   0.15983
     Eigenvalues ---    0.15999   0.15999   0.16000   0.16000   0.16000
     Eigenvalues ---    0.16000   0.16000   0.16000   0.16000   0.16000
     Eigenvalues ---    0.16000   0.16000   0.16000   0.16000   0.16000
     Eigenvalues ---    0.16000   0.16000   0.22530   0.22583   0.23517
     Eigenvalues ---    0.23582   0.24513   0.24747   0.24864   0.24906
     Eigenvalues ---    0.24952   0.24985   0.24986   0.24988   0.24990
     Eigenvalues ---    0.24994   0.24996   0.24997   0.24998   0.24998
     Eigenvalues ---    0.25000   0.25000   0.25000   0.25000   0.25000
     Eigenvalues ---    0.25000   0.25000   0.25000   0.25000   0.25000
     Eigenvalues ---    0.28850   0.28959   0.30086   0.32088   0.32582
     Eigenvalues ---    0.32774   0.33104   0.33787   0.33885   0.34077
     Eigenvalues ---    0.34085   0.34104   0.34353   0.34466   0.34577
     Eigenvalues ---    0.34629   0.34693   0.34838   0.34855   0.35198
     Eigenvalues ---    0.35218   0.35468   0.35553   0.35582   0.35814
     Eigenvalues ---    0.35828   0.36078   0.36083   0.36241   0.36393
     Eigenvalues ---    0.36662   0.39348   0.40194   0.40261   0.40651
     Eigenvalues ---    0.40696   0.41524   0.41689   0.42056   0.42300
     Eigenvalues ---    0.42786   0.43455   0.43927   0.44092   0.44498
     Eigenvalues ---    0.44594   0.45014   0.45405   0.46251   0.47305
     Eigenvalues ---    0.47523   0.49309   0.49601   0.52963   0.53140
     Eigenvalues ---    0.93281   0.93432   0.93989   0.945851000.00000
     Eigenvalues --- 1000.000001000.000001000.000001000.000001000.00000
     Eigenvalues --- 1000.000001000.000001000.000001000.000001000.00000
     Eigenvalues --- 1000.000001000.000001000.000001000.000001000.00000
     Eigenvalues --- 1000.000001000.000001000.000001000.000001000.00000
     Eigenvalues --- 1000.000001000.000001000.000001000.000001000.00000
     Eigenvalues --- 1000.000001000.000001000.000001000.000001000.00000
     Eigenvalues --- 1000.000001000.000001000.000001000.000001000.00000
     Eigenvalues --- 1000.000001000.000001000.000001000.000001000.00000
     Eigenvalues --- 1000.000001000.000001000.000001000.000001000.00000
     Eigenvalues --- 1000.000001000.000001000.000001000.000001000.00000
     Eigenvalues --- 1000.000001000.000001000.000001000.000001000.00000
     Eigenvalues --- 1000.000001000.000001000.000001000.000001000.00000
     Eigenvalues --- 1000.000001000.000001000.000001000.000001000.00000
     Eigenvalues --- 1000.000001000.000001000.000001000.000001000.00000
     Eigenvalues --- 1000.000001000.000001000.000001000.000001000.00000
     Eigenvalues --- 1000.000001000.000001000.000001000.000001000.00000
     Eigenvalues --- 1000.000001000.000001000.000001000.000001000.00000
     Eigenvalues --- 1000.000001000.000001000.000001000.000001000.00000
     Eigenvalues --- 1000.000001000.000001000.000001000.000001000.00000
     Eigenvalues --- 1000.000001000.000001000.000001000.000001000.00000
     Eigenvalues --- 1000.000001000.000001000.000001000.000001000.00000
     Eigenvalues --- 1000.000001000.000001000.000001000.000001000.00000
     Eigenvalues --- 1000.000001000.000001000.000001000.000001000.00000
     Eigenvalues --- 1000.000001000.000001000.000001000.000001000.00000
     Eigenvalues --- 1000.000001000.000001000.000001000.000001000.00000
     Eigenvalues --- 1000.000001000.000001000.000001000.000001000.00000
     Eigenvalues --- 1000.000001000.000001000.000001000.000001000.00000
     Eigenvalues --- 1000.000001000.000001000.000001000.000001000.00000
     Eigenvalues --- 1000.000001000.000001000.000001000.000001000.00000
     Eigenvalues --- 1000.000001000.00000
 RFO step:  Lambda=-4.91975167D-03 EMin= 1.15532237D-02
 Linear search not attempted -- first point.
 Iteration  1 RMS(Cart)=  0.07175123 RMS(Int)=  0.00057581
 Iteration  2 RMS(Cart)=  0.00294430 RMS(Int)=  0.00016392
 Iteration  3 RMS(Cart)=  0.00000264 RMS(Int)=  0.00016392
 Iteration  4 RMS(Cart)=  0.00000000 RMS(Int)=  0.00016392
 Iteration  1 RMS(Cart)=  0.00002369 RMS(Int)=  0.00001520
 Iteration  2 RMS(Cart)=  0.00001412 RMS(Int)=  0.00001687
 Iteration  3 RMS(Cart)=  0.00000870 RMS(Int)=  0.00001931
 Iteration  4 RMS(Cart)=  0.00000546 RMS(Int)=  0.00002121
 Iteration  5 RMS(Cart)=  0.00000346 RMS(Int)=  0.00002253
 Iteration  6 RMS(Cart)=  0.00000220 RMS(Int)=  0.00002339
 Iteration  7 RMS(Cart)=  0.00000141 RMS(Int)=  0.00002395
 Iteration  8 RMS(Cart)=  0.00000090 RMS(Int)=  0.00002432
 Variable       Old X    -DE/DX   Delta X   Delta X   Delta X     New X
                                 (Linear)    (Quad)   (Total)
    R1        2.80935  -0.00049   0.00000  -0.00128  -0.00128   2.80807
    R2        2.64584  -0.00048   0.00000  -0.00102  -0.00101   2.64483
    R3        2.31147  -0.00923   0.00000  -0.00977  -0.00977   2.30170
    R4        2.67311  -0.00139   0.00000  -0.00175  -0.00179   2.67132
    R5        2.59267   0.00266   0.00000   0.00621   0.00620   2.59887
    R6        2.66894  -0.00169   0.00000  -0.00370  -0.00372   2.66523
    R7        2.69164  -0.00217   0.00000  -0.00520  -0.00523   2.68641
    R8        2.81049  -0.00012   0.00000  -0.00050  -0.00050   2.80999
    R9        2.62173  -0.00190   0.00000  -0.00359  -0.00359   2.61814
   R10        2.65570  -0.00071   0.00000  -0.00167  -0.00166   2.65404
   R11        2.30889  -0.00784   0.00000  -0.00825  -0.00825   2.30064
   R12        2.70248  -0.00693   0.00000  -0.01679  -0.01676   2.68571
   R13        2.04786  -0.00031   0.00000  -0.00086  -0.00086   2.04700
   R14        2.70495  -0.00569   0.00000  -0.01590  -0.01588   2.68907
   R15        2.68322  -0.00294   0.00000  -0.00767  -0.00769   2.67553
   R16        2.68655  -0.01514   0.00000  -0.03681  -0.03678   2.64977
   R17        2.81233  -0.00159   0.00000  -0.00517  -0.00516   2.80717
   R18        2.76359   0.00312   0.00000   0.00840   0.00840   2.77200
   R19        2.66221   0.00024   0.00000   0.00100   0.00102   2.66322
   R20        2.31391  -0.01210   0.00000  -0.01288  -0.01288   2.30102
   R21        2.79415   0.00292   0.00000   0.00876   0.00874   2.80289
   R22        2.63842  -0.00002   0.00000   0.00073   0.00074   2.63916
   R23        2.31456  -0.00908   0.00000  -0.00968  -0.00968   2.30488
   R24        2.62448  -0.00223   0.00000  -0.00478  -0.00478   2.61971
   R25        2.64561   0.00048   0.00000   0.00124   0.00124   2.64685
   R26        2.04921  -0.00121   0.00000  -0.00336  -0.00336   2.04585
   R27        2.04741  -0.00076   0.00000  -0.00209  -0.00209   2.04532
   R28        2.77259   0.00190   0.00000   0.00521   0.00521   2.77780
   R29        2.77252   0.00181   0.00000   0.00496   0.00496   2.77748
   R30        2.06176  -0.00070   0.00000  -0.00198  -0.00198   2.05978
   R31        2.06551  -0.00184   0.00000  -0.00526  -0.00526   2.06026
   R32        2.05322  -0.00087   0.00000  -0.00244  -0.00244   2.05079
   R33        2.06368  -0.00128   0.00000  -0.00366  -0.00366   2.06002
   R34        2.06281  -0.00079   0.00000  -0.00225  -0.00225   2.06057
   R35        2.05355  -0.00091   0.00000  -0.00256  -0.00256   2.05099
   R36        2.61147  -0.00793   0.00000  -0.01653  -0.01640   2.59507
   R37        3.33266  -0.00742   0.00000  -0.02562  -0.02552   3.30714
   R38        2.66134   0.00385   0.00000   0.00868   0.00867   2.67002
   R39        2.03707   0.00217   0.00000   0.00590   0.00590   2.04297
   R40        3.30422   0.00100   0.00000   0.00365   0.00357   3.30779
   R41        2.64239  -0.00498   0.00000  -0.01023  -0.01037   2.63202
   R42        2.56988   0.00183   0.00000   0.00342   0.00342   2.57330
   R43        2.71200   0.00233   0.00000   0.00571   0.00571   2.71770
   R44        2.69321  -0.00074   0.00000  -0.00176  -0.00176   2.69145
   R45        2.63516  -0.00378   0.00000  -0.00824  -0.00824   2.62692
   R46        3.32749  -0.00072   0.00000  -0.00231  -0.00231   3.32517
   R47        2.05939  -0.00086   0.00000  -0.00243  -0.00243   2.05696
   R48        2.07154  -0.00070   0.00000  -0.00202  -0.00202   2.06952
   R49        2.07187  -0.00098   0.00000  -0.00284  -0.00284   2.06904
   R50        2.69081  -0.00113   0.00000  -0.00287  -0.00287   2.68793
   R51        2.56824   0.00065   0.00000   0.00121   0.00121   2.56945
   R52        3.26332  -0.00146   0.00000  -0.00407  -0.00407   3.25926
   R53        2.58636  -0.00178   0.00000  -0.00340  -0.00340   2.58296
   R54        2.04351  -0.00087   0.00000  -0.00239  -0.00239   2.04112
   R55        2.68852   0.00007   0.00000   0.00016   0.00016   2.68868
   R56        2.04373  -0.00160   0.00000  -0.00440  -0.00440   2.03933
   R57        2.07525  -0.00191   0.00000  -0.00554  -0.00554   2.06971
   R58        2.05911  -0.00072   0.00000  -0.00205  -0.00205   2.05706
   R59        2.07200  -0.00096   0.00000  -0.00278  -0.00278   2.06921
    A1        2.03797   0.00035   0.00000   0.00211   0.00210   2.04007
    A2        2.14521  -0.00054   0.00000  -0.00251  -0.00250   2.14271
    A3        2.10001   0.00019   0.00000   0.00039   0.00040   2.10041
    A4        2.10395  -0.00075   0.00000  -0.00400  -0.00400   2.09995
    A5        2.08282   0.00259   0.00000   0.00773   0.00779   2.09061
    A6        2.09624  -0.00183   0.00000  -0.00367  -0.00374   2.09250
    A7        2.10093   0.00125   0.00000   0.00472   0.00473   2.10566
    A8        2.07104   0.00036   0.00000   0.00345   0.00338   2.07442
    A9        2.11118  -0.00160   0.00000  -0.00823  -0.00820   2.10298
   A10        2.10296  -0.00067   0.00000  -0.00264  -0.00265   2.10032
   A11        2.09911  -0.00081   0.00000  -0.00281  -0.00283   2.09628
   A12        2.08110   0.00149   0.00000   0.00544   0.00547   2.08657
   A13        2.03739   0.00022   0.00000   0.00096   0.00095   2.03834
   A14        2.12972  -0.00007   0.00000  -0.00031  -0.00031   2.12942
   A15        2.11607  -0.00015   0.00000  -0.00066  -0.00065   2.11542
   A16        2.15098  -0.00352   0.00000  -0.01407  -0.01408   2.13690
   A17        2.04399   0.00445   0.00000   0.02348   0.02349   2.06748
   A18        2.08722  -0.00093   0.00000  -0.00936  -0.00936   2.07787
   A19        2.11101  -0.00199   0.00000  -0.00770  -0.00771   2.10329
   A20        2.04385   0.00371   0.00000   0.01591   0.01593   2.05977
   A21        2.12832  -0.00173   0.00000  -0.00823  -0.00823   2.12010
   A22        2.08678   0.00211   0.00000   0.00445   0.00440   2.09118
   A23        2.04738   0.00500   0.00000   0.01851   0.01841   2.06580
   A24        2.14662  -0.00710   0.00000  -0.02388  -0.02384   2.12278
   A25        2.04892   0.00487   0.00000   0.01635   0.01630   2.06522
   A26        2.00754   0.00454   0.00000   0.01950   0.01941   2.02695
   A27        2.22643  -0.00942   0.00000  -0.03532  -0.03541   2.19102
   A28        2.06022  -0.00194   0.00000  -0.00861  -0.00868   2.05154
   A29        2.17370  -0.00551   0.00000  -0.02106  -0.02107   2.15263
   A30        2.04919   0.00744   0.00000   0.02984   0.02983   2.07901
   A31        2.01621   0.00144   0.00000   0.00672   0.00667   2.02287
   A32        2.14188  -0.00169   0.00000  -0.00722  -0.00721   2.13466
   A33        2.12500   0.00025   0.00000   0.00038   0.00039   2.12538
   A34        2.10943  -0.00068   0.00000  -0.00323  -0.00330   2.10612
   A35        2.11468  -0.00230   0.00000  -0.00973  -0.00972   2.10495
   A36        2.05896   0.00298   0.00000   0.01300   0.01306   2.07202
   A37        2.11176  -0.00023   0.00000  -0.00136  -0.00137   2.11038
   A38        2.05670   0.00045   0.00000   0.00272   0.00273   2.05943
   A39        2.11471  -0.00022   0.00000  -0.00137  -0.00136   2.11335
   A40        2.08567   0.00123   0.00000   0.00615   0.00612   2.09180
   A41        2.07549  -0.00017   0.00000  -0.00041  -0.00040   2.07509
   A42        2.12199  -0.00105   0.00000  -0.00576  -0.00575   2.11624
   A43        2.20043  -0.00212   0.00000  -0.00729  -0.00732   2.19311
   A44        2.02023   0.00067   0.00000   0.00213   0.00215   2.02238
   A45        2.06252   0.00144   0.00000   0.00515   0.00517   2.06769
   A46        2.18316  -0.00039   0.00000  -0.00119  -0.00119   2.18196
[...]
 Alpha  occ. eigenvalues --   -0.53899  -0.51992  -0.50494  -0.50115  -0.49939
 Alpha  occ. eigenvalues --   -0.49291  -0.48889  -0.48788  -0.48219  -0.47962
 Alpha  occ. eigenvalues --   -0.47665  -0.47516  -0.46865  -0.46564  -0.45602
 Alpha  occ. eigenvalues --   -0.45302  -0.45019  -0.44898  -0.44580  -0.44097
 Alpha  occ. eigenvalues --   -0.42967  -0.42674  -0.42300  -0.42090  -0.41718
 Alpha  occ. eigenvalues --   -0.41449  -0.41349  -0.41027  -0.40728  -0.40141
 Alpha  occ. eigenvalues --   -0.39816  -0.38872  -0.38262  -0.37838  -0.37092
 Alpha  occ. eigenvalues --   -0.35907  -0.35610  -0.33844  -0.33350  -0.33251
 Alpha  occ. eigenvalues --   -0.32941  -0.32588  -0.31275  -0.30361  -0.29943
 Alpha  occ. eigenvalues --   -0.29421  -0.29182  -0.28787  -0.28490  -0.27376
 Alpha  occ. eigenvalues --   -0.26573  -0.24318  -0.23902  -0.18771
 Alpha virt. eigenvalues --   -0.13426  -0.07173  -0.06175  -0.05021  -0.04255
 Alpha virt. eigenvalues --   -0.01026  -0.00212  -0.00116   0.00198   0.00599
 Alpha virt. eigenvalues --    0.00668   0.00933   0.01072   0.01188   0.01786
 Alpha virt. eigenvalues --    0.02040   0.02206   0.02593   0.03060   0.03137
 Alpha virt. eigenvalues --    0.03468   0.03754   0.03825   0.04127   0.04735
 Alpha virt. eigenvalues --    0.04795   0.05040   0.05332   0.05450   0.05761
 Alpha virt. eigenvalues --    0.05852   0.06128   0.06255   0.06688   0.06945
 Alpha virt. eigenvalues --    0.07245   0.07408   0.07783   0.07864   0.08202
 Alpha virt. eigenvalues --    0.08632   0.08895   0.09041   0.09148   0.09274
 Alpha virt. eigenvalues --    0.09582   0.09728   0.09806   0.09979   0.10734
 Alpha virt. eigenvalues --    0.10894   0.11159   0.11424   0.11853   0.11982
 Alpha virt. eigenvalues --    0.12183   0.12704   0.13007   0.13215   0.13345
 Alpha virt. eigenvalues --    0.13601   0.13665   0.13842   0.14036   0.14263
 Alpha virt. eigenvalues --    0.14396   0.14723   0.14810   0.15112   0.15231
 Alpha virt. eigenvalues --    0.15463   0.15833   0.15945   0.15976   0.16313
 Alpha virt. eigenvalues --    0.16460   0.16820   0.17022   0.17377   0.17640
 Alpha virt. eigenvalues --    0.17937   0.18077   0.18418   0.18533   0.18741
 Alpha virt. eigenvalues --    0.18863   0.19017   0.19238   0.19316   0.19617
 Alpha virt. eigenvalues --    0.19808   0.19997   0.20270   0.20346   0.20418
 Alpha virt. eigenvalues --    0.20535   0.20712   0.20835   0.21082   0.21351
 Alpha virt. eigenvalues --    0.21434   0.21860   0.21998   0.22044   0.22417
 Alpha virt. eigenvalues --    0.22608   0.22723   0.22889   0.23093   0.23194
 Alpha virt. eigenvalues --    0.23261   0.23505   0.23778   0.24113   0.24411
 Alpha virt. eigenvalues --    0.24495   0.24795   0.24842   0.25080   0.25301
 Alpha virt. eigenvalues --    0.25445   0.25535   0.25827   0.25983   0.26284
 Alpha virt. eigenvalues --    0.26447   0.26734   0.26843   0.27004   0.27272
 Alpha virt. eigenvalues --    0.27439   0.27677   0.27894   0.28245   0.28323
 Alpha virt. eigenvalues --    0.28429   0.28519   0.28669   0.29128   0.29342
 Alpha virt. eigenvalues --    0.29502   0.29910   0.30070   0.30340   0.30510
 Alpha virt. eigenvalues --    0.30772   0.30794   0.31120   0.31333   0.31575
 Alpha virt. eigenvalues --    0.31927   0.32528   0.32680   0.32848   0.33109
 Alpha virt. eigenvalues --    0.33378   0.33800   0.34023   0.34092   0.34400
 Alpha virt. eigenvalues --    0.34510   0.34859   0.35435   0.35648   0.35895
 Alpha virt. eigenvalues --    0.36163   0.36646   0.36939   0.37491   0.38028
 Alpha virt. eigenvalues --    0.38200   0.38448   0.38816   0.39129   0.39604
 Alpha virt. eigenvalues --    0.39932   0.40116   0.40961   0.41161   0.41719
 Alpha virt. eigenvalues --    0.42167   0.42292   0.42875   0.43200   0.43898
 Alpha virt. eigenvalues --    0.44314   0.44575   0.44709   0.45027   0.45350
 Alpha virt. eigenvalues --    0.45501   0.45906   0.46086   0.46361   0.46887
 Alpha virt. eigenvalues --    0.47290   0.47975   0.48778   0.49162   0.49447
 Alpha virt. eigenvalues --    0.49648   0.49992   0.50670   0.50820   0.51380
 Alpha virt. eigenvalues --    0.52305   0.52622   0.52859   0.53785   0.54109
 Alpha virt. eigenvalues --    0.54319   0.54505   0.55446   0.55573   0.55718
 Alpha virt. eigenvalues --    0.56323   0.56462   0.56879   0.57171   0.57395
 Alpha virt. eigenvalues --    0.57521   0.58338   0.59008   0.59127   0.59572
 Alpha virt. eigenvalues --    0.60191   0.60526   0.60805   0.61282   0.61529
 Alpha virt. eigenvalues --    0.62296   0.62567   0.62765   0.62800   0.63534
 Alpha virt. eigenvalues --    0.63688   0.64202   0.64475   0.64644   0.65150
 Alpha virt. eigenvalues --    0.65494   0.65735   0.65944   0.66538   0.67118
 Alpha virt. eigenvalues --    0.67553   0.67733   0.67971   0.68319   0.68625
 Alpha virt. eigenvalues --    0.69084   0.69294   0.69683   0.70205   0.70546
 Alpha virt. eigenvalues --    0.71025   0.71400   0.71732   0.72066   0.72414
 Alpha virt. eigenvalues --    0.72831   0.73278   0.73426   0.73607   0.74336
 Alpha virt. eigenvalues --    0.74464   0.74664   0.74939   0.75346   0.75771
 Alpha virt. eigenvalues --    0.75999   0.76093   0.76862   0.77144   0.77489
 Alpha virt. eigenvalues --    0.77527   0.77866   0.78229   0.78923   0.79320
 Alpha virt. eigenvalues --    0.79749   0.80247   0.80555   0.81561   0.82085
 Alpha virt. eigenvalues --    0.82448   0.83126   0.83862   0.85071   0.85582
 Alpha virt. eigenvalues --    0.86634   0.87131   0.87787   0.88329   0.88472
 Alpha virt. eigenvalues --    0.88534   0.89027   0.90216   0.90348   0.91168
 Alpha virt. eigenvalues --    0.91464   0.92197   0.92345   0.92794   0.93323
 Alpha virt. eigenvalues --    0.93696   0.94109   0.94361   0.95000   0.95089
 Alpha virt. eigenvalues --    0.95651   0.96214   0.96491   0.97066   0.97279
 Alpha virt. eigenvalues --    0.97645   0.98649   0.99118   1.00303   1.00509
 Alpha virt. eigenvalues --    1.00859   1.01343   1.01568   1.02129   1.02430
 Alpha virt. eigenvalues --    1.02922   1.03645   1.03813   1.04690   1.04774
 Alpha virt. eigenvalues --    1.04862   1.05482   1.05759   1.06080   1.06307
 Alpha virt. eigenvalues --    1.06626   1.07154   1.07737   1.07930   1.08570
 Alpha virt. eigenvalues --    1.09014   1.09444   1.10372   1.10590   1.11198
 Alpha virt. eigenvalues --    1.11551   1.12914   1.13389   1.13972   1.14304
 Alpha virt. eigenvalues --    1.15370   1.15724   1.16203   1.16935   1.18049
 Alpha virt. eigenvalues --    1.18251   1.18715   1.19750   1.20591   1.21247
 Alpha virt. eigenvalues --    1.21831   1.22218   1.23389   1.24877   1.25404
 Alpha virt. eigenvalues --    1.25673   1.26413   1.26482   1.26870   1.27334
 Alpha virt. eigenvalues --    1.27726   1.28283   1.29369   1.29752   1.31736
 Alpha virt. eigenvalues --    1.32430   1.33298   1.33568   1.34389   1.35731
 Alpha virt. eigenvalues --    1.36026   1.36652   1.36939   1.38695   1.40311
 Alpha virt. eigenvalues --    1.40886   1.41479   1.41699   1.42377   1.42672
 Alpha virt. eigenvalues --    1.43174   1.43395   1.43716   1.44078   1.44321
 Alpha virt. eigenvalues --    1.44449   1.44764   1.45491   1.45590   1.45937
 Alpha virt. eigenvalues --    1.46269   1.46544   1.47164   1.48363   1.49860
 Alpha virt. eigenvalues --    1.50330   1.50854   1.51185   1.51618   1.52867
 Alpha virt. eigenvalues --    1.53413   1.53552   1.53838   1.54543   1.54782
 Alpha virt. eigenvalues --    1.55093   1.55345   1.56190   1.56872   1.57418
 Alpha virt. eigenvalues --    1.58885   1.59720   1.60409   1.61053   1.61605
 Alpha virt. eigenvalues --    1.62200   1.63050   1.63238   1.63860   1.64221
 Alpha virt. eigenvalues --    1.64471   1.65400   1.65996   1.66765   1.67076
 Alpha virt. eigenvalues --    1.67648   1.68527   1.69408   1.69603   1.69712
 Alpha virt. eigenvalues --    1.70100   1.70741   1.71073   1.71089   1.71609
 Alpha virt. eigenvalues --    1.73441   1.73995   1.74470   1.74709   1.75150
 Alpha virt. eigenvalues --    1.76492   1.76873   1.77703   1.78379   1.79064
 Alpha virt. eigenvalues --    1.79530   1.80512   1.81804   1.82259   1.82461
 Alpha virt. eigenvalues --    1.83601   1.84335   1.84765   1.85670   1.85937
 Alpha virt. eigenvalues --    1.86593   1.86735   1.87610   1.88244   1.88650
 Alpha virt. eigenvalues --    1.89785   1.90098   1.90803   1.91130   1.91440
 Alpha virt. eigenvalues --    1.92045   1.92695   1.93776   1.94370   1.95542
 Alpha virt. eigenvalues --    1.95831   1.96215   1.97003   1.98045   1.98275
 Alpha virt. eigenvalues --    1.99135   2.00932   2.01426   2.01914   2.02062
 Alpha virt. eigenvalues --    2.02643   2.03398   2.03776   2.04233   2.05451
 Alpha virt. eigenvalues --    2.06173   2.06642   2.07166   2.07837   2.07958
 Alpha virt. eigenvalues --    2.08913   2.09655   2.11361   2.11735   2.12138
 Alpha virt. eigenvalues --    2.12500   2.12812   2.14086   2.14890   2.15298
 Alpha virt. eigenvalues --    2.15431   2.16364   2.17176   2.17508   2.18890
 Alpha virt. eigenvalues --    2.19531   2.20278   2.20585   2.21377   2.21997
 Alpha virt. eigenvalues --    2.22885   2.25548   2.26000   2.26808   2.28477
 Alpha virt. eigenvalues --    2.31450   2.32402   2.33009   2.34059   2.36420
 Alpha virt. eigenvalues --    2.37232   2.39494   2.39852   2.41525   2.43231
 Alpha virt. eigenvalues --    2.43604   2.43737   2.44694   2.45876   2.46355
 Alpha virt. eigenvalues --    2.46790   2.46918   2.48625   2.49035   2.50057
 Alpha virt. eigenvalues --    2.50556   2.51508   2.51896   2.52253   2.52595
 Alpha virt. eigenvalues --    2.53076   2.53226   2.53694   2.54897   2.56109
 Alpha virt. eigenvalues --    2.57203   2.58295   2.58720   2.58999   2.59735
 Alpha virt. eigenvalues --    2.61607   2.63381   2.64085   2.64767   2.65468
 Alpha virt. eigenvalues --    2.66889   2.67704   2.68244   2.68349   2.68668
 Alpha virt. eigenvalues --    2.69043   2.69525   2.70297   2.71078   2.71367
 Alpha virt. eigenvalues --    2.71921   2.72443   2.73639   2.74576   2.75511
 Alpha virt. eigenvalues --    2.75690   2.76796   2.78716   2.79372   2.80339
 Alpha virt. eigenvalues --    2.82374   2.82894   2.83782   2.84008   2.84324
 Alpha virt. eigenvalues --    2.84497   2.85768   2.85807   2.86772   2.87032
 Alpha virt. eigenvalues --    2.87348   2.88177   2.89048   2.89228   2.90500
 Alpha virt. eigenvalues --    2.92085   2.92290   2.92942   2.93979   2.94500
 Alpha virt. eigenvalues --    2.94864   2.95896   2.96866   2.99007   3.00172
 Alpha virt. eigenvalues --    3.00737   3.01561   3.03958   3.04644   3.05110
 Alpha virt. eigenvalues --    3.06133   3.07371   3.08333   3.08563   3.09918
 Alpha virt. eigenvalues --    3.10820   3.12964   3.13877   3.14274   3.15170
 Alpha virt. eigenvalues --    3.16652   3.17130   3.19537   3.21014   3.21877
 Alpha virt. eigenvalues --    3.23814   3.24218   3.24602   3.25146   3.26921
 Alpha virt. eigenvalues --    3.29502   3.30067   3.31296   3.32649   3.34201
 Alpha virt. eigenvalues --    3.34781   3.34963   3.35439   3.36683   3.37405
 Alpha virt. eigenvalues --    3.38427   3.39527   3.41847   3.42774   3.44154
 Alpha virt. eigenvalues --    3.44765   3.46260   3.46760   3.48935   3.49555
 Alpha virt. eigenvalues --    3.51074   3.53898   3.56125   3.57835   3.59855
 Alpha virt. eigenvalues --    3.60570   3.61899   3.65202   3.65597   3.66554
 Alpha virt. eigenvalues --    3.69635   3.71318   3.72298   3.73134   3.76703
 Alpha virt. eigenvalues --    3.76990   3.77274   3.81936   3.82762   3.84950
 Alpha virt. eigenvalues --    3.85124   3.86095   3.90018   3.92083   3.92962
 Alpha virt. eigenvalues --    3.93131   3.94304   3.96590   4.01099   4.03455
 Alpha virt. eigenvalues --    4.04504   4.08557   4.11089   4.12051   4.14930
 Alpha virt. eigenvalues --    4.19392   4.22956   4.24854   4.27056   4.34978
 Alpha virt. eigenvalues --    4.37979   4.39879   4.50169   4.67204   4.84060
 Alpha virt. eigenvalues --    4.86602   4.87326   4.89816   5.02433   5.03229
 Alpha virt. eigenvalues --    5.03805   5.05251   5.05441   5.08136   5.11054
 Alpha virt. eigenvalues --    5.12488   5.24621   5.26459   5.28546   5.32193
 Alpha virt. eigenvalues --    5.42219   5.43826   5.75689   5.77234   5.80140
 Alpha virt. eigenvalues --    5.80854   5.81735   5.86075   8.03170   8.06542
 Alpha virt. eigenvalues --   17.29833  17.35952  17.50420  17.53278  17.58862
 Alpha virt. eigenvalues --   17.63224  23.48658  23.56916  23.72842  23.79080
 Alpha virt. eigenvalues --   23.82408  23.82819  23.84097  23.86660  23.87190
 Alpha virt. eigenvalues --   23.87911  23.88785  23.90672  23.91570  23.93468
 Alpha virt. eigenvalues --   23.94659  23.95970  23.96400  23.99869  24.01399
 Alpha virt. eigenvalues --   24.04595  24.05106  24.05405  24.11721  24.13893
 Alpha virt. eigenvalues --   24.15541  24.16067  35.55578  35.58501  49.96717
 Alpha virt. eigenvalues --   49.97841  50.01940  50.03821  50.05807  50.07306
 Alpha virt. eigenvalues --  189.20401 189.24781
          Condensed to atoms (all electrons):
 Mulliken charges:
               1
     1  C    0.362242
     2  C    0.006055
     3  C    0.176047
     4  C    0.213704
     5  C    0.253537
     6  C   -0.506999
     7  C    0.206606
     8  C   -0.059548
     9  C    0.318550
    10  C   -0.284298
    11  C    0.264669
    12  C    0.160536
    13  C   -0.493645
    14  C   -0.633247
    15  H    0.161508
    16  H    0.162689
    17  H    0.163593
    18  N   -0.138466
    19  N   -0.143316
    20  O   -0.271070
    21  O   -0.270703
    22  O   -0.273690
    23  O   -0.147919
    24  C   -0.196595
    25  H    0.176796
    26  H    0.179430
    27  H    0.183650
    28  C   -0.199567
    29  H    0.175677
    30  H    0.174856
    31  H    0.182982
    32  C    0.434882
    33  C   -0.465430
    34  S   -0.293643
    35  C   -0.176366
    36  H    0.115349
    37  C    0.315287
    38  O   -0.130819
    39  C    0.829628
    40  C   -0.226944
    41  C    0.026011
    42  S   -0.285259
    43  H    0.164903
    44  H    0.145536
    45  H    0.149374
    46  C   -0.553080
    47  O   -0.145542
    48  C   -0.308225
    49  H    0.128933
    50  C   -0.235429
    51  H    0.157194
    52  H    0.142525
    53  H    0.162792
    54  H    0.144257
 Sum of Mulliken charges =  -0.00000
 Mulliken charges with hydrogens summed into heavy atoms:
               1
     1  C    0.362242
     2  C    0.006055
     3  C    0.176047
     4  C    0.213704
     5  C    0.253537
     6  C   -0.343407
     7  C    0.206606
     8  C   -0.059548
     9  C    0.318550
    10  C   -0.284298
    11  C    0.264669
    12  C    0.160536
    13  C   -0.330956
    14  C   -0.471739
    18  N   -0.138466
    19  N   -0.143316
    20  O   -0.271070
    21  O   -0.270703
    22  O   -0.273690
    23  O   -0.147919
    24  C    0.343282
    28  C    0.333949
    32  C    0.434882
    33  C   -0.350080
    34  S   -0.293643
    35  C   -0.176366
    37  C    0.315287
    38  O   -0.130819
    39  C    0.829628
    40  C    0.232870
    41  C    0.026011
    42  S   -0.285259
    46  C   -0.424147
    47  O   -0.145542
    48  C   -0.151031
    50  C    0.214146
 Electronic spatial extent (au):  <R**2>=          22161.4462
 Charge=             -0.0000 electrons
 Dipole moment (field-independent basis, Debye):
    X=             -1.8900    Y=             -0.2158    Z=              0.1181  Tot=              1.9060
 Quadrupole moment (field-independent basis, Debye-Ang):
   XX=           -219.7484   YY=           -231.1021   ZZ=           -200.4012
   XY=             -5.2599   XZ=            -10.7125   YZ=              9.9432
 Traceless Quadrupole moment (field-independent basis, Debye-Ang):
   XX=             -2.6645   YY=            -14.0182   ZZ=             16.6827
   XY=             -5.2599   XZ=            -10.7125   YZ=              9.9432
 Octapole moment (field-independent basis, Debye-Ang**2):
  XXX=           -270.7292  YYY=            -13.5601  ZZZ=              0.0056  XYY=            -32.9731
  XXY=            -14.5613  XXZ=             49.9493  XZZ=            -77.9900  YZZ=             -8.9341
  YYZ=            -10.2450  XYZ=            -38.0635
 Hexadecapole moment (field-independent basis, Debye-Ang**3):
 XXXX=         -21423.0927 YYYY=          -6231.3304 ZZZZ=          -2164.6432 XXXY=             52.6143
 XXXZ=           -560.5232 YYYX=           -475.9575 YYYZ=            -29.6092 ZZZX=            -65.4627
 ZZZY=            128.0732 XXYY=          -4663.8193 XXZZ=          -3706.6714 YYZZ=          -1311.0341
 XXYZ=            205.8872 YYXZ=             80.1290 ZZXY=            -25.9063
 N-N= 4.094504645044D+03 E-N=-1.372916828766D+04  KE= 2.352049881655D+03
 Unable to Open any file for archive entry.
 1\1\GINC-CX3-6-21\FOpt\RB3LYP\6-311+G(d,p)\C26H18N2O6S2\NS5018\29-Nov-
 2020\0\\# opt=modredundant b3lyp/6-311+g(d,p)\\NDI_110.pdb\\0,1\C,-2.5
 071455569,-2.9413393595,-0.5308605858\C,-2.2282917274,-1.5001314119,-0
 .294274087\C,-3.2909536714,-0.5937708267,-0.0849904862\C,-4.6316980098
 ,-1.0390360155,-0.1012341468\C,-4.9460497898,-2.4720345147,-0.35187708
 27\C,-0.9285681188,-1.0465904065,-0.2922149127\C,-2.9943859438,0.77495
 14131,0.1600311106\C,-1.6447951172,1.226612315,0.1665629415\C,-0.60737
 93459,0.3201090343,-0.0906684432\C,-1.372194837,2.6443384776,0.5488722
 448\C,-3.8229123548,3.0974033612,0.6882646099\C,-4.0724729849,1.662828
 0697,0.3965392916\C,-5.3793258182,1.2060323293,0.3714700001\C,-5.66307
 62512,-0.1440679866,0.1205482414\H,-6.6834603739,-0.505324345,0.102509
 6953\H,-6.1760053039,1.9161365785,0.5538806784\H,-0.1285139207,-1.7521
 113637,-0.4771436235\N,-2.4825388134,3.4826812102,0.7632756879\N,-3.85
 25417207,-3.3306794483,-0.5500423111\O,-1.6258926898,-3.7620548573,-0.
 703373166\O,-6.089339569,-2.8860801575,-0.3823743574\O,-4.7296834591,3
 .8905256221,0.8663491143\O,-0.2558214258,3.1014605384,0.6848402094\C,-
 2.1732246365,4.8786679477,1.1070641402\H,-1.5831053909,4.9103266752,2.
 0229797414\H,-1.5891623825,5.3340340716,0.3071500476\H,-3.1134048397,5
 .404417309,1.2392153144\C,-4.1133485474,-4.756795168,-0.7952336907\H,-
 3.6793852615,-5.049712973,-1.7512393502\H,-3.6528864144,-5.3561438624,
 -0.0093986481\H,-5.1887218498,-4.9029986133,-0.8033119814\C,0.82449399
 73,0.670135645,-0.1867210531\C,1.8170069696,0.3453853235,0.7003137365\
 S,1.452431352,1.5210329788,-1.567246726\C,3.0938427725,0.8050720889,0.
 2820928451\H,1.6283030306,-0.17521647,1.6282440298\C,3.0925804717,1.46
 15850695,-0.940275291\O,4.26390877,0.6616626742,0.9640593244\C,4.21896
 12084,2.0063783157,-1.6554326354\C,4.2566632788,-0.1315340077,2.145332
 6766\C,4.2148915209,2.6579441999,-2.880718496\S,5.8671441631,1.9237861
 159,-1.0468298052\H,5.2864496055,-0.1525330052,2.4979506129\H,3.619433
 9049,0.3133789726,2.9168383381\H,3.9226551681,-1.1527824854,1.93387824
 41\C,5.4996148894,3.082267078,-3.321793715\O,3.0362311402,2.8316693015
 ,-3.5414940026\C,6.4817622261,2.7516641227,-2.4307056619\H,5.687992417
 ,3.6043476607,-4.2485581016\C,3.059729433,3.5355782801,-4.7775513588\H
 ,7.5392874465,2.9515693239,-2.508870543\H,3.6723893806,3.0123897291,-5
 .5192603044\H,2.0275270601,3.5701547098,-5.1220297702\H,3.4329859197,4
 .5564107355,-4.644538539\\Version=ES64L-G16RevC.01\State=1-A\HF=-2359.
 3349654\RMSD=3.955e-09\RMSF=3.761e-04\Dipole=0.7067368,0.1708486,-0.18
 3405\Quadrupole=-6.57908,-5.9995926,12.5786726,3.7044855,-1.0631621,-1
 1.530954\PG=C01 [X(C26H18N2O6S2)]\\@
 The archive entry for this job was punched.


 REFRAIN FROM ILLUSIONS, INSIST ON WORK AND NOT WORDS,
 PATIENTLY SEEK DIVINE AND SCIENTIFIC TRUTH.
 LAST WORDS OF MARIA MENDELEEVA TO HER SON DMITRI, C. 1850
 Job cpu time:       1 days  1 hours 10 minutes 33.6 seconds.
 Elapsed time:       0 days  3 hours 10 minutes 28.4 seconds.
 File lengths (MBytes):  RWF=    496 Int=      0 D2E=      0 Chk=     58 Scr=      1
 Normal termination of Gaussian 16 at Sun Nov 29 13:00:58 2020.
