 Entering Gaussian System, Link 0=g16
 Input=NDI_-160.gjf
 Output=NDI_-160.log
 Initial command:
 /apps/gaussian/g16-c01-avx/g16/l1.exe "/tmp/pbs.2625174[4].pbs/Gau-3990183.inp" -scrdir="/tmp/pbs.2625174[4].pbs/"
 Entering Link 1 = /apps/gaussian/g16-c01-avx/g16/l1.exe PID=   3990186.
  
 Copyright (c) 1988-2019, Gaussian, Inc.  All Rights Reserved.
  
 This is part of the Gaussian(R) 16 program.  It is based on
 the Gaussian(R) 09 system (copyright 2009, Gaussian, Inc.),
 the Gaussian(R) 03 system (copyright 2003, Gaussian, Inc.),
 the Gaussian(R) 98 system (copyright 1998, Gaussian, Inc.),
 the Gaussian(R) 94 system (copyright 1995, Gaussian, Inc.),
 the Gaussian 92(TM) system (copyright 1992, Gaussian, Inc.),
 the Gaussian 90(TM) system (copyright 1990, Gaussian, Inc.),
 the Gaussian 88(TM) system (copyright 1988, Gaussian, Inc.),
 the Gaussian 86(TM) system (copyright 1986, Carnegie Mellon
 University), and the Gaussian 82(TM) system (copyright 1983,
 Carnegie Mellon University). Gaussian is a federally registered
 trademark of Gaussian, Inc.
  
 This software contains proprietary and confidential information,
 including trade secrets, belonging to Gaussian, Inc.
  
 This software is provided under written license and may be
 used, copied, transmitted, or stored only in accord with that
 written license.
  
 The following legend is applicable only to US Government
 contracts under FAR:
  
                    RESTRICTED RIGHTS LEGEND
  
 Use, reproduction and disclosure by the US Government is
 subject to restrictions as set forth in subparagraphs (a)
 and (c) of the Commercial Computer Software - Restricted
 Rights clause in FAR 52.227-19.
  
 Gaussian, Inc.
 340 Quinnipiac St., Bldg. 40, Wallingford CT 06492
  
  
 ---------------------------------------------------------------
 Warning -- This program may not be used in any manner that
 competes with the business of Gaussian, Inc. or will provide
 assistance to any competitor of Gaussian, Inc.  The licensee
 of this program is prohibited from giving any competitor of
 Gaussian, Inc. access to this program.  By using this program,
 the user acknowledges that Gaussian, Inc. is engaged in the
 business of creating and licensing software in the field of
 computational chemistry and represents and warrants to the
 licensee that it is not a competitor of Gaussian, Inc. and that
 it will not use this program in any manner prohibited above.
 ---------------------------------------------------------------
  

 Cite this work as:
 Gaussian 16, Revision C.01,
 M. J. Frisch, G. W. Trucks, H. B. Schlegel, G. E. Scuseria, 
 M. A. Robb, J. R. Cheeseman, G. Scalmani, V. Barone, 
 G. A. Petersson, H. Nakatsuji, X. Li, M. Caricato, A. V. Marenich, 
 J. Bloino, B. G. Janesko, R. Gomperts, B. Mennucci, H. P. Hratchian, 
 J. V. Ortiz, A. F. Izmaylov, J. L. Sonnenberg, D. Williams-Young, 
 F. Ding, F. Lipparini, F. Egidi, J. Goings, B. Peng, A. Petrone, 
 T. Henderson, D. Ranasinghe, V. G. Zakrzewski, J. Gao, N. Rega, 
 G. Zheng, W. Liang, M. Hada, M. Ehara, K. Toyota, R. Fukuda, 
 J. Hasegawa, M. Ishida, T. Nakajima, Y. Honda, O. Kitao, H. Nakai, 
 T. Vreven, K. Throssell, J. A. Montgomery, Jr., J. E. Peralta, 
 F. Ogliaro, M. J. Bearpark, J. J. Heyd, E. N. Brothers, K. N. Kudin, 
 V. N. Staroverov, T. A. Keith, R. Kobayashi, J. Normand, 
 K. Raghavachari, A. P. Rendell, J. C. Burant, S. S. Iyengar, 
 J. Tomasi, M. Cossi, J. M. Millam, M. Klene, C. Adamo, R. Cammi, 
 J. W. Ochterski, R. L. Martin, K. Morokuma, O. Farkas, 
 J. B. Foresman, and D. J. Fox, Gaussian, Inc., Wallingford CT, 2019.
 
 ******************************************
 Gaussian 16:  ES64L-G16RevC.01  3-Jul-2019
                29-Nov-2020 
 ******************************************
 %mem=10GB
 %nprocshared=8
 Will use up to    8 processors via shared memory.
 -------------------------------------
 # opt=modredundant b3lyp/6-311+g(d,p)
 -------------------------------------
 1/18=120,19=15,26=3,38=1/1,3;
 2/9=110,12=2,17=6,18=5,40=1/2;
 3/5=4,6=6,7=111,11=2,25=1,30=1,71=1,74=-5/1,2,3;
 4//1;
 5/5=2,38=5/2;
 6/7=2,8=2,9=2,10=2,28=1/1;
 7//1,2,3,16;
 1/18=20,19=15,26=3/3(2);
 2/9=110/2;
 99//99;
 2/9=110/2;
 3/5=4,6=6,7=111,11=2,25=1,30=1,71=1,74=-5/1,2,3;
 4/5=5,16=3,69=1/1;
 5/5=2,38=5/2;
 7//1,2,3,16;
 1/18=20,19=15,26=3/3(-5);
 2/9=110/2;
 6/7=2,8=2,9=2,10=2,19=2,28=1/1;
 99/9=1/99;
 ------------
 NDI_-160.pdb
 ------------
 Symbolic Z-matrix:
 Charge =  0 Multiplicity = 1
 C                    -2.563    -2.994    -0.409 
 C                    -2.257    -1.551    -0.224 
 C                    -3.301    -0.607    -0.083 
 C                    -4.65     -1.024    -0.115 
 C                    -4.992    -2.459    -0.304 
 C                    -0.949    -1.137    -0.215 
 C                    -2.962     0.764     0.102 
 C                    -1.595     1.188     0.123 
 C                    -0.561     0.232    -0.072 
 C                    -1.328     2.616     0.446 
 C                    -3.777     3.115     0.508 
 C                    -4.035     1.679     0.268 
 C                    -5.356     1.252     0.23 
 C                    -5.672    -0.098     0.036 
 H                    -6.699    -0.442     0.008 
 H                    -6.133     1.997     0.361 
 H                    -0.19     -1.895    -0.369 
 N                    -2.432     3.476     0.608 
 N                    -3.916    -3.353    -0.438 
 O                    -1.695    -3.847    -0.532 
 O                    -6.149    -2.85     -0.34 
 O                    -4.676     3.938     0.629 
 O                    -0.212     3.097     0.596 
 C                    -2.111     4.875     0.912 
 H                    -1.54      4.931     1.84 
 H                    -1.5       5.299     0.111 
 H                    -3.05      5.414     1.003 
 C                    -4.206    -4.779    -0.625 
 H                    -3.759    -5.126    -1.559 
 H                    -3.775    -5.355     0.196 
 H                    -5.286    -4.897    -0.649 
 C                     0.876     0.482    -0.178 
 C                     1.891    -0.288    -0.712 
 S                     1.55      1.912     0.605 
 C                     3.175     0.252    -0.508 
 H                     1.708    -1.209    -1.242 
 C                     3.188     1.465     0.189 
 O                     4.355    -0.287    -0.916 
 C                     4.326     2.278     0.514 
 C                     4.296    -1.445    -1.745 
 C                     4.339     3.475     1.229 
 S                     5.97      1.867     0.034 
 H                     5.326    -1.667    -2.024 
 H                     3.875    -2.3      -1.202 
 H                     3.7      -1.258    -2.646 
 C                     5.634     4.045     1.385 
 O                     3.169     3.983     1.695 
 C                     6.604     3.283     0.791 
 H                     5.837     4.969     1.91 
 C                     3.218     5.187     2.451 
 H                     7.667     3.479     0.76 
 H                     3.615     6.017     1.853 
 H                     2.19      5.406     2.736 
 H                     3.829     5.065     3.354 
 
 The following ModRedundant input section has been read:
 D       8       9      32      33 F                                           
 D      33      35      38      40 F                                           
 D      46      41      47      50 F                                           
 D      10      18      24      25 F                                           
 D       1      19      28      30 F                                           
 D       9       8      10      23 F                                           
 D      20       1       2       6 F                                           
 

 GradGradGradGradGradGradGradGradGradGradGradGradGradGradGradGradGradGrad
 Berny optimization.
 Initialization pass.
                           ----------------------------
                           !    Initial Parameters    !
                           ! (Angstroms and Degrees)  !
 --------------------------                            --------------------------
 ! Name  Definition              Value          Derivative Info.                !
 --------------------------------------------------------------------------------
 ! R1    R(1,2)                  1.4866         estimate D2E/DX2                !
 ! R2    R(1,19)                 1.4001         estimate D2E/DX2                !
 ! R3    R(1,20)                 1.2232         estimate D2E/DX2                !
 ! R4    R(2,3)                  1.4146         estimate D2E/DX2                !
 ! R5    R(2,6)                  1.372          estimate D2E/DX2                !
 ! R6    R(3,4)                  1.4123         estimate D2E/DX2                !
 ! R7    R(3,7)                  1.4244         estimate D2E/DX2                !
 ! R8    R(4,5)                  1.4872         estimate D2E/DX2                !
 ! R9    R(4,14)                 1.3874         estimate D2E/DX2                !
 ! R10   R(5,19)                 1.4053         estimate D2E/DX2                !
 ! R11   R(5,21)                 1.2218         estimate D2E/DX2                !
 ! R12   R(6,9)                  1.4301         estimate D2E/DX2                !
 ! R13   R(6,17)                 1.0837         estimate D2E/DX2                !
 ! R14   R(7,8)                  1.4314         estimate D2E/DX2                !
 ! R15   R(7,12)                 1.4199         estimate D2E/DX2                !
 ! R16   R(8,9)                  1.4217         estimate D2E/DX2                !
 ! R17   R(8,10)                 1.4882         estimate D2E/DX2                !
 ! R18   R(9,32)                 1.4624         estimate D2E/DX2                !
 ! R19   R(10,18)                1.4088         estimate D2E/DX2                !
 ! R20   R(10,23)                1.2245         estimate D2E/DX2                !
 ! R21   R(11,12)                1.4786         estimate D2E/DX2                !
 ! R22   R(11,18)                1.3962         estimate D2E/DX2                !
 ! R23   R(11,22)                1.2248         estimate D2E/DX2                !
 ! R24   R(12,13)                1.3888         estimate D2E/DX2                !
 ! R25   R(13,14)                1.4            estimate D2E/DX2                !
 ! R26   R(13,16)                1.0844         estimate D2E/DX2                !
 ! R27   R(14,15)                1.0834         estimate D2E/DX2                !
 ! R28   R(18,24)                1.4672         estimate D2E/DX2                !
 ! R29   R(19,28)                1.4672         estimate D2E/DX2                !
 ! R30   R(24,25)                1.091          estimate D2E/DX2                !
 ! R31   R(24,26)                1.093          estimate D2E/DX2                !
 ! R32   R(24,27)                1.0865         estimate D2E/DX2                !
 ! R33   R(28,29)                1.0921         estimate D2E/DX2                !
 ! R34   R(28,30)                1.0916         estimate D2E/DX2                !
 ! R35   R(28,31)                1.0867         estimate D2E/DX2                !
 ! R36   R(32,33)                1.3814         estimate D2E/DX2                !
 ! R37   R(32,34)                1.7642         estimate D2E/DX2                !
 ! R38   R(33,35)                1.4078         estimate D2E/DX2                !
 ! R39   R(33,36)                1.0783         estimate D2E/DX2                !
 ! R40   R(34,37)                1.7481         estimate D2E/DX2                !
 ! R41   R(35,37)                1.3991         estimate D2E/DX2                !
 ! R42   R(35,38)                1.3599         estimate D2E/DX2                !
 ! R43   R(37,39)                1.4358         estimate D2E/DX2                !
 ! R44   R(38,40)                1.4254         estimate D2E/DX2                !
 ! R45   R(39,41)                1.3943         estimate D2E/DX2                !
 ! R46   R(39,42)                1.7613         estimate D2E/DX2                !
 ! R47   R(40,43)                1.09           estimate D2E/DX2                !
 ! R48   R(40,44)                1.0969         estimate D2E/DX2                !
 ! R49   R(40,45)                1.0964         estimate D2E/DX2                !
 ! R50   R(41,46)                1.4235         estimate D2E/DX2                !
 ! R51   R(41,47)                1.358          estimate D2E/DX2                !
 ! R52   R(42,48)                1.7263         estimate D2E/DX2                !
 ! R53   R(46,48)                1.3691         estimate D2E/DX2                !
 ! R54   R(46,49)                1.0819         estimate D2E/DX2                !
 ! R55   R(47,50)                1.4225         estimate D2E/DX2                !
 ! R56   R(48,51)                1.0814         estimate D2E/DX2                !
 ! R57   R(50,52)                1.0973         estimate D2E/DX2                !
 ! R58   R(50,53)                1.089          estimate D2E/DX2                !
 ! R59   R(50,54)                1.0971         estimate D2E/DX2                !
 ! A1    A(2,1,19)             116.767          estimate D2E/DX2                !
 ! A2    A(2,1,20)             122.9113         estimate D2E/DX2                !
 ! A3    A(19,1,20)            120.3217         estimate D2E/DX2                !
 ! A4    A(1,2,3)              120.5473         estimate D2E/DX2                !
 ! A5    A(1,2,6)              119.3369         estimate D2E/DX2                !
 ! A6    A(3,2,6)              120.1056         estimate D2E/DX2                !
 ! A7    A(2,3,4)              120.3743         estimate D2E/DX2                !
 ! A8    A(2,3,7)              118.662          estimate D2E/DX2                !
 ! A9    A(4,3,7)              120.9617         estimate D2E/DX2                !
 ! A10   A(3,4,5)              120.4909         estimate D2E/DX2                !
 ! A11   A(3,4,14)             120.2702         estimate D2E/DX2                !
 ! A12   A(5,4,14)             119.2382         estimate D2E/DX2                !
 ! A13   A(4,5,19)             116.7341         estimate D2E/DX2                !
 ! A14   A(4,5,21)             122.024          estimate D2E/DX2                !
 ! A15   A(19,5,21)            121.2418         estimate D2E/DX2                !
 ! A16   A(2,6,9)              123.2421         estimate D2E/DX2                !
 ! A17   A(2,6,17)             117.1119         estimate D2E/DX2                !
 ! A18   A(9,6,17)             119.589          estimate D2E/DX2                !
 ! A19   A(3,7,8)              120.9519         estimate D2E/DX2                !
 ! A20   A(3,7,12)             117.1037         estimate D2E/DX2                !
 ! A21   A(8,7,12)             121.944          estimate D2E/DX2                !
 ! A22   A(7,8,9)              119.5639         estimate D2E/DX2                !
 ! A23   A(7,8,10)             117.3064         estimate D2E/DX2                !
 ! A24   A(9,8,10)             122.9922         estimate D2E/DX2                !
 ! A25   A(6,9,8)              117.3944         estimate D2E/DX2                !
 ! A26   A(6,9,32)             115.0236         estimate D2E/DX2                !
 ! A27   A(8,9,32)             127.5648         estimate D2E/DX2                !
 ! A28   A(8,10,18)            118.042          estimate D2E/DX2                !
 ! A29   A(8,10,23)            124.5436         estimate D2E/DX2                !
 ! A30   A(18,10,23)           117.4097         estimate D2E/DX2                !
 ! A31   A(12,11,18)           115.5202         estimate D2E/DX2                !
 ! A32   A(12,11,22)           122.7205         estimate D2E/DX2                !
 ! A33   A(18,11,22)           121.7534         estimate D2E/DX2                !
 ! A34   A(7,12,11)            120.8614         estimate D2E/DX2                !
 ! A35   A(7,12,13)            121.162          estimate D2E/DX2                !
 ! A36   A(11,12,13)           117.9699         estimate D2E/DX2                !
 ! A37   A(12,13,14)           120.9948         estimate D2E/DX2                !
 ! A38   A(12,13,16)           117.8401         estimate D2E/DX2                !
 ! A39   A(14,13,16)           121.1642         estimate D2E/DX2                !
 ! A40   A(4,14,13)            119.5003         estimate D2E/DX2                !
 ! A41   A(4,14,15)            118.9169         estimate D2E/DX2                !
 ! A42   A(13,14,15)           121.5811         estimate D2E/DX2                !
 ! A43   A(10,18,11)           126.0753         estimate D2E/DX2                !
 ! A44   A(10,18,24)           115.7508         estimate D2E/DX2                !
 ! A45   A(11,18,24)           118.1737         estimate D2E/DX2                !
 ! A46   A(1,19,5)             125.0856         estimate D2E/DX2                !
 ! A47   A(1,19,28)            116.2868         estimate D2E/DX2                !
 ! A48   A(5,19,28)            118.6276         estimate D2E/DX2                !
 ! A49   A(18,24,25)           109.8574         estimate D2E/DX2                !
 ! A50   A(18,24,26)           109.8979         estimate D2E/DX2                !
 ! A51   A(18,24,27)           107.5355         estimate D2E/DX2                !
 ! A52   A(25,24,26)           108.1108         estimate D2E/DX2                !
 ! A53   A(25,24,27)           110.8301         estimate D2E/DX2                !
 ! A54   A(26,24,27)           110.6124         estimate D2E/DX2                !
 ! A55   A(19,28,29)           109.6906         estimate D2E/DX2                !
 ! A56   A(19,28,30)           109.8136         estimate D2E/DX2                !
 ! A57   A(19,28,31)           107.7461         estimate D2E/DX2                !
 ! A58   A(29,28,30)           108.2991         estimate D2E/DX2                !
 ! A59   A(29,28,31)           110.6959         estimate D2E/DX2                !
 ! A60   A(30,28,31)           110.5924         estimate D2E/DX2                !
 ! A61   A(9,32,33)            130.8979         estimate D2E/DX2                !
 ! A62   A(9,32,34)            118.8034         estimate D2E/DX2                !
 ! A63   A(33,32,34)           110.0401         estimate D2E/DX2                !
 ! A64   A(32,33,35)           113.5985         estimate D2E/DX2                !
 ! A65   A(32,33,36)           122.7802         estimate D2E/DX2                !
 ! A66   A(35,33,36)           123.6185         estimate D2E/DX2                !
 ! A67   A(32,34,37)            92.5847         estimate D2E/DX2                !
 ! A68   A(33,35,37)           114.4083         estimate D2E/DX2                !
 ! A69   A(33,35,38)           126.5764         estimate D2E/DX2                !
 ! A70   A(37,35,38)           119.0153         estimate D2E/DX2                !
 ! A71   A(34,37,35)           109.3628         estimate D2E/DX2                !
 ! A72   A(34,37,39)           122.9559         estimate D2E/DX2                !
 ! A73   A(35,37,39)           127.6655         estimate D2E/DX2                !
 ! A74   A(35,38,40)           117.4242         estimate D2E/DX2                !
 ! A75   A(37,39,41)           127.5561         estimate D2E/DX2                !
 ! A76   A(37,39,42)           123.0917         estimate D2E/DX2                !
 ! A77   A(41,39,42)           109.3522         estimate D2E/DX2                !
 ! A78   A(38,40,43)           105.9756         estimate D2E/DX2                !
 ! A79   A(38,40,44)           111.1765         estimate D2E/DX2                !
 ! A80   A(38,40,45)           111.217          estimate D2E/DX2                !
 ! A81   A(43,40,44)           109.3087         estimate D2E/DX2                !
 ! A82   A(43,40,45)           109.7607         estimate D2E/DX2                !
 ! A83   A(44,40,45)           109.338          estimate D2E/DX2                !
 ! A84   A(39,41,46)           114.1066         estimate D2E/DX2                !
 ! A85   A(39,41,47)           119.2795         estimate D2E/DX2                !
 ! A86   A(46,41,47)           126.6134         estimate D2E/DX2                !
 ! A87   A(39,42,48)            91.8275         estimate D2E/DX2                !
 ! A88   A(41,46,48)           111.9714         estimate D2E/DX2                !
 ! A89   A(41,46,49)           124.4609         estimate D2E/DX2                !
 ! A90   A(48,46,49)           123.5677         estimate D2E/DX2                !
 ! A91   A(41,47,50)           117.9897         estimate D2E/DX2                !
 ! A92   A(42,48,46)           112.7423         estimate D2E/DX2                !
 ! A93   A(42,48,51)           119.8102         estimate D2E/DX2                !
 ! A94   A(46,48,51)           127.4472         estimate D2E/DX2                !
 ! A95   A(47,50,52)           111.2868         estimate D2E/DX2                !
 ! A96   A(47,50,53)           106.0677         estimate D2E/DX2                !
 ! A97   A(47,50,54)           111.2534         estimate D2E/DX2                !
 ! A98   A(52,50,53)           109.3919         estimate D2E/DX2                !
 ! A99   A(52,50,54)           109.34           estimate D2E/DX2                !
 ! A100  A(53,50,54)           109.4314         estimate D2E/DX2                !
 ! D1    D(19,1,2,3)             0.1578         estimate D2E/DX2                !
 ! D2    D(19,1,2,6)          -178.6792         estimate D2E/DX2                !
 ! D3    D(20,1,2,3)          -179.8231         estimate D2E/DX2                !
 ! D4    D(20,1,2,6)             1.3399         Frozen                          !
 ! D5    D(2,1,19,5)            -0.124          estimate D2E/DX2                !
 ! D6    D(2,1,19,28)          179.8267         estimate D2E/DX2                !
 ! D7    D(20,1,19,5)          179.8575         estimate D2E/DX2                !
 ! D8    D(20,1,19,28)          -0.1919         estimate D2E/DX2                !
 ! D9    D(1,2,3,4)              0.0571         estimate D2E/DX2                !
 ! D10   D(1,2,3,7)            179.5453         estimate D2E/DX2                !
 ! D11   D(6,2,3,4)            178.8851         estimate D2E/DX2                !
 ! D12   D(6,2,3,7)             -1.6266         estimate D2E/DX2                !
 ! D13   D(1,2,6,9)            178.625          estimate D2E/DX2                !
 ! D14   D(1,2,6,17)             1.3881         estimate D2E/DX2                !
 ! D15   D(3,2,6,9)             -0.2173         estimate D2E/DX2                !
 ! D16   D(3,2,6,17)          -177.4541         estimate D2E/DX2                !
 ! D17   D(2,3,4,5)             -0.3074         estimate D2E/DX2                !
 ! D18   D(2,3,4,14)           179.3968         estimate D2E/DX2                !
 ! D19   D(7,3,4,5)           -179.7837         estimate D2E/DX2                !
 ! D20   D(7,3,4,14)            -0.0795         estimate D2E/DX2                !
 ! D21   D(2,3,7,8)              1.0523         estimate D2E/DX2                !
 ! D22   D(2,3,7,12)          -178.712          estimate D2E/DX2                !
 ! D23   D(4,3,7,8)           -179.4626         estimate D2E/DX2                !
 ! D24   D(4,3,7,12)             0.7731         estimate D2E/DX2                !
 ! D25   D(3,4,5,19)             0.3343         estimate D2E/DX2                !
 ! D26   D(3,4,5,21)          -179.7799         estimate D2E/DX2                !
 ! D27   D(14,4,5,19)         -179.3729         estimate D2E/DX2                !
 ! D28   D(14,4,5,21)            0.5129         estimate D2E/DX2                !
 ! D29   D(3,4,14,13)           -0.4559         estimate D2E/DX2                !
 ! D30   D(3,4,14,15)         -179.9937         estimate D2E/DX2                !
 ! D31   D(5,4,14,13)          179.252          estimate D2E/DX2                !
 ! D32   D(5,4,14,15)           -0.2858         estimate D2E/DX2                !
 ! D33   D(4,5,19,1)            -0.1141         estimate D2E/DX2                !
 ! D34   D(4,5,19,28)          179.9364         estimate D2E/DX2                !
 ! D35   D(21,5,19,1)          179.9992         estimate D2E/DX2                !
 ! D36   D(21,5,19,28)           0.0496         estimate D2E/DX2                !
 ! D37   D(2,6,9,8)              2.5984         estimate D2E/DX2                !
 ! D38   D(2,6,9,32)          -176.0103         estimate D2E/DX2                !
 ! D39   D(17,6,9,8)           179.77           estimate D2E/DX2                !
 ! D40   D(17,6,9,32)            1.1613         estimate D2E/DX2                !
 ! D41   D(3,7,8,9)              1.3551         estimate D2E/DX2                !
 ! D42   D(3,7,8,10)          -174.5099         estimate D2E/DX2                !
 ! D43   D(12,7,8,9)          -178.8921         estimate D2E/DX2                !
 ! D44   D(12,7,8,10)            5.2428         estimate D2E/DX2                !
 ! D45   D(3,7,12,11)          178.0768         estimate D2E/DX2                !
 ! D46   D(3,7,12,13)           -0.9621         estimate D2E/DX2                !
 ! D47   D(8,7,12,11)           -1.685          estimate D2E/DX2                !
 ! D48   D(8,7,12,13)          179.2761         estimate D2E/DX2                !
 ! D49   D(7,8,9,6)             -3.0809         estimate D2E/DX2                !
 ! D50   D(7,8,9,32)           175.3285         estimate D2E/DX2                !
 ! D51   D(10,8,9,6)           172.5381         estimate D2E/DX2                !
 ! D52   D(10,8,9,32)           -9.0525         estimate D2E/DX2                !
 ! D53   D(7,8,10,18)           -4.7549         estimate D2E/DX2                !
 ! D54   D(7,8,10,23)          174.4235         estimate D2E/DX2                !
 ! D55   D(9,8,10,18)          179.5335         estimate D2E/DX2                !
 ! D56   D(9,8,10,23)           -1.2882         Frozen                          !
 ! D57   D(6,9,32,33)           18.4193         estimate D2E/DX2                !
 ! D58   D(6,9,32,34)         -155.0963         estimate D2E/DX2                !
 ! D59   D(8,9,32,33)         -160.0222         Frozen                          !
 ! D60   D(8,9,32,34)           26.4622         estimate D2E/DX2                !
 ! D61   D(8,10,18,11)           0.7189         estimate D2E/DX2                !
 ! D62   D(8,10,18,24)        -179.4089         estimate D2E/DX2                !
 ! D63   D(23,10,18,11)       -178.5188         estimate D2E/DX2                !
 ! D64   D(23,10,18,24)          1.3535         estimate D2E/DX2                !
 ! D65   D(18,11,12,7)          -2.3856         estimate D2E/DX2                !
 ! D66   D(18,11,12,13)        176.6833         estimate D2E/DX2                !
 ! D67   D(22,11,12,7)         178.4862         estimate D2E/DX2                !
 ! D68   D(22,11,12,13)         -2.445          estimate D2E/DX2                !
 ! D69   D(12,11,18,10)          2.8444         estimate D2E/DX2                !
 ! D70   D(12,11,18,24)       -177.0251         estimate D2E/DX2                !
 ! D71   D(22,11,18,10)       -178.0181         estimate D2E/DX2                !
 ! D72   D(22,11,18,24)          2.1124         estimate D2E/DX2                !
 ! D73   D(7,12,13,14)           0.461          estimate D2E/DX2                !
 ! D74   D(7,12,13,16)        -179.8781         estimate D2E/DX2                !
 ! D75   D(11,12,13,14)       -178.6049         estimate D2E/DX2                !
 ! D76   D(11,12,13,16)          1.056          estimate D2E/DX2                !
 ! D77   D(12,13,14,4)           0.2708         estimate D2E/DX2                !
 ! D78   D(12,13,14,15)        179.7958         estimate D2E/DX2                !
 ! D79   D(16,13,14,4)        -179.3788         estimate D2E/DX2                !
 ! D80   D(16,13,14,15)          0.1463         estimate D2E/DX2                !
 ! D81   D(10,18,24,25)        -59.609          Frozen                          !
 ! D82   D(10,18,24,26)         59.2209         estimate D2E/DX2                !
 ! D83   D(10,18,24,27)        179.6858         estimate D2E/DX2                !
 ! D84   D(11,18,24,25)        120.2739         estimate D2E/DX2                !
 ! D85   D(11,18,24,26)       -120.8962         estimate D2E/DX2                !
 ! D86   D(11,18,24,27)         -0.4313         estimate D2E/DX2                !
 ! D87   D(1,19,28,29)         -58.1407         estimate D2E/DX2                !
 ! D88   D(1,19,28,30)          60.7668         Frozen                          !
 ! D89   D(1,19,28,31)        -178.7139         estimate D2E/DX2                !
 ! D90   D(5,19,28,29)         121.8132         estimate D2E/DX2                !
 ! D91   D(5,19,28,30)        -119.2792         estimate D2E/DX2                !
 ! D92   D(5,19,28,31)           1.2401         estimate D2E/DX2                !
 ! D93   D(9,32,33,35)        -174.2482         estimate D2E/DX2                !
 ! D94   D(9,32,33,36)           6.3308         estimate D2E/DX2                !
 ! D95   D(34,32,33,35)         -0.2948         estimate D2E/DX2                !
 ! D96   D(34,32,33,36)       -179.7158         estimate D2E/DX2                !
 ! D97   D(9,32,34,37)         175.3645         estimate D2E/DX2                !
 ! D98   D(33,32,34,37)          0.5778         estimate D2E/DX2                !
 ! D99   D(32,33,35,37)         -0.2529         estimate D2E/DX2                !
 ! D100  D(32,33,35,38)        179.7327         estimate D2E/DX2                !
 ! D101  D(36,33,35,37)        179.1625         estimate D2E/DX2                !
 ! D102  D(36,33,35,38)         -0.8518         estimate D2E/DX2                !
 ! D103  D(32,34,37,35)         -0.7053         estimate D2E/DX2                !
 ! D104  D(32,34,37,39)        177.9493         estimate D2E/DX2                !
 ! D105  D(33,35,37,34)          0.6771         estimate D2E/DX2                !
 ! D106  D(33,35,37,39)       -177.8968         estimate D2E/DX2                !
 ! D107  D(38,35,37,34)       -179.3097         estimate D2E/DX2                !
 ! D108  D(38,35,37,39)          2.1164         estimate D2E/DX2                !
 ! D109  D(33,35,38,40)          6.5855         Frozen                          !
 ! D110  D(37,35,38,40)       -173.4294         estimate D2E/DX2                !
 ! D111  D(34,37,39,41)          2.8188         estimate D2E/DX2                !
 ! D112  D(34,37,39,42)       -177.1812         estimate D2E/DX2                !
 ! D113  D(35,37,39,41)       -178.7847         estimate D2E/DX2                !
 ! D114  D(35,37,39,42)          1.2154         estimate D2E/DX2                !
 ! D115  D(35,38,40,43)        175.5082         estimate D2E/DX2                !
 ! D116  D(35,38,40,44)        -65.8223         estimate D2E/DX2                !
 ! D117  D(35,38,40,45)         56.2737         estimate D2E/DX2                !
 ! D118  D(37,39,41,46)       -179.9572         estimate D2E/DX2                !
 ! D119  D(37,39,41,47)         -0.192          estimate D2E/DX2                !
 ! D120  D(42,39,41,46)          0.0428         estimate D2E/DX2                !
 ! D121  D(42,39,41,47)        179.8079         estimate D2E/DX2                !
 ! D122  D(37,39,42,48)        179.9769         estimate D2E/DX2                !
 ! D123  D(41,39,42,48)         -0.023          estimate D2E/DX2                !
 ! D124  D(39,41,46,48)         -0.0457         estimate D2E/DX2                !
 ! D125  D(39,41,46,49)       -179.9622         estimate D2E/DX2                !
 ! D126  D(47,41,46,48)       -179.7905         estimate D2E/DX2                !
 ! D127  D(47,41,46,49)          0.293          estimate D2E/DX2                !
 ! D128  D(39,41,47,50)        178.3759         estimate D2E/DX2                !
 ! D129  D(46,41,47,50)         -1.8911         Frozen                          !
 ! D130  D(39,42,48,46)         -0.0022         estimate D2E/DX2                !
 ! D131  D(39,42,48,51)        179.8401         estimate D2E/DX2                !
 ! D132  D(41,46,48,42)          0.0267         estimate D2E/DX2                !
 ! D133  D(41,46,48,51)       -179.8009         estimate D2E/DX2                !
 ! D134  D(49,46,48,42)        179.9441         estimate D2E/DX2                !
 ! D135  D(49,46,48,51)          0.1165         estimate D2E/DX2                !
 ! D136  D(41,47,50,52)         62.0106         estimate D2E/DX2                !
 ! D137  D(41,47,50,53)       -179.1049         estimate D2E/DX2                !
 ! D138  D(41,47,50,54)        -60.1911         estimate D2E/DX2                !
 --------------------------------------------------------------------------------
 Trust Radius=3.00D-01 FncErr=1.00D-07 GrdErr=1.00D-06 EigMax=2.50D+02 EigMin=1.00D-04
 Number of steps in this run=    307 maximum allowed number of steps=    324.
 GradGradGradGradGradGradGradGradGradGradGradGradGradGradGradGradGradGrad

 Stoichiometry    C26H18N2O6S2
 Framework group  C1[X(C26H18N2O6S2)]
 Deg. of freedom   156
 Full point group                 C1      NOp   1
 Largest Abelian subgroup         C1      NOp   1
 Largest concise Abelian subgroup C1      NOp   1
                         Standard orientation:                         
 ---------------------------------------------------------------------
 Center     Atomic      Atomic             Coordinates (Angstroms)
 Number     Number       Type             X           Y           Z
 ---------------------------------------------------------------------
      1          6           0       -3.798177   -2.556298    0.375829
      2          6           0       -2.929902   -1.365734    0.178936
      3          6           0       -3.497717   -0.079269    0.025485
      4          6           0       -4.899333    0.091290    0.058592
      5          6           0       -5.797642   -1.078749    0.248224
      6          6           0       -1.568732   -1.528314    0.123037
      7          6           0       -2.627930    1.034783   -0.150993
      8          6           0       -1.207920    0.860255   -0.195929
      9          6           0       -0.658183   -0.446660   -0.091621
     10          6           0       -0.370637    2.089072   -0.257300
     11          6           0       -2.406024    3.531992   -0.417391
     12          6           0       -3.231870    2.313972   -0.273639
     13          6           0       -4.612332    2.462898   -0.242648
     14          6           0       -5.453429    1.355659   -0.079641
     15          1           0       -6.531327    1.461280   -0.050845
     16          1           0       -5.016038    3.464319   -0.343104
     17          1           0       -1.188427   -2.539820    0.204186
     18          7           0       -1.025114    3.331480   -0.370186
     19          7           0       -5.180136   -2.332449    0.396176
     20          8           0       -3.353651   -3.687178    0.516074
     21          8           0       -7.013701   -0.963943    0.277299
     22          8           0       -2.890983    4.648547   -0.552634
     23          8           0        0.852542    2.099269   -0.202110
     24          6           0       -0.151472    4.508130   -0.440194
     25          1           0        0.464278    4.566537    0.458584
     26          1           0        0.514122    4.426445   -1.303334
     27          1           0       -0.788336    5.383857   -0.529801
     28          6           0       -6.027173   -3.515073    0.587161
     29          1           0       -5.828592   -4.241505   -0.203684
     30          1           0       -5.799174   -3.982404    1.546951
     31          1           0       -7.063268   -3.188686    0.557512
     32          6           0        0.746785   -0.834977   -0.209859
     33          6           0        1.327066   -2.058611   -0.482392
     34         16           0        1.992357    0.350127    0.185544
     35          6           0        2.731464   -2.050525   -0.385053
     36          1           0        0.752406   -2.929929   -0.752950
     37          6           0        3.279794   -0.811145   -0.037754
     38          8           0        3.564221   -3.105509   -0.592201
     39          6           0        4.668695   -0.473251    0.097958
     40          6           0        2.985561   -4.312165   -1.082937
     41          6           0        5.212044    0.756741    0.466868
     42         16           0        5.971015   -1.621896   -0.196382
     43          1           0        3.817294   -4.995044   -1.255915
     44          1           0        2.302251   -4.752120   -0.346295
     45          1           0        2.445748   -4.140249   -2.021571
     46          6           0        6.634739    0.774305    0.510353
     47          8           0        4.380559    1.795473    0.738509
     48          6           0        7.172446   -0.439644    0.176317
     49          1           0        7.228491    1.638886    0.775999
     50          6           0        4.962761    3.027666    1.146298
     51          1           0        8.219807   -0.704930    0.131549
     52          1           0        5.609945    3.441160    0.362532
     53          1           0        4.132125    3.708657    1.325926
     54          1           0        5.542309    2.907252    2.070006
 ---------------------------------------------------------------------
 Rotational constants (GHZ):           0.1733019           0.0582302           0.0443986
 Standard basis: 6-311+G(d,p) (5D, 7F)
 There are   952 symmetry adapted cartesian basis functions of A   symmetry.
 There are   916 symmetry adapted basis functions of A   symmetry.
   916 basis functions,  1468 primitive gaussians,   952 cartesian basis functions
   134 alpha electrons      134 beta electrons
       nuclear repulsion energy      4123.0705471861 Hartrees.
 NAtoms=   54 NActive=   54 NUniq=   54 SFac= 1.00D+00 NAtFMM=   60 NAOKFM=F Big=F
 Integral buffers will be    131072 words long.
 Raffenetti 2 integral format.
 Two-electron integral symmetry is turned on.
 One-electron integrals computed using PRISM.
 NBasis=   916 RedAO= T EigKep=  1.32D-06  NBF=   916
 NBsUse=   901 1.00D-06 EigRej=  6.95D-07 NBFU=   901
 ExpMin= 4.05D-02 ExpMax= 9.34D+04 ExpMxC= 3.17D+03 IAcc=3 IRadAn=         5 AccDes= 0.00D+00
 Harris functional with IExCor=  402 and IRadAn=       5 diagonalized for initial guess.
 HarFok:  IExCor=  402 AccDes= 0.00D+00 IRadAn=         5 IDoV= 1 UseB2=F ITyADJ=14
 ICtDFT=  3500011 ScaDFX=  1.000000  1.000000  1.000000  1.000000
 FoFCou: FMM=F IPFlag=           0 FMFlag=      100000 FMFlg1=           0
         NFxFlg=           0 DoJE=T BraDBF=F KetDBF=T FulRan=T
         wScrn=  0.000000 ICntrl=       500 IOpCl=  0 I1Cent=   200000004 NGrid=           0
         NMat0=    1 NMatS0=      1 NMatT0=    0 NMatD0=    1 NMtDS0=    0 NMtDT0=    0
 Petite list used in FoFCou.
 Requested convergence on RMS density matrix=1.00D-08 within 128 cycles.
 Requested convergence on MAX density matrix=1.00D-06.
 Requested convergence on             energy=1.00D-06.
 No special actions if energy rises.
 SCF Done:  E(RB3LYP) =  -2359.30483720     A.U. after   17 cycles
            NFock= 17  Conv=0.75D-08     -V/T= 2.0031

 **********************************************************************

            Population analysis using the SCF Density.

 **********************************************************************

 Orbital symmetries:
       Occupied  (A) (A) (A) (A) (A) (A) (A) (A) (A) (A) (A) (A)
                 (A) (A) (A) (A) (A) (A) (A) (A) (A) (A) (A) (A)
                 (A) (A) (A) (A) (A) (A) (A) (A) (A) (A) (A) (A)
                 (A) (A) (A) (A) (A) (A) (A) (A) (A) (A) (A) (A)
                 (A) (A) (A) (A) (A) (A) (A) (A) (A) (A) (A) (A)
                 (A) (A) (A) (A) (A) (A) (A) (A) (A) (A) (A) (A)
                 (A) (A) (A) (A) (A) (A) (A) (A) (A) (A) (A) (A)
                 (A) (A) (A) (A) (A) (A) (A) (A) (A) (A) (A) (A)
                 (A) (A) (A) (A) (A) (A) (A) (A) (A) (A) (A) (A)
                 (A) (A) (A) (A) (A) (A) (A) (A) (A) (A) (A) (A)
                 (A) (A) (A) (A) (A) (A) (A) (A) (A) (A) (A) (A)
                 (A) (A)
       Virtual   (A) (A) (A) (A) (A) (A) (A) (A) (A) (A) (A) (A)
                 (A) (A) (A) (A) (A) (A) (A) (A) (A) (A) (A) (A)
                 (A) (A) (A) (A) (A) (A) (A) (A) (A) (A) (A) (A)
                 (A) (A) (A) (A) (A) (A) (A) (A) (A) (A) (A) (A)
                 (A) (A) (A) (A) (A) (A) (A) (A) (A) (A) (A) (A)
                 (A) (A) (A) (A) (A) (A) (A) (A) (A) (A) (A) (A)
                 (A) (A) (A) (A) (A) (A) (A) (A) (A) (A) (A) (A)
                 (A) (A) (A) (A) (A) (A) (A) (A) (A) (A) (A) (A)
                 (A) (A) (A) (A) (A) (A) (A) (A) (A) (A) (A) (A)
                 (A) (A) (A) (A) (A) (A) (A) (A) (A) (A) (A) (A)
                 (A) (A) (A) (A) (A) (A) (A) (A) (A) (A) (A) (A)
                 (A) (A) (A) (A) (A) (A) (A) (A) (A) (A) (A) (A)
                 (A) (A) (A) (A) (A) (A) (A) (A) (A) (A) (A) (A)
                 (A) (A) (A) (A) (A) (A) (A) (A) (A) (A) (A) (A)
                 (A) (A) (A) (A) (A) (A) (A) (A) (A) (A) (A) (A)
                 (A) (A) (A) (A) (A) (A) (A) (A) (A) (A) (A) (A)
                 (A) (A) (A) (A) (A) (A) (A) (A) (A) (A) (A) (A)
                 (A) (A) (A) (A) (A) (A) (A) (A) (A) (A) (A) (A)
                 (A) (A) (A) (A) (A) (A) (A) (A) (A) (A) (A) (A)
                 (A) (A) (A) (A) (A) (A) (A) (A) (A) (A) (A) (A)
                 (A) (A) (A) (A) (A) (A) (A) (A) (A) (A) (A) (A)
                 (A) (A) (A) (A) (A) (A) (A) (A) (A) (A) (A) (A)
                 (A) (A) (A) (A) (A) (A) (A) (A) (A) (A) (A) (A)
                 (A) (A) (A) (A) (A) (A) (A) (A) (A) (A) (A) (A)
                 (A) (A) (A) (A) (A) (A) (A) (A) (A) (A) (A) (A)
                 (A) (A) (A) (A) (A) (A) (A) (A) (A) (A) (A) (A)
                 (A) (A) (A) (A) (A) (A) (A) (A) (A) (A) (A) (A)
                 (A) (A) (A) (A) (A) (A) (A) (A) (A) (A) (A) (A)
                 (A) (A) (A) (A) (A) (A) (A) (A) (A) (A) (A) (A)
                 (A) (A) (A) (A) (A) (A) (A) (A) (A) (A) (A) (A)
                 (A) (A) (A) (A) (A) (A) (A) (A) (A) (A) (A) (A)
                 (A) (A) (A) (A) (A) (A) (A) (A) (A) (A) (A) (A)
                 (A) (A) (A) (A) (A) (A) (A) (A) (A) (A) (A) (A)
                 (A) (A) (A) (A) (A) (A) (A) (A) (A) (A) (A) (A)
                 (A) (A) (A) (A) (A) (A) (A) (A) (A) (A) (A) (A)
                 (A) (A) (A) (A) (A) (A) (A) (A) (A) (A) (A) (A)
                 (A) (A) (A) (A) (A) (A) (A) (A) (A) (A) (A) (A)
                 (A) (A) (A) (A) (A) (A) (A) (A) (A) (A) (A) (A)
                 (A) (A) (A) (A) (A) (A) (A) (A) (A) (A) (A) (A)
                 (A) (A) (A) (A) (A) (A) (A) (A) (A) (A) (A) (A)
                 (A) (A) (A) (A) (A) (A) (A) (A) (A) (A) (A) (A)
                 (A) (A) (A) (A) (A) (A) (A) (A) (A) (A) (A) (A)
                 (A) (A) (A) (A) (A) (A) (A) (A) (A) (A) (A) (A)
                 (A) (A) (A) (A) (A) (A) (A) (A) (A) (A) (A) (A)
                 (A) (A) (A) (A) (A) (A) (A) (A) (A) (A) (A) (A)
                 (A) (A) (A) (A) (A) (A) (A) (A) (A) (A) (A) (A)
                 (A) (A) (A) (A) (A) (A) (A) (A) (A) (A) (A) (A)
                 (A) (A) (A) (A) (A) (A) (A) (A) (A) (A) (A) (A)
                 (A) (A) (A) (A) (A) (A) (A) (A) (A) (A) (A) (A)
                 (A) (A) (A) (A) (A) (A) (A) (A) (A) (A) (A) (A)
                 (A) (A) (A) (A) (A) (A) (A) (A) (A) (A) (A) (A)
                 (A) (A) (A) (A) (A) (A) (A) (A) (A) (A) (A) (A)
                 (A) (A) (A) (A) (A) (A) (A) (A) (A) (A) (A) (A)
                 (A) (A) (A) (A) (A) (A) (A) (A) (A) (A) (A) (A)
                 (A) (A) (A) (A) (A) (A) (A) (A) (A) (A) (A) (A)
                 (A) (A) (A) (A) (A) (A) (A) (A) (A) (A) (A) (A)
                 (A) (A) (A) (A) (A) (A) (A) (A) (A) (A) (A) (A)
                 (A) (A) (A) (A) (A) (A) (A) (A) (A) (A) (A) (A)
                 (A) (A) (A) (A) (A) (A) (A) (A) (A) (A) (A) (A)
                 (A) (A) (A) (A) (A) (A) (A) (A) (A) (A) (A) (A)
                 (A) (A) (A) (A) (A) (A) (A) (A) (A) (A) (A) (A)
                 (A) (A) (A) (A) (A) (A) (A) (A) (A) (A) (A) (A)
                 (A) (A) (A) (A) (A) (A) (A) (A) (A) (A) (A) (A)
                 (A) (A) (A) (A) (A) (A) (A) (A) (A) (A) (A)
 The electronic state is 1-A.
 Alpha  occ. eigenvalues --  -88.88234 -88.87228 -19.16925 -19.16841 -19.12910
 Alpha  occ. eigenvalues --  -19.12386 -19.12331 -19.11582 -14.38614 -14.38460
 Alpha  occ. eigenvalues --  -10.31253 -10.30976 -10.30913 -10.30261 -10.24767
 Alpha  occ. eigenvalues --  -10.24380 -10.24022 -10.23726 -10.23645 -10.22902
 Alpha  occ. eigenvalues --  -10.22563 -10.22366 -10.22234 -10.22129 -10.22075
 Alpha  occ. eigenvalues --  -10.21718 -10.21560 -10.21476 -10.21041 -10.20982
 Alpha  occ. eigenvalues --  -10.20942 -10.20847 -10.20833 -10.20697 -10.19018
 Alpha  occ. eigenvalues --  -10.18932  -7.96784  -7.95695  -5.93090  -5.92705
 Alpha  occ. eigenvalues --   -5.92357  -5.92014  -5.91581  -5.91236  -1.09274
 Alpha  occ. eigenvalues --   -1.08518  -1.08372  -1.08358  -1.06491  -1.06448
 Alpha  occ. eigenvalues --   -0.96190  -0.96047  -0.92191  -0.89852  -0.88495
 Alpha  occ. eigenvalues --   -0.86350  -0.84085  -0.80233  -0.78287  -0.77419
 Alpha  occ. eigenvalues --   -0.76277  -0.75194  -0.75122  -0.72996  -0.72547
 Alpha  occ. eigenvalues --   -0.71749  -0.70331  -0.68732  -0.67133  -0.65865
 Alpha  occ. eigenvalues --   -0.65355  -0.64963  -0.60677  -0.59768  -0.58647
 Alpha  occ. eigenvalues --   -0.57491  -0.56706  -0.56249  -0.55280  -0.54599
 Alpha  occ. eigenvalues --   -0.53700  -0.51675  -0.50589  -0.50143  -0.49721
 Alpha  occ. eigenvalues --   -0.49506  -0.49053  -0.48559  -0.48520  -0.48292
 Alpha  occ. eigenvalues --   -0.48034  -0.47917  -0.46704  -0.46153  -0.46125
 Alpha  occ. eigenvalues --   -0.45487  -0.45078  -0.44440  -0.44159  -0.43763
 Alpha  occ. eigenvalues --   -0.42856  -0.42688  -0.42122  -0.41866  -0.41693
 Alpha  occ. eigenvalues --   -0.41535  -0.41268  -0.41196  -0.40651  -0.39987
 Alpha  occ. eigenvalues --   -0.39568  -0.38916  -0.38633  -0.37461  -0.36999
 Alpha  occ. eigenvalues --   -0.36228  -0.35780  -0.34181  -0.33925  -0.33620
 Alpha  occ. eigenvalues --   -0.33263  -0.32124  -0.30582  -0.30055  -0.29514
 Alpha  occ. eigenvalues --   -0.29253  -0.29139  -0.28583  -0.27352  -0.26767
 Alpha  occ. eigenvalues --   -0.26019  -0.24612  -0.22954  -0.19304
 Alpha virt. eigenvalues --   -0.12935  -0.07333  -0.06597  -0.04677  -0.03700
 Alpha virt. eigenvalues --   -0.00874  -0.00432  -0.00369  -0.00043   0.00521
 Alpha virt. eigenvalues --    0.00939   0.00951   0.01315   0.01828   0.01951
 Alpha virt. eigenvalues --    0.02209   0.02534   0.02769   0.03033   0.03428
 Alpha virt. eigenvalues --    0.03492   0.03767   0.04084   0.04617   0.04718
 Alpha virt. eigenvalues --    0.04814   0.04995   0.05346   0.05647   0.05993
 Alpha virt. eigenvalues --    0.06137   0.06309   0.06775   0.06932   0.07063
 Alpha virt. eigenvalues --    0.07552   0.07569   0.07849   0.08267   0.08330
 Alpha virt. eigenvalues --    0.08598   0.08831   0.09038   0.09356   0.09687
 Alpha virt. eigenvalues --    0.09746   0.09926   0.10231   0.10421   0.10806
 Alpha virt. eigenvalues --    0.11021   0.11366   0.11539   0.12036   0.12407
 Alpha virt. eigenvalues --    0.12499   0.12716   0.13214   0.13242   0.13507
 Alpha virt. eigenvalues --    0.13651   0.13784   0.14017   0.14272   0.14531
 Alpha virt. eigenvalues --    0.14723   0.14881   0.14965   0.15191   0.15467
 Alpha virt. eigenvalues --    0.15559   0.15854   0.16029   0.16198   0.16761
 Alpha virt. eigenvalues --    0.16892   0.17121   0.17399   0.17550   0.17816
 Alpha virt. eigenvalues --    0.17912   0.17998   0.18267   0.18435   0.18532
 Alpha virt. eigenvalues --    0.19119   0.19287   0.19484   0.19638   0.19737
 Alpha virt. eigenvalues --    0.19827   0.20038   0.20164   0.20418   0.20562
 Alpha virt. eigenvalues --    0.20779   0.21011   0.21053   0.21193   0.21340
 Alpha virt. eigenvalues --    0.21499   0.21874   0.22166   0.22419   0.22637
 Alpha virt. eigenvalues --    0.22855   0.23013   0.23304   0.23550   0.23702
 Alpha virt. eigenvalues --    0.23928   0.24077   0.24186   0.24358   0.24775
 Alpha virt. eigenvalues --    0.24823   0.24849   0.25131   0.25178   0.25539
 Alpha virt. eigenvalues --    0.25678   0.25841   0.26244   0.26313   0.26433
 Alpha virt. eigenvalues --    0.26675   0.26734   0.26980   0.27145   0.27344
 Alpha virt. eigenvalues --    0.27538   0.27747   0.28019   0.28302   0.28454
 Alpha virt. eigenvalues --    0.28762   0.28817   0.29102   0.29249   0.29346
 Alpha virt. eigenvalues --    0.29671   0.29990   0.30601   0.30883   0.31075
 Alpha virt. eigenvalues --    0.31322   0.31488   0.31821   0.32048   0.32172
 Alpha virt. eigenvalues --    0.32502   0.32599   0.32745   0.33125   0.33428
 Alpha virt. eigenvalues --    0.33889   0.34166   0.34437   0.34541   0.34844
 Alpha virt. eigenvalues --    0.35364   0.35665   0.35744   0.35962   0.36203
 Alpha virt. eigenvalues --    0.36532   0.37280   0.37366   0.37817   0.37847
 Alpha virt. eigenvalues --    0.37907   0.38664   0.39092   0.39461   0.39823
 Alpha virt. eigenvalues --    0.40433   0.41010   0.41332   0.41637   0.42571
 Alpha virt. eigenvalues --    0.42690   0.42909   0.43403   0.43775   0.44310
 Alpha virt. eigenvalues --    0.44376   0.44641   0.44891   0.45066   0.45587
 Alpha virt. eigenvalues --    0.45759   0.45845   0.46179   0.46592   0.46968
 Alpha virt. eigenvalues --    0.48037   0.48185   0.48662   0.49055   0.49324
 Alpha virt. eigenvalues --    0.49825   0.49905   0.50559   0.50828   0.51781
 Alpha virt. eigenvalues --    0.52334   0.52947   0.53207   0.53861   0.54242
 Alpha virt. eigenvalues --    0.54456   0.54851   0.54993   0.55516   0.55648
 Alpha virt. eigenvalues --    0.55969   0.56416   0.56571   0.56915   0.57475
 Alpha virt. eigenvalues --    0.57724   0.57869   0.58891   0.59301   0.59527
 Alpha virt. eigenvalues --    0.60016   0.60115   0.61032   0.61321   0.61528
 Alpha virt. eigenvalues --    0.61865   0.62406   0.62746   0.62996   0.63587
 Alpha virt. eigenvalues --    0.63966   0.64208   0.64457   0.64678   0.65194
 Alpha virt. eigenvalues --    0.65386   0.65515   0.65755   0.66188   0.66584
 Alpha virt. eigenvalues --    0.66969   0.67244   0.67449   0.68050   0.68323
 Alpha virt. eigenvalues --    0.68748   0.69247   0.69770   0.70115   0.70444
 Alpha virt. eigenvalues --    0.70622   0.71246   0.71416   0.71945   0.72235
 Alpha virt. eigenvalues --    0.72238   0.72905   0.73425   0.73513   0.74011
 Alpha virt. eigenvalues --    0.74628   0.74696   0.74911   0.75231   0.75745
 Alpha virt. eigenvalues --    0.75934   0.76472   0.76884   0.77249   0.77736
 Alpha virt. eigenvalues --    0.77899   0.78434   0.78890   0.79477   0.80076
 Alpha virt. eigenvalues --    0.80148   0.80763   0.81430   0.81967   0.82499
 Alpha virt. eigenvalues --    0.83612   0.83932   0.84712   0.85038   0.86573
 Alpha virt. eigenvalues --    0.86669   0.87180   0.88079   0.88328   0.88598
 Alpha virt. eigenvalues --    0.88782   0.89409   0.90845   0.91325   0.91623
 Alpha virt. eigenvalues --    0.92000   0.92199   0.92364   0.93103   0.93441
 Alpha virt. eigenvalues --    0.93887   0.93958   0.94530   0.94874   0.95374
 Alpha virt. eigenvalues --    0.95722   0.96509   0.96981   0.97162   0.97231
 Alpha virt. eigenvalues --    0.98035   0.98751   0.99333   0.99704   1.00616
 Alpha virt. eigenvalues --    1.01093   1.01173   1.01655   1.02467   1.02725
 Alpha virt. eigenvalues --    1.02865   1.03297   1.03680   1.03864   1.04734
 Alpha virt. eigenvalues --    1.05037   1.05562   1.05945   1.06204   1.06617
 Alpha virt. eigenvalues --    1.06727   1.07864   1.08277   1.08781   1.09222
 Alpha virt. eigenvalues --    1.09270   1.10055   1.10363   1.10623   1.11065
 Alpha virt. eigenvalues --    1.11808   1.12704   1.13174   1.14631   1.15148
 Alpha virt. eigenvalues --    1.15240   1.16775   1.17432   1.17754   1.18265
 Alpha virt. eigenvalues --    1.18525   1.19779   1.19872   1.20668   1.21611
 Alpha virt. eigenvalues --    1.22604   1.22874   1.24218   1.25223   1.25482
 Alpha virt. eigenvalues --    1.25782   1.26049   1.26424   1.26929   1.27601
 Alpha virt. eigenvalues --    1.28409   1.29457   1.30198   1.30994   1.31144
 Alpha virt. eigenvalues --    1.32508   1.32947   1.33874   1.35001   1.35239
 Alpha virt. eigenvalues --    1.36043   1.37557   1.37647   1.38382   1.40086
 Alpha virt. eigenvalues --    1.41198   1.41857   1.41934   1.42256   1.42567
 Alpha virt. eigenvalues --    1.42701   1.43041   1.43531   1.44096   1.44538
 Alpha virt. eigenvalues --    1.44928   1.45343   1.45638   1.45662   1.46259
 Alpha virt. eigenvalues --    1.47068   1.47553   1.48120   1.49132   1.49560
 Alpha virt. eigenvalues --    1.50370   1.51069   1.51297   1.52289   1.52552
 Alpha virt. eigenvalues --    1.53776   1.54086   1.54208   1.54539   1.55105
 Alpha virt. eigenvalues --    1.55552   1.55743   1.55827   1.56259   1.57104
 Alpha virt. eigenvalues --    1.58158   1.58298   1.59308   1.60963   1.61428
 Alpha virt. eigenvalues --    1.62319   1.62706   1.63349   1.63969   1.64785
 Alpha virt. eigenvalues --    1.66084   1.66523   1.66934   1.67234   1.67418
 Alpha virt. eigenvalues --    1.68090   1.68473   1.68950   1.69648   1.69666
 Alpha virt. eigenvalues --    1.70109   1.70453   1.70816   1.71093   1.71793
 Alpha virt. eigenvalues --    1.73187   1.73799   1.74375   1.75216   1.75619
 Alpha virt. eigenvalues --    1.76587   1.76820   1.77111   1.77990   1.78694
 Alpha virt. eigenvalues --    1.79501   1.79751   1.80173   1.81252   1.82583
 Alpha virt. eigenvalues --    1.83527   1.84474   1.84783   1.85957   1.86492
 Alpha virt. eigenvalues --    1.86643   1.87339   1.87531   1.87869   1.88562
 Alpha virt. eigenvalues --    1.89225   1.89456   1.90422   1.90970   1.91693
 Alpha virt. eigenvalues --    1.92354   1.92764   1.93972   1.94515   1.95751
 Alpha virt. eigenvalues --    1.96006   1.96406   1.97177   1.98045   1.99539
 Alpha virt. eigenvalues --    2.00548   2.00911   2.01365   2.01626   2.02290
 Alpha virt. eigenvalues --    2.03150   2.03431   2.03831   2.04278   2.04448
 Alpha virt. eigenvalues --    2.05735   2.06239   2.06585   2.08105   2.08264
 Alpha virt. eigenvalues --    2.08799   2.09626   2.10606   2.11689   2.11919
 Alpha virt. eigenvalues --    2.12476   2.13442   2.14502   2.14629   2.15290
 Alpha virt. eigenvalues --    2.15947   2.17007   2.17862   2.18359   2.19412
 Alpha virt. eigenvalues --    2.19902   2.20146   2.20701   2.22099   2.22828
 Alpha virt. eigenvalues --    2.24177   2.25339   2.26230   2.27451   2.28438
 Alpha virt. eigenvalues --    2.32308   2.32989   2.34056   2.35013   2.36296
 Alpha virt. eigenvalues --    2.37582   2.39455   2.40016   2.41109   2.42732
 Alpha virt. eigenvalues --    2.43048   2.43517   2.44015   2.45624   2.46181
 Alpha virt. eigenvalues --    2.46560   2.46874   2.47606   2.48049   2.49365
 Alpha virt. eigenvalues --    2.50167   2.51682   2.52244   2.52612   2.52743
 Alpha virt. eigenvalues --    2.52964   2.53239   2.53735   2.54560   2.56294
 Alpha virt. eigenvalues --    2.56844   2.58416   2.58961   2.59148   2.59854
 Alpha virt. eigenvalues --    2.62664   2.63498   2.63862   2.65115   2.66222
 Alpha virt. eigenvalues --    2.67536   2.67698   2.68146   2.68328   2.68672
 Alpha virt. eigenvalues --    2.69246   2.69671   2.70424   2.71199   2.71942
 Alpha virt. eigenvalues --    2.72732   2.72852   2.73731   2.74086   2.75206
 Alpha virt. eigenvalues --    2.75977   2.76920   2.78077   2.79115   2.80585
 Alpha virt. eigenvalues --    2.81400   2.81572   2.82543   2.83830   2.83968
 Alpha virt. eigenvalues --    2.84271   2.84688   2.85782   2.86030   2.86889
 Alpha virt. eigenvalues --    2.87680   2.88183   2.88619   2.89075   2.89773
 Alpha virt. eigenvalues --    2.91531   2.92197   2.93059   2.93666   2.94790
 Alpha virt. eigenvalues --    2.95016   2.95835   2.97054   2.97415   2.97972
 Alpha virt. eigenvalues --    3.00228   3.01769   3.02920   3.03738   3.04490
 Alpha virt. eigenvalues --    3.05193   3.05947   3.08647   3.09053   3.10211
 Alpha virt. eigenvalues --    3.11509   3.12803   3.14106   3.14590   3.15260
 Alpha virt. eigenvalues --    3.17105   3.17963   3.18880   3.20319   3.21819
 Alpha virt. eigenvalues --    3.23009   3.23450   3.24059   3.24629   3.27440
 Alpha virt. eigenvalues --    3.28569   3.30300   3.31884   3.32007   3.33584
 Alpha virt. eigenvalues --    3.34006   3.34453   3.34910   3.35060   3.37824
 Alpha virt. eigenvalues --    3.38571   3.40161   3.41752   3.42295   3.42976
 Alpha virt. eigenvalues --    3.44510   3.45579   3.46393   3.48777   3.49573
 Alpha virt. eigenvalues --    3.50846   3.53911   3.55244   3.57904   3.59664
 Alpha virt. eigenvalues --    3.60289   3.61644   3.64958   3.66309   3.66555
 Alpha virt. eigenvalues --    3.69881   3.70865   3.72139   3.72451   3.75693
 Alpha virt. eigenvalues --    3.76057   3.76279   3.80407   3.82793   3.84606
 Alpha virt. eigenvalues --    3.85436   3.86382   3.89289   3.90945   3.92833
 Alpha virt. eigenvalues --    3.93138   3.94180   3.97248   4.01460   4.03690
 Alpha virt. eigenvalues --    4.05004   4.08287   4.10672   4.13060   4.14383
 Alpha virt. eigenvalues --    4.20527   4.23985   4.25592   4.27306   4.35511
 Alpha virt. eigenvalues --    4.40111   4.41021   4.53024   4.70211   4.84317
 Alpha virt. eigenvalues --    4.85631   4.87497   4.90409   5.02105   5.02594
 Alpha virt. eigenvalues --    5.03946   5.05445   5.05857   5.06750   5.11339
 Alpha virt. eigenvalues --    5.13474   5.25007   5.27103   5.29501   5.36103
 Alpha virt. eigenvalues --    5.42842   5.43721   5.75855   5.76643   5.80324
 Alpha virt. eigenvalues --    5.80660   5.81938   5.84994   8.02838   8.10131
 Alpha virt. eigenvalues --   17.29273  17.34246  17.50157  17.53190  17.59905
 Alpha virt. eigenvalues --   17.70581  23.48787  23.57827  23.71521  23.78624
 Alpha virt. eigenvalues --   23.82081  23.82658  23.84610  23.86573  23.86824
 Alpha virt. eigenvalues --   23.88139  23.89335  23.90076  23.91219  23.92961
 Alpha virt. eigenvalues --   23.94565  23.95371  23.96012  23.98253  24.00598
 Alpha virt. eigenvalues --   24.01847  24.02717  24.05160  24.12260  24.13023
 Alpha virt. eigenvalues --   24.14212  24.14258  35.56318  35.59426  49.96274
 Alpha virt. eigenvalues --   49.97825  50.01929  50.03920  50.05558  50.07098
 Alpha virt. eigenvalues --  189.20175 189.28341
          Condensed to atoms (all electrons):
 Mulliken charges:
               1
     1  C    0.386987
     2  C   -0.085214
     3  C    0.182296
     4  C    0.207263
     5  C    0.281546
     6  C   -0.243480
     7  C    0.105994
     8  C    0.247665
     9  C    0.526274
    10  C   -0.229412
    11  C    0.109739
    12  C    0.208449
    13  C   -0.491667
    14  C   -0.651486
    15  H    0.158884
    16  H    0.160871
    17  H    0.157235
    18  N   -0.161103
    19  N   -0.134886
    20  O   -0.284765
    21  O   -0.271631
    22  O   -0.274855
    23  O   -0.079634
    24  C   -0.198028
    25  H    0.172899
    26  H    0.176421
    27  H    0.188232
    28  C   -0.198692
    29  H    0.173486
    30  H    0.174129
    31  H    0.182932
    32  C   -0.037130
    33  C   -0.450006
    34  S   -0.173680
    35  C   -0.682394
    36  H    0.131332
    37  C    0.462766
    38  O   -0.121012
    39  C    0.813481
    40  C   -0.235652
    41  C   -0.001975
    42  S   -0.266199
    43  H    0.166815
    44  H    0.148144
    45  H    0.147760
    46  C   -0.506255
    47  O   -0.100346
    48  C   -0.287725
    49  H    0.131810
    50  C   -0.252502
    51  H    0.160811
    52  H    0.144166
    53  H    0.167826
    54  H    0.143518
 Sum of Mulliken charges =  -0.00000
 Mulliken charges with hydrogens summed into heavy atoms:
               1
     1  C    0.386987
     2  C   -0.085214
     3  C    0.182296
     4  C    0.207263
     5  C    0.281546
     6  C   -0.086245
     7  C    0.105994
     8  C    0.247665
     9  C    0.526274
    10  C   -0.229412
    11  C    0.109739
    12  C    0.208449
    13  C   -0.330796
    14  C   -0.492602
    18  N   -0.161103
    19  N   -0.134886
    20  O   -0.284765
    21  O   -0.271631
    22  O   -0.274855
    23  O   -0.079634
    24  C    0.339525
    28  C    0.331855
    32  C   -0.037130
    33  C   -0.318675
    34  S   -0.173680
    35  C   -0.682394
    37  C    0.462766
    38  O   -0.121012
    39  C    0.813481
    40  C    0.227066
    41  C   -0.001975
    42  S   -0.266199
    46  C   -0.374445
    47  O   -0.100346
    48  C   -0.126914
    50  C    0.203007
 Electronic spatial extent (au):  <R**2>=          22200.1478
 Charge=             -0.0000 electrons
 Dipole moment (field-independent basis, Debye):
    X=              4.5062    Y=             -0.2838    Z=             -0.0852  Tot=              4.5159
 Quadrupole moment (field-independent basis, Debye-Ang):
   XX=           -216.3797   YY=           -214.3392   ZZ=           -221.5165
   XY=             13.6639   XZ=              2.3047   YZ=             10.1572
 Traceless Quadrupole moment (field-independent basis, Debye-Ang):
   XX=              1.0321   YY=              3.0726   ZZ=             -4.1047
   XY=             13.6639   XZ=              2.3047   YZ=             10.1572
 Octapole moment (field-independent basis, Debye-Ang**2):
  XXX=            360.5616  YYY=            -61.0484  ZZZ=              2.5454  XYY=            120.0618
  XXY=             29.5413  XXZ=             26.1379  XZZ=             -5.3070  YZZ=             -0.1430
  YYZ=             -5.0902  XYZ=             24.1217
 Hexadecapole moment (field-independent basis, Debye-Ang**3):
 XXXX=         -21791.9771 YYYY=          -7512.3261 ZZZZ=           -533.6867 XXXY=            409.0891
 XXXZ=            182.9121 YYYX=            354.2807 YYYZ=            200.2021 ZZZX=            -21.3348
 ZZZY=              4.6866 XXYY=          -4583.1985 XXZZ=          -3855.2132 YYZZ=          -1290.2042
 XXYZ=            136.0378 YYXZ=            -54.5337 ZZXY=             65.7166
 N-N= 4.123070547186D+03 E-N=-1.378641491129D+04  KE= 2.352088124046D+03
 Calling FoFJK, ICntrl=      2127 FMM=F ISym2X=0 I1Cent= 0 IOpClX= 0 NMat=1 NMatS=1 NMatT=0.
 ***** Axes restored to original set *****
 -------------------------------------------------------------------
 Center     Atomic                   Forces (Hartrees/Bohr)
 Number     Number              X              Y              Z
 -------------------------------------------------------------------
      1        6           0.003716873   -0.005303519    0.000401134
      2        6           0.005452638    0.000335394   -0.000998609
      3        6          -0.003328916    0.000986975    0.000014336
      4        6           0.003053349    0.001245950    0.000501078
      5        6          -0.006012302   -0.001302707   -0.000051634
      6        6          -0.002435458   -0.001472469   -0.008426029
      7        6          -0.001265786    0.000469789    0.001506658
      8        6          -0.000489189    0.007181758    0.008866779
      9        6           0.012280843   -0.005443784   -0.006376868
     10        6          -0.024322640   -0.007322741   -0.004849650
     11        6          -0.006228569    0.001992252   -0.000524424
     12        6           0.002162680    0.000924046    0.000444640
     13        6          -0.001938790   -0.002999937   -0.000619232
     14        6          -0.000057087    0.002927142    0.000429273
     15        1           0.000647294    0.000806382    0.000026053
     16        1           0.000578048   -0.001151047   -0.000311876
     17        1          -0.000405796    0.001224895    0.002799675
     18        7           0.004619397   -0.001970792   -0.002311394
     19        7           0.001504063    0.001156437   -0.000109082
     20        8          -0.005525743    0.005835232    0.000492103
     21        8           0.007577677    0.002034023    0.000147096
     22        8           0.006307295   -0.004621262   -0.000229348
     23        8          -0.041982886    0.017982790    0.000781938
     24        6           0.001041423    0.002585748   -0.000953754
     25        1          -0.000765383   -0.000012460   -0.000152270
     26        1          -0.001336068   -0.000477282    0.001089884
     27        1           0.000971250   -0.000018846    0.000114807
     28        6          -0.000445208   -0.001980489   -0.000671123
     29        1          -0.000696258    0.000367919    0.000984817
     30        1          -0.000465298    0.000393319   -0.000501935
     31        1           0.000943335   -0.000353346   -0.000022594
     32        6          -0.014417285    0.024085246    0.016528548
     33        6           0.005604157   -0.007684261   -0.000903362
     34       16           0.057704500   -0.010593591   -0.003647818
     35        6           0.000310094   -0.003367594   -0.002633317
     36        1           0.000397582   -0.001421343   -0.001072613
     37        6          -0.003664515   -0.011818132    0.004104044
     38        8          -0.001793139   -0.002133719   -0.005173958
     39        6          -0.000598154   -0.001150740    0.000824922
     40        6           0.001315361   -0.001262862   -0.000018551
     41        6          -0.000555132   -0.000824142   -0.000807777
     42       16           0.000737918    0.001556261    0.001059933
     43        1          -0.000989924   -0.000005164   -0.000037298
     44        1           0.000476281    0.001049875   -0.000091854
     45        1           0.001081534    0.000401856    0.000625701
     46        6          -0.000533134    0.000016147   -0.000038313
     47        8           0.003163302   -0.000007588    0.000612730
     48        6          -0.000027897    0.000110429   -0.000060546
     49        1           0.000019748   -0.001102642   -0.000671653
     50        6           0.001342598    0.002303635    0.000866155
     51        1          -0.001367812   -0.000342917   -0.000024068
     52        1          -0.000794758   -0.001141468    0.000406223
     53        1           0.000337113   -0.000393211   -0.000377540
     54        1          -0.000903223   -0.000293439   -0.000960034
 -------------------------------------------------------------------
 Cartesian Forces:  Max     0.057704500 RMS     0.007254609

 GradGradGradGradGradGradGradGradGradGradGradGradGradGradGradGradGradGrad
 Berny optimization.
 FormGI is forming the generalized inverse of G from B-inverse, IUseBI=4.
 Internal  Forces:  Max     0.174108837 RMS     0.020651871
 Search for a local minimum.
 Step number   1 out of a maximum of  307
 All quantities printed in internal units (Hartrees-Bohrs-Radians)
 Mixed Optimization -- RFO/linear search
 Second derivative matrix not updated -- first step.
 ITU=  0
     Eigenvalues ---    0.01155   0.01172   0.01239   0.01297   0.01356
     Eigenvalues ---    0.01394   0.01397   0.01410   0.01452   0.01469
     Eigenvalues ---    0.01512   0.01544   0.01567   0.01590   0.01615
     Eigenvalues ---    0.01652   0.01679   0.01690   0.01709   0.01719
     Eigenvalues ---    0.01721   0.01763   0.01799   0.01845   0.01975
     Eigenvalues ---    0.02039   0.02050   0.02075   0.02091   0.02099
     Eigenvalues ---    0.02133   0.02149   0.02162   0.02183   0.02197
     Eigenvalues ---    0.02248   0.04601   0.04620   0.07665   0.07667
     Eigenvalues ---    0.10067   0.10069   0.10630   0.10632   0.15983
     Eigenvalues ---    0.15999   0.15999   0.16000   0.16000   0.16000
     Eigenvalues ---    0.16000   0.16000   0.16000   0.16000   0.16000
     Eigenvalues ---    0.16000   0.16000   0.16000   0.16000   0.16000
     Eigenvalues ---    0.16000   0.16000   0.22530   0.22583   0.23517
     Eigenvalues ---    0.23581   0.24513   0.24747   0.24863   0.24906
     Eigenvalues ---    0.24952   0.24985   0.24986   0.24988   0.24991
     Eigenvalues ---    0.24994   0.24996   0.24997   0.24998   0.24998
     Eigenvalues ---    0.25000   0.25000   0.25000   0.25000   0.25000
     Eigenvalues ---    0.25000   0.25000   0.25000   0.25000   0.25000
     Eigenvalues ---    0.28801   0.28922   0.30122   0.32145   0.32582
     Eigenvalues ---    0.32774   0.33104   0.33787   0.33980   0.34006
     Eigenvalues ---    0.34031   0.34089   0.34353   0.34466   0.34577
     Eigenvalues ---    0.34629   0.34693   0.34817   0.34926   0.35198
     Eigenvalues ---    0.35218   0.35468   0.35553   0.35582   0.35760
     Eigenvalues ---    0.35830   0.36078   0.36083   0.36206   0.36393
     Eigenvalues ---    0.36662   0.39348   0.40161   0.40194   0.40651
     Eigenvalues ---    0.40757   0.41524   0.41661   0.42084   0.42300
     Eigenvalues ---    0.42846   0.43455   0.43857   0.44092   0.44510
     Eigenvalues ---    0.44594   0.45014   0.45405   0.46251   0.47305
     Eigenvalues ---    0.47584   0.49309   0.49530   0.52963   0.53357
     Eigenvalues ---    0.93281   0.93432   0.93989   0.945851000.00000
     Eigenvalues --- 1000.000001000.000001000.000001000.000001000.00000
     Eigenvalues --- 1000.000001000.000001000.000001000.000001000.00000
     Eigenvalues --- 1000.000001000.000001000.000001000.000001000.00000
     Eigenvalues --- 1000.000001000.000001000.000001000.000001000.00000
     Eigenvalues --- 1000.000001000.000001000.000001000.000001000.00000
     Eigenvalues --- 1000.000001000.000001000.000001000.000001000.00000
     Eigenvalues --- 1000.000001000.000001000.000001000.000001000.00000
     Eigenvalues --- 1000.000001000.000001000.000001000.000001000.00000
     Eigenvalues --- 1000.000001000.000001000.000001000.000001000.00000
     Eigenvalues --- 1000.000001000.000001000.000001000.000001000.00000
     Eigenvalues --- 1000.000001000.000001000.000001000.000001000.00000
     Eigenvalues --- 1000.000001000.000001000.000001000.000001000.00000
     Eigenvalues --- 1000.000001000.000001000.000001000.000001000.00000
     Eigenvalues --- 1000.000001000.000001000.000001000.000001000.00000
     Eigenvalues --- 1000.000001000.000001000.000001000.000001000.00000
     Eigenvalues --- 1000.000001000.000001000.000001000.000001000.00000
     Eigenvalues --- 1000.000001000.000001000.000001000.000001000.00000
     Eigenvalues --- 1000.000001000.000001000.000001000.000001000.00000
     Eigenvalues --- 1000.000001000.000001000.000001000.000001000.00000
     Eigenvalues --- 1000.000001000.000001000.000001000.000001000.00000
     Eigenvalues --- 1000.000001000.000001000.000001000.000001000.00000
     Eigenvalues --- 1000.000001000.000001000.000001000.000001000.00000
     Eigenvalues --- 1000.000001000.000001000.000001000.000001000.00000
     Eigenvalues --- 1000.000001000.000001000.000001000.000001000.00000
     Eigenvalues --- 1000.000001000.000001000.000001000.000001000.00000
     Eigenvalues --- 1000.000001000.000001000.000001000.000001000.00000
     Eigenvalues --- 1000.000001000.000001000.000001000.000001000.00000
     Eigenvalues --- 1000.000001000.000001000.000001000.000001000.00000
     Eigenvalues --- 1000.000001000.000001000.000001000.000001000.00000
     Eigenvalues --- 1000.000001000.00000
 RFO step:  Lambda=-2.48305077D-01 EMin= 1.15532237D-02
 Linear search not attempted -- first point.
 Maximum step size (   0.300) exceeded in Quadratic search.
    -- Step size scaled by   0.435
 Iteration  1 RMS(Cart)=  0.31108217 RMS(Int)=  0.00798920
 Iteration  2 RMS(Cart)=  0.13431248 RMS(Int)=  0.00114805
 Iteration  3 RMS(Cart)=  0.00404577 RMS(Int)=  0.00023639
 Iteration  4 RMS(Cart)=  0.00000134 RMS(Int)=  0.00023639
 Iteration  5 RMS(Cart)=  0.00000000 RMS(Int)=  0.00023639
 Iteration  1 RMS(Cart)=  0.00012877 RMS(Int)=  0.00001986
 Iteration  2 RMS(Cart)=  0.00007033 RMS(Int)=  0.00002217
 Iteration  3 RMS(Cart)=  0.00003877 RMS(Int)=  0.00002506
 Iteration  4 RMS(Cart)=  0.00002150 RMS(Int)=  0.00002701
 Iteration  5 RMS(Cart)=  0.00001198 RMS(Int)=  0.00002819
 Iteration  6 RMS(Cart)=  0.00000669 RMS(Int)=  0.00002887
 Iteration  7 RMS(Cart)=  0.00000375 RMS(Int)=  0.00002926
 Iteration  8 RMS(Cart)=  0.00000210 RMS(Int)=  0.00002948
 Iteration  9 RMS(Cart)=  0.00000118 RMS(Int)=  0.00002961
 Iteration 10 RMS(Cart)=  0.00000066 RMS(Int)=  0.00002968
 Variable       Old X    -DE/DX   Delta X   Delta X   Delta X     New X
                                 (Linear)    (Quad)   (Total)
    R1        2.80935  -0.00001   0.00000  -0.00031  -0.00030   2.80905
    R2        2.64584  -0.00659   0.00000  -0.00417  -0.00416   2.64168
    R3        2.31147  -0.00804   0.00000  -0.00294  -0.00294   2.30853
    R4        2.67311  -0.01701   0.00000  -0.01242  -0.01250   2.66061
    R5        2.59267  -0.02387   0.00000  -0.01550  -0.01552   2.57715
    R6        2.66894   0.00291   0.00000   0.00190   0.00189   2.67083
    R7        2.69164   0.00583   0.00000   0.00505   0.00501   2.69666
    R8        2.81049  -0.00089   0.00000  -0.00036  -0.00037   2.81013
    R9        2.62173  -0.00949   0.00000  -0.00639  -0.00641   2.61532
   R10        2.65570  -0.00580   0.00000  -0.00349  -0.00348   2.65222
   R11        2.30889  -0.00783   0.00000  -0.00285  -0.00285   2.30604
   R12        2.70248   0.00179   0.00000   0.00054   0.00059   2.70306
   R13        2.04786  -0.00154   0.00000  -0.00111  -0.00111   2.04675
   R14        2.70495   0.04035   0.00000   0.03016   0.03025   2.73521
   R15        2.68322   0.01182   0.00000   0.00919   0.00918   2.69240
   R16        2.68655   0.08001   0.00000   0.05333   0.05341   2.73996
   R17        2.81233   0.01567   0.00000   0.01224   0.01234   2.82467
   R18        2.76359   0.04302   0.00000   0.03041   0.03041   2.79400
   R19        2.66221  -0.00989   0.00000  -0.00706  -0.00704   2.65517
   R20        2.31391  -0.03110   0.00000  -0.01143  -0.01143   2.30247
   R21        2.79415  -0.02024   0.00000  -0.01539  -0.01549   2.77866
   R22        2.63842  -0.02254   0.00000  -0.01506  -0.01513   2.62329
   R23        2.31456  -0.00776   0.00000  -0.00285  -0.00285   2.31171
   R24        2.62448  -0.00144   0.00000  -0.00082  -0.00082   2.62367
   R25        2.64561  -0.01546   0.00000  -0.01021  -0.01023   2.63538
   R26        2.04921  -0.00124   0.00000  -0.00090  -0.00090   2.04832
   R27        2.04741  -0.00087   0.00000  -0.00063  -0.00063   2.04678
   R28        2.77259   0.00198   0.00000   0.00141   0.00141   2.77401
   R29        2.77252   0.00169   0.00000   0.00120   0.00120   2.77373
   R30        2.06176  -0.00053   0.00000  -0.00039  -0.00039   2.06137
   R31        2.06551  -0.00173   0.00000  -0.00127  -0.00127   2.06424
   R32        2.05322  -0.00084   0.00000  -0.00061  -0.00061   2.05262
   R33        2.06368  -0.00124   0.00000  -0.00091  -0.00091   2.06277
   R34        2.06281  -0.00077   0.00000  -0.00056  -0.00056   2.06225
   R35        2.05355  -0.00090   0.00000  -0.00065  -0.00065   2.05290
   R36        2.61048   0.01951   0.00000   0.01183   0.01188   2.62236
   R37        3.33378   0.01547   0.00000   0.01319   0.01323   3.34701
   R38        2.66034  -0.01323   0.00000  -0.00863  -0.00862   2.65171
   R39        2.03760   0.00167   0.00000   0.00119   0.00119   2.03880
   R40        3.30346   0.00155   0.00000   0.00106   0.00102   3.30448
   R41        2.64383  -0.01167   0.00000  -0.00777  -0.00782   2.63601
   R42        2.56988   0.00226   0.00000   0.00126   0.00126   2.57114
   R43        2.71335   0.00012   0.00000   0.00008   0.00008   2.71343
   R44        2.69356  -0.00050   0.00000  -0.00033  -0.00033   2.69323
   R45        2.63493  -0.00004   0.00000   0.00001   0.00001   2.63494
   R46        3.32831   0.00024   0.00000   0.00025   0.00025   3.32856
   R47        2.05974  -0.00092   0.00000  -0.00067  -0.00067   2.05906
   R48        2.07278  -0.00105   0.00000  -0.00077  -0.00077   2.07200
   R49        2.07180  -0.00103   0.00000  -0.00076  -0.00076   2.07104
   R50        2.68996  -0.00114   0.00000  -0.00076  -0.00076   2.68921
   R51        2.56622  -0.00235   0.00000  -0.00131  -0.00131   2.56491
   R52        3.26221  -0.00197   0.00000  -0.00151  -0.00151   3.26070
   R53        2.58719  -0.00183   0.00000  -0.00109  -0.00109   2.58610
   R54        2.04458  -0.00126   0.00000  -0.00091  -0.00091   2.04368
   R55        2.68817   0.00037   0.00000   0.00024   0.00024   2.68840
   R56        2.04348  -0.00141   0.00000  -0.00101  -0.00101   2.04247
   R57        2.07364  -0.00137   0.00000  -0.00101  -0.00101   2.07262
   R58        2.05795  -0.00050   0.00000  -0.00036  -0.00036   2.05759
   R59        2.07321  -0.00126   0.00000  -0.00093  -0.00093   2.07227
    A1        2.03797   0.00147   0.00000   0.00048   0.00048   2.03844
    A2        2.14521  -0.00104   0.00000  -0.00050  -0.00050   2.14471
    A3        2.10001  -0.00043   0.00000   0.00002   0.00003   2.10004
    A4        2.10395   0.00821   0.00000   0.00834   0.00836   2.11230
    A5        2.08282  -0.01001   0.00000  -0.00629  -0.00624   2.07658
    A6        2.09624   0.00179   0.00000  -0.00205  -0.00212   2.09412
    A7        2.10093  -0.01036   0.00000  -0.00988  -0.00985   2.09107
    A8        2.07104  -0.00039   0.00000  -0.00170  -0.00180   2.06925
    A9        2.11118   0.01076   0.00000   0.01159   0.01166   2.12284
   A10        2.10296   0.00533   0.00000   0.00506   0.00505   2.10801
   A11        2.09911   0.00389   0.00000   0.00293   0.00291   2.10202
   A12        2.08110  -0.00922   0.00000  -0.00799  -0.00795   2.07315
   A13        2.03739   0.00031   0.00000   0.00056   0.00054   2.03794
   A14        2.12972   0.00043   0.00000   0.00023   0.00024   2.12996
   A15        2.11607  -0.00074   0.00000  -0.00079  -0.00078   2.11529
   A16        2.15098   0.03586   0.00000   0.03032   0.03037   2.18135
   A17        2.04399  -0.01711   0.00000  -0.01426  -0.01429   2.02970
   A18        2.08722  -0.01858   0.00000  -0.01585  -0.01588   2.07134
   A19        2.11101   0.01453   0.00000   0.01312   0.01307   2.12407
   A20        2.04385  -0.02636   0.00000  -0.02434  -0.02434   2.01950
   A21        2.12832   0.01185   0.00000   0.01122   0.01128   2.13961
   A22        2.08678  -0.02694   0.00000  -0.02020  -0.02020   2.06658
   A23        2.04738  -0.04897   0.00000  -0.04149  -0.04138   2.00601
   A24        2.14662   0.07630   0.00000   0.06226   0.06212   2.20873
   A25        2.04892  -0.02477   0.00000  -0.01946  -0.01929   2.02962
   A26        2.00754  -0.14944   0.00000  -0.13144  -0.13151   1.87603
   A27        2.22643   0.17411   0.00000   0.15085   0.15077   2.37719
   A28        2.06022   0.02791   0.00000   0.02507   0.02520   2.08542
   A29        2.17370   0.02472   0.00000   0.02120   0.02113   2.19483
   A30        2.04919  -0.05262   0.00000  -0.04621  -0.04628   2.00290
   A31        2.01621  -0.00773   0.00000  -0.00832  -0.00849   2.00772
   A32        2.14188   0.00493   0.00000   0.00510   0.00518   2.14706
   A33        2.12500   0.00281   0.00000   0.00324   0.00332   2.12832
   A34        2.10943   0.00916   0.00000   0.00863   0.00851   2.11794
   A35        2.11468   0.01336   0.00000   0.01277   0.01283   2.12751
   A36        2.05896  -0.02250   0.00000  -0.02137  -0.02132   2.03765
   A37        2.11176   0.00326   0.00000   0.00293   0.00289   2.11465
   A38        2.05670  -0.00118   0.00000  -0.00098  -0.00096   2.05573
   A39        2.11471  -0.00208   0.00000  -0.00194  -0.00192   2.11279
   A40        2.08567  -0.00486   0.00000  -0.00583  -0.00590   2.07978
   A41        2.07549   0.00300   0.00000   0.00353   0.00356   2.07905
   A42        2.12199   0.00187   0.00000   0.00232   0.00235   2.12434
[...]
 Alpha  occ. eigenvalues --   -0.57328  -0.56734  -0.56460  -0.55243  -0.54732
 Alpha  occ. eigenvalues --   -0.53625  -0.51420  -0.50125  -0.49914  -0.49405
 Alpha  occ. eigenvalues --   -0.49272  -0.48973  -0.48666  -0.48632  -0.48313
 Alpha  occ. eigenvalues --   -0.48164  -0.47014  -0.46537  -0.46139  -0.45914
 Alpha  occ. eigenvalues --   -0.45611  -0.44901  -0.44351  -0.44081  -0.43554
 Alpha  occ. eigenvalues --   -0.42982  -0.42446  -0.42221  -0.41933  -0.41707
 Alpha  occ. eigenvalues --   -0.41638  -0.41194  -0.41002  -0.40424  -0.39728
 Alpha  occ. eigenvalues --   -0.39425  -0.39108  -0.38893  -0.37585  -0.37182
 Alpha  occ. eigenvalues --   -0.36510  -0.36096  -0.34455  -0.34160  -0.33673
 Alpha  occ. eigenvalues --   -0.33358  -0.31783  -0.30741  -0.30245  -0.29673
 Alpha  occ. eigenvalues --   -0.29212  -0.28636  -0.28519  -0.27827  -0.27293
 Alpha  occ. eigenvalues --   -0.25932  -0.24958  -0.24340  -0.19567
 Alpha virt. eigenvalues --   -0.12791  -0.07564  -0.06246  -0.04342  -0.03715
 Alpha virt. eigenvalues --   -0.00821  -0.00503  -0.00357  -0.00001   0.00384
 Alpha virt. eigenvalues --    0.00943   0.01068   0.01518   0.01827   0.01997
 Alpha virt. eigenvalues --    0.02200   0.02356   0.02721   0.02807   0.03155
 Alpha virt. eigenvalues --    0.03583   0.03714   0.04012   0.04252   0.04470
 Alpha virt. eigenvalues --    0.04584   0.04858   0.05195   0.05607   0.05998
 Alpha virt. eigenvalues --    0.06088   0.06177   0.06524   0.06712   0.07157
 Alpha virt. eigenvalues --    0.07303   0.07383   0.07887   0.07959   0.08017
 Alpha virt. eigenvalues --    0.08442   0.08652   0.08964   0.08989   0.09530
 Alpha virt. eigenvalues --    0.09783   0.09916   0.10217   0.10472   0.10656
 Alpha virt. eigenvalues --    0.11067   0.11142   0.11645   0.11837   0.11904
 Alpha virt. eigenvalues --    0.12273   0.12760   0.12916   0.13152   0.13447
 Alpha virt. eigenvalues --    0.13585   0.13764   0.14127   0.14326   0.14473
 Alpha virt. eigenvalues --    0.14817   0.14862   0.14956   0.15198   0.15330
 Alpha virt. eigenvalues --    0.15561   0.15683   0.16089   0.16408   0.16492
 Alpha virt. eigenvalues --    0.16687   0.16982   0.17250   0.17395   0.17729
 Alpha virt. eigenvalues --    0.17857   0.17931   0.18207   0.18515   0.18665
 Alpha virt. eigenvalues --    0.18782   0.19109   0.19303   0.19490   0.19695
 Alpha virt. eigenvalues --    0.19920   0.20029   0.20212   0.20374   0.20724
 Alpha virt. eigenvalues --    0.20760   0.20830   0.21022   0.21182   0.21580
 Alpha virt. eigenvalues --    0.21731   0.21846   0.22318   0.22350   0.22615
 Alpha virt. eigenvalues --    0.22941   0.23089   0.23267   0.23344   0.23474
 Alpha virt. eigenvalues --    0.23721   0.23989   0.24084   0.24271   0.24501
 Alpha virt. eigenvalues --    0.24815   0.24925   0.25212   0.25380   0.25537
 Alpha virt. eigenvalues --    0.25743   0.26073   0.26232   0.26360   0.26383
 Alpha virt. eigenvalues --    0.26772   0.26809   0.26835   0.27233   0.27307
 Alpha virt. eigenvalues --    0.27387   0.27575   0.27955   0.28299   0.28559
 Alpha virt. eigenvalues --    0.28858   0.29085   0.29302   0.29564   0.29620
 Alpha virt. eigenvalues --    0.30050   0.30154   0.30314   0.30668   0.30877
 Alpha virt. eigenvalues --    0.31147   0.31452   0.31627   0.31898   0.32081
 Alpha virt. eigenvalues --    0.32227   0.32285   0.32813   0.33053   0.33646
 Alpha virt. eigenvalues --    0.33795   0.33916   0.34234   0.34461   0.34979
 Alpha virt. eigenvalues --    0.35164   0.35365   0.35621   0.35832   0.35884
 Alpha virt. eigenvalues --    0.36555   0.37013   0.37417   0.37661   0.38003
 Alpha virt. eigenvalues --    0.38400   0.38535   0.38726   0.38938   0.39727
 Alpha virt. eigenvalues --    0.39892   0.40369   0.41121   0.41471   0.41870
 Alpha virt. eigenvalues --    0.42177   0.42494   0.43056   0.43320   0.43462
 Alpha virt. eigenvalues --    0.43805   0.43968   0.44247   0.44788   0.45301
 Alpha virt. eigenvalues --    0.45624   0.45784   0.46152   0.46378   0.47386
 Alpha virt. eigenvalues --    0.47844   0.47976   0.48311   0.48799   0.49282
 Alpha virt. eigenvalues --    0.49563   0.49690   0.50612   0.50688   0.51607
 Alpha virt. eigenvalues --    0.52310   0.52975   0.53360   0.53924   0.54256
 Alpha virt. eigenvalues --    0.54486   0.54819   0.55024   0.55148   0.55486
 Alpha virt. eigenvalues --    0.56126   0.56480   0.56831   0.56885   0.57207
 Alpha virt. eigenvalues --    0.57577   0.58134   0.58647   0.59270   0.59651
 Alpha virt. eigenvalues --    0.60107   0.60634   0.60740   0.61107   0.61464
 Alpha virt. eigenvalues --    0.61693   0.61927   0.62262   0.62931   0.63532
 Alpha virt. eigenvalues --    0.63673   0.64150   0.64393   0.64604   0.65024
 Alpha virt. eigenvalues --    0.65305   0.65762   0.65816   0.66132   0.66710
 Alpha virt. eigenvalues --    0.66962   0.67398   0.67652   0.68038   0.68399
 Alpha virt. eigenvalues --    0.68776   0.69572   0.69669   0.70302   0.70415
 Alpha virt. eigenvalues --    0.70975   0.71491   0.71708   0.72315   0.72399
 Alpha virt. eigenvalues --    0.72808   0.73052   0.73247   0.73674   0.73801
 Alpha virt. eigenvalues --    0.74142   0.74377   0.74830   0.75119   0.75407
 Alpha virt. eigenvalues --    0.75936   0.76497   0.76788   0.76937   0.77333
 Alpha virt. eigenvalues --    0.77741   0.78350   0.78705   0.79127   0.79288
 Alpha virt. eigenvalues --    0.79451   0.80183   0.80748   0.81394   0.82036
 Alpha virt. eigenvalues --    0.82744   0.83429   0.84068   0.84593   0.85436
 Alpha virt. eigenvalues --    0.86105   0.87241   0.87842   0.88213   0.88764
 Alpha virt. eigenvalues --    0.89267   0.89714   0.90498   0.90932   0.91673
 Alpha virt. eigenvalues --    0.92059   0.92463   0.92934   0.93128   0.93584
 Alpha virt. eigenvalues --    0.93961   0.94082   0.94763   0.95253   0.95370
 Alpha virt. eigenvalues --    0.96055   0.96239   0.96575   0.96965   0.97174
 Alpha virt. eigenvalues --    0.98012   0.98522   0.98964   1.00003   1.00226
 Alpha virt. eigenvalues --    1.00890   1.01333   1.01593   1.01816   1.01949
 Alpha virt. eigenvalues --    1.02407   1.03194   1.03413   1.04295   1.04681
 Alpha virt. eigenvalues --    1.04844   1.05281   1.05766   1.06282   1.06515
 Alpha virt. eigenvalues --    1.07004   1.07178   1.07689   1.08062   1.08611
 Alpha virt. eigenvalues --    1.08774   1.09372   1.09878   1.10294   1.11107
 Alpha virt. eigenvalues --    1.11800   1.12455   1.13161   1.14103   1.15146
 Alpha virt. eigenvalues --    1.15195   1.16510   1.17306   1.17662   1.18452
 Alpha virt. eigenvalues --    1.18560   1.19269   1.19768   1.20653   1.21051
 Alpha virt. eigenvalues --    1.21836   1.22792   1.23332   1.24715   1.25085
 Alpha virt. eigenvalues --    1.25305   1.25835   1.26881   1.27083   1.28061
 Alpha virt. eigenvalues --    1.28342   1.28432   1.29865   1.30593   1.32091
 Alpha virt. eigenvalues --    1.32141   1.32688   1.33292   1.34015   1.34875
 Alpha virt. eigenvalues --    1.35082   1.36799   1.37332   1.37893   1.39731
 Alpha virt. eigenvalues --    1.40572   1.41212   1.42029   1.42099   1.42217
 Alpha virt. eigenvalues --    1.42895   1.43039   1.43487   1.44262   1.44677
 Alpha virt. eigenvalues --    1.44749   1.45399   1.45850   1.45869   1.46116
 Alpha virt. eigenvalues --    1.46465   1.47097   1.47743   1.48771   1.49878
 Alpha virt. eigenvalues --    1.50343   1.51120   1.51369   1.51655   1.52746
 Alpha virt. eigenvalues --    1.53181   1.53687   1.54122   1.54359   1.54659
 Alpha virt. eigenvalues --    1.55012   1.55290   1.55757   1.56046   1.57395
 Alpha virt. eigenvalues --    1.57875   1.58333   1.59508   1.61259   1.61462
 Alpha virt. eigenvalues --    1.62288   1.62739   1.63129   1.63729   1.64129
 Alpha virt. eigenvalues --    1.65518   1.65993   1.66383   1.66909   1.67261
 Alpha virt. eigenvalues --    1.67731   1.68592   1.69187   1.69241   1.69502
 Alpha virt. eigenvalues --    1.70002   1.70722   1.70922   1.71340   1.72023
 Alpha virt. eigenvalues --    1.72522   1.73775   1.74467   1.75145   1.75740
 Alpha virt. eigenvalues --    1.75876   1.76540   1.77341   1.77992   1.78964
 Alpha virt. eigenvalues --    1.79430   1.79903   1.80353   1.80890   1.81680
 Alpha virt. eigenvalues --    1.82681   1.84211   1.85812   1.86084   1.86981
 Alpha virt. eigenvalues --    1.87064   1.87436   1.87537   1.88227   1.88503
 Alpha virt. eigenvalues --    1.89083   1.89927   1.90495   1.91244   1.91505
 Alpha virt. eigenvalues --    1.91701   1.92919   1.93893   1.94392   1.95623
 Alpha virt. eigenvalues --    1.96123   1.96756   1.97586   1.99043   1.99213
 Alpha virt. eigenvalues --    2.00035   2.00393   2.01058   2.01491   2.02436
 Alpha virt. eigenvalues --    2.02788   2.03416   2.03882   2.04188   2.04653
 Alpha virt. eigenvalues --    2.05346   2.06184   2.06962   2.08058   2.08299
 Alpha virt. eigenvalues --    2.08882   2.10169   2.10942   2.11407   2.11707
 Alpha virt. eigenvalues --    2.11879   2.13208   2.13924   2.14481   2.15239
 Alpha virt. eigenvalues --    2.15645   2.17557   2.18173   2.19001   2.19197
 Alpha virt. eigenvalues --    2.19667   2.20469   2.21092   2.21269   2.22543
 Alpha virt. eigenvalues --    2.23599   2.26184   2.26478   2.27001   2.28470
 Alpha virt. eigenvalues --    2.32412   2.33148   2.33594   2.35531   2.36349
 Alpha virt. eigenvalues --    2.37734   2.39757   2.40441   2.41246   2.42708
 Alpha virt. eigenvalues --    2.43013   2.43344   2.44240   2.45031   2.46274
 Alpha virt. eigenvalues --    2.46966   2.47097   2.47739   2.48626   2.49686
 Alpha virt. eigenvalues --    2.50661   2.51909   2.52035   2.52357   2.52548
 Alpha virt. eigenvalues --    2.52831   2.53668   2.53748   2.54432   2.56226
 Alpha virt. eigenvalues --    2.56637   2.57682   2.58945   2.59194   2.60317
 Alpha virt. eigenvalues --    2.63052   2.63660   2.64037   2.65455   2.67055
 Alpha virt. eigenvalues --    2.67440   2.67562   2.67763   2.68348   2.68650
 Alpha virt. eigenvalues --    2.69050   2.70330   2.71101   2.71301   2.71613
 Alpha virt. eigenvalues --    2.72371   2.72954   2.73326   2.73867   2.75145
 Alpha virt. eigenvalues --    2.76314   2.76725   2.77537   2.78253   2.81473
 Alpha virt. eigenvalues --    2.81694   2.81954   2.82725   2.83240   2.83400
 Alpha virt. eigenvalues --    2.84383   2.84782   2.86015   2.86859   2.87509
 Alpha virt. eigenvalues --    2.87988   2.88104   2.89047   2.89403   2.89683
 Alpha virt. eigenvalues --    2.91308   2.92638   2.93066   2.93560   2.94782
 Alpha virt. eigenvalues --    2.95227   2.95734   2.96470   2.96739   2.98885
 Alpha virt. eigenvalues --    3.00365   3.02429   3.02763   3.03370   3.04154
 Alpha virt. eigenvalues --    3.06186   3.06639   3.07927   3.09271   3.10442
 Alpha virt. eigenvalues --    3.11617   3.12931   3.14226   3.14934   3.15423
 Alpha virt. eigenvalues --    3.16548   3.17871   3.19067   3.20860   3.21372
 Alpha virt. eigenvalues --    3.23172   3.23447   3.23764   3.25060   3.27814
 Alpha virt. eigenvalues --    3.28969   3.30015   3.31394   3.32060   3.34627
 Alpha virt. eigenvalues --    3.34786   3.35259   3.35654   3.36086   3.37717
 Alpha virt. eigenvalues --    3.38682   3.40223   3.40926   3.43012   3.43729
 Alpha virt. eigenvalues --    3.45207   3.45754   3.46839   3.49741   3.50176
 Alpha virt. eigenvalues --    3.51400   3.54308   3.55880   3.58461   3.60489
 Alpha virt. eigenvalues --    3.61245   3.62848   3.65561   3.66417   3.67097
 Alpha virt. eigenvalues --    3.70010   3.71529   3.72633   3.73531   3.75266
 Alpha virt. eigenvalues --    3.76434   3.76692   3.81337   3.82795   3.84518
 Alpha virt. eigenvalues --    3.85709   3.86710   3.89921   3.91325   3.93281
 Alpha virt. eigenvalues --    3.93394   3.94897   3.97107   4.01611   4.03082
 Alpha virt. eigenvalues --    4.04720   4.08061   4.10154   4.13232   4.14111
 Alpha virt. eigenvalues --    4.19585   4.24164   4.25601   4.27828   4.35818
 Alpha virt. eigenvalues --    4.39723   4.41182   4.52624   4.68462   4.84934
 Alpha virt. eigenvalues --    4.86377   4.87444   4.90708   5.01174   5.02426
 Alpha virt. eigenvalues --    5.04153   5.05634   5.06207   5.08279   5.11701
 Alpha virt. eigenvalues --    5.13845   5.25209   5.27268   5.29157   5.30809
 Alpha virt. eigenvalues --    5.41839   5.42927   5.76157   5.76573   5.80328
 Alpha virt. eigenvalues --    5.80840   5.82384   5.85586   8.02391   8.05866
 Alpha virt. eigenvalues --   17.28832  17.32877  17.49542  17.52321  17.57718
 Alpha virt. eigenvalues --   17.62626  23.48811  23.56297  23.71467  23.79268
 Alpha virt. eigenvalues --   23.82349  23.83179  23.85485  23.87322  23.87535
 Alpha virt. eigenvalues --   23.88431  23.89126  23.90143  23.91188  23.93459
 Alpha virt. eigenvalues --   23.95004  23.95914  23.96653  23.98966  24.00807
 Alpha virt. eigenvalues --   24.01777  24.02623  24.05708  24.10021  24.14588
 Alpha virt. eigenvalues --   24.14658  24.15057  35.56259  35.59375  49.95956
 Alpha virt. eigenvalues --   49.97537  50.02492  50.04439  50.06275  50.07985
 Alpha virt. eigenvalues --  189.19647 189.23500
          Condensed to atoms (all electrons):
 Mulliken charges:
               1
     1  C    0.284969
     2  C    0.008416
     3  C    0.211036
     4  C    0.161839
     5  C    0.253599
     6  C    0.045479
     7  C    0.173232
     8  C    0.157575
     9  C    0.317840
    10  C   -0.175269
    11  C    0.263152
    12  C    0.092964
    13  C   -0.477564
    14  C   -0.607422
    15  H    0.157654
    16  H    0.160547
    17  H    0.161966
    18  N   -0.147773
    19  N   -0.142122
    20  O   -0.285637
    21  O   -0.267908
    22  O   -0.280534
    23  O   -0.218873
    24  C   -0.190873
    25  H    0.174700
    26  H    0.176191
    27  H    0.182785
    28  C   -0.196141
    29  H    0.172658
    30  H    0.174079
    31  H    0.182756
    32  C   -0.165661
    33  C   -0.639349
    34  S   -0.573933
    35  C   -0.317762
    36  H    0.135494
    37  C    0.771030
    38  O   -0.135673
    39  C    0.859935
    40  C   -0.226996
    41  C   -0.010720
    42  S   -0.250747
    43  H    0.167470
    44  H    0.149422
    45  H    0.149763
    46  C   -0.545948
    47  O   -0.120367
    48  C   -0.282255
    49  H    0.132490
    50  C   -0.243344
    51  H    0.162187
    52  H    0.146427
    53  H    0.168906
    54  H    0.146312
 Sum of Mulliken charges =  -0.00000
 Mulliken charges with hydrogens summed into heavy atoms:
               1
     1  C    0.284969
     2  C    0.008416
     3  C    0.211036
     4  C    0.161839
     5  C    0.253599
     6  C    0.207445
     7  C    0.173232
     8  C    0.157575
     9  C    0.317840
    10  C   -0.175269
    11  C    0.263152
    12  C    0.092964
    13  C   -0.317016
    14  C   -0.449769
    18  N   -0.147773
    19  N   -0.142122
    20  O   -0.285637
    21  O   -0.267908
    22  O   -0.280534
    23  O   -0.218873
    24  C    0.342802
    28  C    0.333351
    32  C   -0.165661
    33  C   -0.503856
    34  S   -0.573933
    35  C   -0.317762
    37  C    0.771030
    38  O   -0.135673
    39  C    0.859935
    40  C    0.239660
    41  C   -0.010720
    42  S   -0.250747
    46  C   -0.413458
    47  O   -0.120367
    48  C   -0.120068
    50  C    0.218301
 Electronic spatial extent (au):  <R**2>=          22398.2889
 Charge=              0.0000 electrons
 Dipole moment (field-independent basis, Debye):
    X=              5.0794    Y=             -0.7062    Z=              0.1662  Tot=              5.1309
 Quadrupole moment (field-independent basis, Debye-Ang):
   XX=           -212.2360   YY=           -216.7615   ZZ=           -218.0563
   XY=             11.9308   XZ=              8.8015   YZ=             12.0231
 Traceless Quadrupole moment (field-independent basis, Debye-Ang):
   XX=              3.4486   YY=             -1.0769   ZZ=             -2.3717
   XY=             11.9308   XZ=              8.8015   YZ=             12.0231
 Octapole moment (field-independent basis, Debye-Ang**2):
  XXX=            391.5499  YYY=            -47.1551  ZZZ=             -2.5742  XYY=            112.2494
  XXY=             24.6077  XXZ=             40.6280  XZZ=             10.1787  YZZ=             -1.6654
  YYZ=            -12.9292  XYZ=             41.4107
 Hexadecapole moment (field-independent basis, Debye-Ang**3):
 XXXX=         -21295.1599 YYYY=          -7529.6112 ZZZZ=           -917.1060 XXXY=            223.3734
 XXXZ=            533.2768 YYYX=            480.7293 YYYZ=            118.8072 ZZZX=            -15.3346
 ZZZY=             21.8060 XXYY=          -4692.5918 XXZZ=          -3829.3895 YYZZ=          -1303.0002
 XXYZ=            239.0733 YYXZ=            -39.5543 ZZXY=             58.5994
 N-N= 4.095443202468D+03 E-N=-1.373106636112D+04  KE= 2.352055032641D+03
 Unable to Open any file for archive entry.
 1\1\GINC-CX3-6-7\FOpt\RB3LYP\6-311+G(d,p)\C26H18N2O6S2\NS5018\29-Nov-2
 020\0\\# opt=modredundant b3lyp/6-311+g(d,p)\\NDI_-160.pdb\\0,1\C,-2.3
 221241631,-2.8641888153,-0.3562543426\C,-2.1598399807,-1.3912230181,-0
 .2353412887\C,-3.2792159319,-0.5636354059,0.0080559917\C,-4.5674998771
 ,-1.1195730244,0.1303098624\C,-4.7690096014,-2.5874420287,0.0024394204
 \C,-0.9120631569,-0.8438950298,-0.3544993731\C,-3.0716061912,0.8384161
 815,0.1151892311\C,-1.7616622477,1.3997031438,-0.0048616342\C,-0.64191
 19891,0.5568588971,-0.2353951929\C,-1.6549525175,2.8763614609,0.016833
 3579\C,-4.1025772241,3.1194029209,0.4159848\C,-4.2158053825,1.64695252
 6,0.3353914083\C,-5.4776513198,1.0813937173,0.4602224904\C,-5.66164295
 62,-0.2999101184,0.3610775661\H,-6.6442648698,-0.7443198605,0.45205833
 5\H,-6.3171002761,1.74389114,0.6292327696\H,-0.0930132429,-1.533812510
 7,-0.4896308799\N,-2.822112156,3.6342093421,0.2155119357\N,-3.62321147
 32,-3.3645133875,-0.2453559161\O,-1.3836969707,-3.6199301523,-0.535204
 7647\O,-5.8669067224,-3.1013601731,0.1039778994\O,-5.0604902443,3.8434
 871232,0.6280219315\O,-0.6047446459,3.4775716809,-0.1370849501\C,-2.64
 53825073,5.0932755607,0.2322527848\H,-1.9598355952,5.3747681932,1.0319
 098262\H,-2.219954077,5.4234412878,-0.7153334737\H,-3.6207439623,5.541
 8344512,0.3918394201\C,-3.7752254127,-4.8209715222,-0.3720165792\H,-3.
 3862713713,-5.1471834058,-1.3366176356\H,-3.2096041883,-5.3214935674,0
 .4145145004\H,-4.8316081909,-5.0549815086,-0.2872009017\C,0.7857403436
 ,0.8841749551,-0.3108100218\C,1.7239907938,0.0574736829,-0.9285675433\
 S,1.6125301735,2.1360917586,0.5909740969\C,3.0544922992,0.4166145546,-
 0.679279774\H,1.4501126167,-0.7693274207,-1.5656150243\C,3.1907045719,
 1.5097581061,0.1803062935\O,4.1689490478,-0.1915352176,-1.1675576733\C
 ,4.4116428562,2.1061662741,0.6428934459\C,3.9980751099,-1.2218754209,-
 2.1361891276\C,4.5566246515,3.1981246506,1.4948993587\S,6.0048437666,1
 .5125714762,0.1828250498\H,5.0012470715,-1.5283484844,-2.4268564385\H,
 3.4658485001,-2.0794168064,-1.7116850186\H,3.4598862643,-0.8499760276,
 -3.014074135\C,5.9069325167,3.5492432447,1.7670063799\O,3.450715782,3.
 8197274927,1.9726262157\C,6.7885856271,2.723090419,1.126357497\H,6.211
 5053158,4.3674381566,2.4029147392\C,3.6241131511,4.9141079933,2.868379
 3183\H,7.8667954304,2.7611263471,1.1573809073\H,4.1664917782,5.7342164
 913,2.3873573826\H,2.6210148786,5.2468333276,3.1279928874\H,4.15188589
 91,4.6005863489,3.7746945858\\Version=ES64L-G16RevC.01\State=1-A\HF=-2
 359.3352159\RMSD=7.833e-09\RMSF=4.344e-04\Dipole=1.9657472,0.4354716,0
 .145506\Quadrupole=-3.7274258,0.25769,3.4697358,6.9403356,4.7175043,11
 .0970455\PG=C01 [X(C26H18N2O6S2)]\\@
 The archive entry for this job was punched.


 ... IT IS NO ONE DREAME THAT
     CAN PLEASE THESE ALL ...

                -- BEN JONSON
 Job cpu time:       2 days 11 hours 28 minutes 38.1 seconds.
 Elapsed time:       0 days  7 hours 30 minutes 53.0 seconds.
 File lengths (MBytes):  RWF=    496 Int=      0 D2E=      0 Chk=     61 Scr=      1
 Normal termination of Gaussian 16 at Sun Nov 29 16:30:15 2020.
