 Entering Gaussian System, Link 0=g16
 Input=NDI_-130.gjf
 Output=NDI_-130.log
 Initial command:
 /apps/gaussian/g16-c01-avx/g16/l1.exe "/tmp/pbs.2625174[10].pbs/Gau-3909227.inp" -scrdir="/tmp/pbs.2625174[10].pbs/"
 Entering Link 1 = /apps/gaussian/g16-c01-avx/g16/l1.exe PID=   3909235.
  
 Copyright (c) 1988-2019, Gaussian, Inc.  All Rights Reserved.
  
 This is part of the Gaussian(R) 16 program.  It is based on
 the Gaussian(R) 09 system (copyright 2009, Gaussian, Inc.),
 the Gaussian(R) 03 system (copyright 2003, Gaussian, Inc.),
 the Gaussian(R) 98 system (copyright 1998, Gaussian, Inc.),
 the Gaussian(R) 94 system (copyright 1995, Gaussian, Inc.),
 the Gaussian 92(TM) system (copyright 1992, Gaussian, Inc.),
 the Gaussian 90(TM) system (copyright 1990, Gaussian, Inc.),
 the Gaussian 88(TM) system (copyright 1988, Gaussian, Inc.),
 the Gaussian 86(TM) system (copyright 1986, Carnegie Mellon
 University), and the Gaussian 82(TM) system (copyright 1983,
 Carnegie Mellon University). Gaussian is a federally registered
 trademark of Gaussian, Inc.
  
 This software contains proprietary and confidential information,
 including trade secrets, belonging to Gaussian, Inc.
  
 This software is provided under written license and may be
 used, copied, transmitted, or stored only in accord with that
 written license.
  
 The following legend is applicable only to US Government
 contracts under FAR:
  
                    RESTRICTED RIGHTS LEGEND
  
 Use, reproduction and disclosure by the US Government is
 subject to restrictions as set forth in subparagraphs (a)
 and (c) of the Commercial Computer Software - Restricted
 Rights clause in FAR 52.227-19.
  
 Gaussian, Inc.
 340 Quinnipiac St., Bldg. 40, Wallingford CT 06492
  
  
 ---------------------------------------------------------------
 Warning -- This program may not be used in any manner that
 competes with the business of Gaussian, Inc. or will provide
 assistance to any competitor of Gaussian, Inc.  The licensee
 of this program is prohibited from giving any competitor of
 Gaussian, Inc. access to this program.  By using this program,
 the user acknowledges that Gaussian, Inc. is engaged in the
 business of creating and licensing software in the field of
 computational chemistry and represents and warrants to the
 licensee that it is not a competitor of Gaussian, Inc. and that
 it will not use this program in any manner prohibited above.
 ---------------------------------------------------------------
  

 Cite this work as:
 Gaussian 16, Revision C.01,
 M. J. Frisch, G. W. Trucks, H. B. Schlegel, G. E. Scuseria, 
 M. A. Robb, J. R. Cheeseman, G. Scalmani, V. Barone, 
 G. A. Petersson, H. Nakatsuji, X. Li, M. Caricato, A. V. Marenich, 
 J. Bloino, B. G. Janesko, R. Gomperts, B. Mennucci, H. P. Hratchian, 
 J. V. Ortiz, A. F. Izmaylov, J. L. Sonnenberg, D. Williams-Young, 
 F. Ding, F. Lipparini, F. Egidi, J. Goings, B. Peng, A. Petrone, 
 T. Henderson, D. Ranasinghe, V. G. Zakrzewski, J. Gao, N. Rega, 
 G. Zheng, W. Liang, M. Hada, M. Ehara, K. Toyota, R. Fukuda, 
 J. Hasegawa, M. Ishida, T. Nakajima, Y. Honda, O. Kitao, H. Nakai, 
 T. Vreven, K. Throssell, J. A. Montgomery, Jr., J. E. Peralta, 
 F. Ogliaro, M. J. Bearpark, J. J. Heyd, E. N. Brothers, K. N. Kudin, 
 V. N. Staroverov, T. A. Keith, R. Kobayashi, J. Normand, 
 K. Raghavachari, A. P. Rendell, J. C. Burant, S. S. Iyengar, 
 J. Tomasi, M. Cossi, J. M. Millam, M. Klene, C. Adamo, R. Cammi, 
 J. W. Ochterski, R. L. Martin, K. Morokuma, O. Farkas, 
 J. B. Foresman, and D. J. Fox, Gaussian, Inc., Wallingford CT, 2019.
 
 ******************************************
 Gaussian 16:  ES64L-G16RevC.01  3-Jul-2019
                29-Nov-2020 
 ******************************************
 %mem=10GB
 %nprocshared=8
 Will use up to    8 processors via shared memory.
 -------------------------------------
 # opt=modredundant b3lyp/6-311+g(d,p)
 -------------------------------------
 1/18=120,19=15,26=3,38=1/1,3;
 2/9=110,12=2,17=6,18=5,40=1/2;
 3/5=4,6=6,7=111,11=2,25=1,30=1,71=1,74=-5/1,2,3;
 4//1;
 5/5=2,38=5/2;
 6/7=2,8=2,9=2,10=2,28=1/1;
 7//1,2,3,16;
 1/18=20,19=15,26=3/3(2);
 2/9=110/2;
 99//99;
 2/9=110/2;
 3/5=4,6=6,7=111,11=2,25=1,30=1,71=1,74=-5/1,2,3;
 4/5=5,16=3,69=1/1;
 5/5=2,38=5/2;
 7//1,2,3,16;
 1/18=20,19=15,26=3/3(-5);
 2/9=110/2;
 6/7=2,8=2,9=2,10=2,19=2,28=1/1;
 99/9=1/99;
 ------------
 NDI_-130.pdb
 ------------
 Symbolic Z-matrix:
 Charge =  0 Multiplicity = 1
 C                    -2.563    -2.994    -0.409 
 C                    -2.257    -1.551    -0.224 
 C                    -3.301    -0.607    -0.083 
 C                    -4.65     -1.024    -0.115 
 C                    -4.992    -2.459    -0.304 
 C                    -0.949    -1.137    -0.215 
 C                    -2.962     0.764     0.102 
 C                    -1.595     1.188     0.123 
 C                    -0.561     0.232    -0.072 
 C                    -1.328     2.616     0.446 
 C                    -3.777     3.115     0.508 
 C                    -4.035     1.679     0.268 
 C                    -5.356     1.252     0.23 
 C                    -5.672    -0.098     0.036 
 H                    -6.699    -0.442     0.008 
 H                    -6.133     1.997     0.361 
 H                    -0.19     -1.895    -0.369 
 N                    -2.432     3.476     0.608 
 N                    -3.916    -3.353    -0.438 
 O                    -1.695    -3.847    -0.532 
 O                    -6.149    -2.85     -0.34 
 O                    -4.676     3.938     0.629 
 O                    -0.212     3.097     0.596 
 C                    -2.111     4.875     0.912 
 H                    -1.54      4.931     1.84 
 H                    -1.5       5.299     0.111 
 H                    -3.05      5.414     1.003 
 C                    -4.206    -4.779    -0.625 
 H                    -3.759    -5.126    -1.559 
 H                    -3.775    -5.355     0.196 
 H                    -5.286    -4.897    -0.649 
 C                     0.876     0.482    -0.178 
 C                     1.8       0.062    -1.115 
 S                     1.69      1.331     1.136 
 C                     3.126     0.413    -0.795 
 H                     1.524    -0.476    -2.008 
 C                     3.263     1.124     0.402 
 O                     4.237     0.129    -1.525 
 C                     4.468     1.656     0.973 
 C                     4.048    -0.469    -2.804 
 C                     4.606     2.344     2.177 
 S                     6.044     1.512     0.2 
 H                     5.039    -0.538    -3.253 
 H                     3.62     -1.475    -2.713 
 H                     3.398     0.146    -3.437 
 C                     5.94      2.746     2.47 
 O                     3.506     2.572     2.942 
 C                     6.815     2.362     1.49 
 H                     6.236     3.288     3.357 
 C                     3.683     3.247     4.182 
 H                     7.883     2.534     1.457 
 H                     4.081     4.258     4.032 
 H                     2.694     3.311     4.634 
 H                     4.352     2.687     4.847 
 
 The following ModRedundant input section has been read:
 D       8       9      32      33 F                                           
 D      33      35      38      40 F                                           
 D      46      41      47      50 F                                           
 D      10      18      24      25 F                                           
 D       1      19      28      30 F                                           
 D       9       8      10      23 F                                           
 D      20       1       2       6 F                                           
 

 GradGradGradGradGradGradGradGradGradGradGradGradGradGradGradGradGradGrad
 Berny optimization.
 Initialization pass.
                           ----------------------------
                           !    Initial Parameters    !
                           ! (Angstroms and Degrees)  !
 --------------------------                            --------------------------
 ! Name  Definition              Value          Derivative Info.                !
 --------------------------------------------------------------------------------
 ! R1    R(1,2)                  1.4866         estimate D2E/DX2                !
 ! R2    R(1,19)                 1.4001         estimate D2E/DX2                !
 ! R3    R(1,20)                 1.2232         estimate D2E/DX2                !
 ! R4    R(2,3)                  1.4146         estimate D2E/DX2                !
 ! R5    R(2,6)                  1.372          estimate D2E/DX2                !
 ! R6    R(3,4)                  1.4123         estimate D2E/DX2                !
 ! R7    R(3,7)                  1.4244         estimate D2E/DX2                !
 ! R8    R(4,5)                  1.4872         estimate D2E/DX2                !
 ! R9    R(4,14)                 1.3874         estimate D2E/DX2                !
 ! R10   R(5,19)                 1.4053         estimate D2E/DX2                !
 ! R11   R(5,21)                 1.2218         estimate D2E/DX2                !
 ! R12   R(6,9)                  1.4301         estimate D2E/DX2                !
 ! R13   R(6,17)                 1.0837         estimate D2E/DX2                !
 ! R14   R(7,8)                  1.4314         estimate D2E/DX2                !
 ! R15   R(7,12)                 1.4199         estimate D2E/DX2                !
 ! R16   R(8,9)                  1.4217         estimate D2E/DX2                !
 ! R17   R(8,10)                 1.4882         estimate D2E/DX2                !
 ! R18   R(9,32)                 1.4624         estimate D2E/DX2                !
 ! R19   R(10,18)                1.4088         estimate D2E/DX2                !
 ! R20   R(10,23)                1.2245         estimate D2E/DX2                !
 ! R21   R(11,12)                1.4786         estimate D2E/DX2                !
 ! R22   R(11,18)                1.3962         estimate D2E/DX2                !
 ! R23   R(11,22)                1.2248         estimate D2E/DX2                !
 ! R24   R(12,13)                1.3888         estimate D2E/DX2                !
 ! R25   R(13,14)                1.4            estimate D2E/DX2                !
 ! R26   R(13,16)                1.0844         estimate D2E/DX2                !
 ! R27   R(14,15)                1.0834         estimate D2E/DX2                !
 ! R28   R(18,24)                1.4672         estimate D2E/DX2                !
 ! R29   R(19,28)                1.4672         estimate D2E/DX2                !
 ! R30   R(24,25)                1.091          estimate D2E/DX2                !
 ! R31   R(24,26)                1.093          estimate D2E/DX2                !
 ! R32   R(24,27)                1.0865         estimate D2E/DX2                !
 ! R33   R(28,29)                1.0921         estimate D2E/DX2                !
 ! R34   R(28,30)                1.0916         estimate D2E/DX2                !
 ! R35   R(28,31)                1.0867         estimate D2E/DX2                !
 ! R36   R(32,33)                1.3814         estimate D2E/DX2                !
 ! R37   R(32,34)                1.7635         estimate D2E/DX2                !
 ! R38   R(33,35)                1.4085         estimate D2E/DX2                !
 ! R39   R(33,36)                1.0785         estimate D2E/DX2                !
 ! R40   R(34,37)                1.7481         estimate D2E/DX2                !
 ! R41   R(35,37)                1.399          estimate D2E/DX2                !
 ! R42   R(35,38)                1.3594         estimate D2E/DX2                !
 ! R43   R(37,39)                1.4356         estimate D2E/DX2                !
 ! R44   R(38,40)                1.4245         estimate D2E/DX2                !
 ! R45   R(39,41)                1.3936         estimate D2E/DX2                !
 ! R46   R(39,42)                1.7613         estimate D2E/DX2                !
 ! R47   R(40,43)                1.0902         estimate D2E/DX2                !
 ! R48   R(40,44)                1.097          estimate D2E/DX2                !
 ! R49   R(40,45)                1.0961         estimate D2E/DX2                !
 ! R50   R(41,46)                1.4237         estimate D2E/DX2                !
 ! R51   R(41,47)                1.3591         estimate D2E/DX2                !
 ! R52   R(42,48)                1.7266         estimate D2E/DX2                !
 ! R53   R(46,48)                1.3688         estimate D2E/DX2                !
 ! R54   R(46,49)                1.0808         estimate D2E/DX2                !
 ! R55   R(47,50)                1.4229         estimate D2E/DX2                !
 ! R56   R(48,51)                1.0823         estimate D2E/DX2                !
 ! R57   R(50,52)                1.0968         estimate D2E/DX2                !
 ! R58   R(50,53)                1.0893         estimate D2E/DX2                !
 ! R59   R(50,54)                1.097          estimate D2E/DX2                !
 ! A1    A(2,1,19)             116.767          estimate D2E/DX2                !
 ! A2    A(2,1,20)             122.9113         estimate D2E/DX2                !
 ! A3    A(19,1,20)            120.3217         estimate D2E/DX2                !
 ! A4    A(1,2,3)              120.5473         estimate D2E/DX2                !
 ! A5    A(1,2,6)              119.3369         estimate D2E/DX2                !
 ! A6    A(3,2,6)              120.1056         estimate D2E/DX2                !
 ! A7    A(2,3,4)              120.3743         estimate D2E/DX2                !
 ! A8    A(2,3,7)              118.662          estimate D2E/DX2                !
 ! A9    A(4,3,7)              120.9617         estimate D2E/DX2                !
 ! A10   A(3,4,5)              120.4909         estimate D2E/DX2                !
 ! A11   A(3,4,14)             120.2702         estimate D2E/DX2                !
 ! A12   A(5,4,14)             119.2382         estimate D2E/DX2                !
 ! A13   A(4,5,19)             116.7341         estimate D2E/DX2                !
 ! A14   A(4,5,21)             122.024          estimate D2E/DX2                !
 ! A15   A(19,5,21)            121.2418         estimate D2E/DX2                !
 ! A16   A(2,6,9)              123.2421         estimate D2E/DX2                !
 ! A17   A(2,6,17)             117.1119         estimate D2E/DX2                !
 ! A18   A(9,6,17)             119.589          estimate D2E/DX2                !
 ! A19   A(3,7,8)              120.9519         estimate D2E/DX2                !
 ! A20   A(3,7,12)             117.1037         estimate D2E/DX2                !
 ! A21   A(8,7,12)             121.944          estimate D2E/DX2                !
 ! A22   A(7,8,9)              119.5639         estimate D2E/DX2                !
 ! A23   A(7,8,10)             117.3064         estimate D2E/DX2                !
 ! A24   A(9,8,10)             122.9922         estimate D2E/DX2                !
 ! A25   A(6,9,8)              117.3944         estimate D2E/DX2                !
 ! A26   A(6,9,32)             115.0236         estimate D2E/DX2                !
 ! A27   A(8,9,32)             127.5648         estimate D2E/DX2                !
 ! A28   A(8,10,18)            118.042          estimate D2E/DX2                !
 ! A29   A(8,10,23)            124.5436         estimate D2E/DX2                !
 ! A30   A(18,10,23)           117.4097         estimate D2E/DX2                !
 ! A31   A(12,11,18)           115.5202         estimate D2E/DX2                !
 ! A32   A(12,11,22)           122.7205         estimate D2E/DX2                !
 ! A33   A(18,11,22)           121.7534         estimate D2E/DX2                !
 ! A34   A(7,12,11)            120.8614         estimate D2E/DX2                !
 ! A35   A(7,12,13)            121.162          estimate D2E/DX2                !
 ! A36   A(11,12,13)           117.9699         estimate D2E/DX2                !
 ! A37   A(12,13,14)           120.9948         estimate D2E/DX2                !
 ! A38   A(12,13,16)           117.8401         estimate D2E/DX2                !
 ! A39   A(14,13,16)           121.1642         estimate D2E/DX2                !
 ! A40   A(4,14,13)            119.5003         estimate D2E/DX2                !
 ! A41   A(4,14,15)            118.9169         estimate D2E/DX2                !
 ! A42   A(13,14,15)           121.5811         estimate D2E/DX2                !
 ! A43   A(10,18,11)           126.0753         estimate D2E/DX2                !
 ! A44   A(10,18,24)           115.7508         estimate D2E/DX2                !
 ! A45   A(11,18,24)           118.1737         estimate D2E/DX2                !
 ! A46   A(1,19,5)             125.0856         estimate D2E/DX2                !
 ! A47   A(1,19,28)            116.2868         estimate D2E/DX2                !
 ! A48   A(5,19,28)            118.6276         estimate D2E/DX2                !
 ! A49   A(18,24,25)           109.8574         estimate D2E/DX2                !
 ! A50   A(18,24,26)           109.8979         estimate D2E/DX2                !
 ! A51   A(18,24,27)           107.5355         estimate D2E/DX2                !
 ! A52   A(25,24,26)           108.1108         estimate D2E/DX2                !
 ! A53   A(25,24,27)           110.8301         estimate D2E/DX2                !
 ! A54   A(26,24,27)           110.6124         estimate D2E/DX2                !
 ! A55   A(19,28,29)           109.6906         estimate D2E/DX2                !
 ! A56   A(19,28,30)           109.8136         estimate D2E/DX2                !
 ! A57   A(19,28,31)           107.7461         estimate D2E/DX2                !
 ! A58   A(29,28,30)           108.2991         estimate D2E/DX2                !
 ! A59   A(29,28,31)           110.6959         estimate D2E/DX2                !
 ! A60   A(30,28,31)           110.5924         estimate D2E/DX2                !
 ! A61   A(9,32,33)            130.8791         estimate D2E/DX2                !
 ! A62   A(9,32,34)            118.8058         estimate D2E/DX2                !
 ! A63   A(33,32,34)           110.0622         estimate D2E/DX2                !
 ! A64   A(32,33,35)           113.5688         estimate D2E/DX2                !
 ! A65   A(32,33,36)           122.831          estimate D2E/DX2                !
 ! A66   A(35,33,36)           123.5985         estimate D2E/DX2                !
 ! A67   A(32,34,37)            92.6066         estimate D2E/DX2                !
 ! A68   A(33,35,37)           114.4084         estimate D2E/DX2                !
 ! A69   A(33,35,38)           126.5377         estimate D2E/DX2                !
 ! A70   A(37,35,38)           119.0538         estimate D2E/DX2                !
 ! A71   A(34,37,35)           109.3492         estimate D2E/DX2                !
 ! A72   A(34,37,39)           122.9823         estimate D2E/DX2                !
 ! A73   A(35,37,39)           127.6503         estimate D2E/DX2                !
 ! A74   A(35,38,40)           117.4797         estimate D2E/DX2                !
 ! A75   A(37,39,41)           127.5673         estimate D2E/DX2                !
 ! A76   A(37,39,42)           123.1065         estimate D2E/DX2                !
 ! A77   A(41,39,42)           109.3261         estimate D2E/DX2                !
 ! A78   A(38,40,43)           106.0074         estimate D2E/DX2                !
 ! A79   A(38,40,44)           111.2382         estimate D2E/DX2                !
 ! A80   A(38,40,45)           111.2023         estimate D2E/DX2                !
 ! A81   A(43,40,44)           109.316          estimate D2E/DX2                !
 ! A82   A(43,40,45)           109.6781         estimate D2E/DX2                !
 ! A83   A(44,40,45)           109.3335         estimate D2E/DX2                !
 ! A84   A(39,41,46)           114.2042         estimate D2E/DX2                !
 ! A85   A(39,41,47)           119.2732         estimate D2E/DX2                !
 ! A86   A(46,41,47)           126.5222         estimate D2E/DX2                !
 ! A87   A(39,42,48)            91.8001         estimate D2E/DX2                !
 ! A88   A(41,46,48)           111.8648         estimate D2E/DX2                !
 ! A89   A(41,46,49)           124.5481         estimate D2E/DX2                !
 ! A90   A(48,46,49)           123.5871         estimate D2E/DX2                !
 ! A91   A(41,47,50)           117.9971         estimate D2E/DX2                !
 ! A92   A(42,48,46)           112.8048         estimate D2E/DX2                !
 ! A93   A(42,48,51)           119.7438         estimate D2E/DX2                !
 ! A94   A(46,48,51)           127.4514         estimate D2E/DX2                !
 ! A95   A(47,50,52)           111.2987         estimate D2E/DX2                !
 ! A96   A(47,50,53)           106.0545         estimate D2E/DX2                !
 ! A97   A(47,50,54)           111.2222         estimate D2E/DX2                !
 ! A98   A(52,50,53)           109.3934         estimate D2E/DX2                !
 ! A99   A(52,50,54)           109.3995         estimate D2E/DX2                !
 ! A100  A(53,50,54)           109.3997         estimate D2E/DX2                !
 ! D1    D(19,1,2,3)             0.1578         estimate D2E/DX2                !
 ! D2    D(19,1,2,6)          -178.6792         estimate D2E/DX2                !
 ! D3    D(20,1,2,3)          -179.8231         estimate D2E/DX2                !
 ! D4    D(20,1,2,6)             1.3399         Frozen                          !
 ! D5    D(2,1,19,5)            -0.124          estimate D2E/DX2                !
 ! D6    D(2,1,19,28)          179.8267         estimate D2E/DX2                !
 ! D7    D(20,1,19,5)          179.8575         estimate D2E/DX2                !
 ! D8    D(20,1,19,28)          -0.1919         estimate D2E/DX2                !
 ! D9    D(1,2,3,4)              0.0571         estimate D2E/DX2                !
 ! D10   D(1,2,3,7)            179.5453         estimate D2E/DX2                !
 ! D11   D(6,2,3,4)            178.8851         estimate D2E/DX2                !
 ! D12   D(6,2,3,7)             -1.6266         estimate D2E/DX2                !
 ! D13   D(1,2,6,9)            178.625          estimate D2E/DX2                !
 ! D14   D(1,2,6,17)             1.3881         estimate D2E/DX2                !
 ! D15   D(3,2,6,9)             -0.2173         estimate D2E/DX2                !
 ! D16   D(3,2,6,17)          -177.4541         estimate D2E/DX2                !
 ! D17   D(2,3,4,5)             -0.3074         estimate D2E/DX2                !
 ! D18   D(2,3,4,14)           179.3968         estimate D2E/DX2                !
 ! D19   D(7,3,4,5)           -179.7837         estimate D2E/DX2                !
 ! D20   D(7,3,4,14)            -0.0795         estimate D2E/DX2                !
 ! D21   D(2,3,7,8)              1.0523         estimate D2E/DX2                !
 ! D22   D(2,3,7,12)          -178.712          estimate D2E/DX2                !
 ! D23   D(4,3,7,8)           -179.4626         estimate D2E/DX2                !
 ! D24   D(4,3,7,12)             0.7731         estimate D2E/DX2                !
 ! D25   D(3,4,5,19)             0.3343         estimate D2E/DX2                !
 ! D26   D(3,4,5,21)          -179.7799         estimate D2E/DX2                !
 ! D27   D(14,4,5,19)         -179.3729         estimate D2E/DX2                !
 ! D28   D(14,4,5,21)            0.5129         estimate D2E/DX2                !
 ! D29   D(3,4,14,13)           -0.4559         estimate D2E/DX2                !
 ! D30   D(3,4,14,15)         -179.9937         estimate D2E/DX2                !
 ! D31   D(5,4,14,13)          179.252          estimate D2E/DX2                !
 ! D32   D(5,4,14,15)           -0.2858         estimate D2E/DX2                !
 ! D33   D(4,5,19,1)            -0.1141         estimate D2E/DX2                !
 ! D34   D(4,5,19,28)          179.9364         estimate D2E/DX2                !
 ! D35   D(21,5,19,1)          179.9992         estimate D2E/DX2                !
 ! D36   D(21,5,19,28)           0.0496         estimate D2E/DX2                !
 ! D37   D(2,6,9,8)              2.5984         estimate D2E/DX2                !
 ! D38   D(2,6,9,32)          -176.0103         estimate D2E/DX2                !
 ! D39   D(17,6,9,8)           179.77           estimate D2E/DX2                !
 ! D40   D(17,6,9,32)            1.1613         estimate D2E/DX2                !
 ! D41   D(3,7,8,9)              1.3551         estimate D2E/DX2                !
 ! D42   D(3,7,8,10)          -174.5099         estimate D2E/DX2                !
 ! D43   D(12,7,8,9)          -178.8921         estimate D2E/DX2                !
 ! D44   D(12,7,8,10)            5.2428         estimate D2E/DX2                !
 ! D45   D(3,7,12,11)          178.0768         estimate D2E/DX2                !
 ! D46   D(3,7,12,13)           -0.9621         estimate D2E/DX2                !
 ! D47   D(8,7,12,11)           -1.685          estimate D2E/DX2                !
 ! D48   D(8,7,12,13)          179.2761         estimate D2E/DX2                !
 ! D49   D(7,8,9,6)             -3.0809         estimate D2E/DX2                !
 ! D50   D(7,8,9,32)           175.3285         estimate D2E/DX2                !
 ! D51   D(10,8,9,6)           172.5381         estimate D2E/DX2                !
 ! D52   D(10,8,9,32)           -9.0525         estimate D2E/DX2                !
 ! D53   D(7,8,10,18)           -4.7549         estimate D2E/DX2                !
 ! D54   D(7,8,10,23)          174.4235         estimate D2E/DX2                !
 ! D55   D(9,8,10,18)          179.5335         estimate D2E/DX2                !
 ! D56   D(9,8,10,23)           -1.2882         Frozen                          !
 ! D57   D(6,9,32,33)           48.4704         estimate D2E/DX2                !
 ! D58   D(6,9,32,34)         -125.1197         estimate D2E/DX2                !
 ! D59   D(8,9,32,33)         -129.9711         Frozen                          !
 ! D60   D(8,9,32,34)           56.4388         estimate D2E/DX2                !
 ! D61   D(8,10,18,11)           0.7189         estimate D2E/DX2                !
 ! D62   D(8,10,18,24)        -179.4089         estimate D2E/DX2                !
 ! D63   D(23,10,18,11)       -178.5188         estimate D2E/DX2                !
 ! D64   D(23,10,18,24)          1.3535         estimate D2E/DX2                !
 ! D65   D(18,11,12,7)          -2.3856         estimate D2E/DX2                !
 ! D66   D(18,11,12,13)        176.6833         estimate D2E/DX2                !
 ! D67   D(22,11,12,7)         178.4862         estimate D2E/DX2                !
 ! D68   D(22,11,12,13)         -2.445          estimate D2E/DX2                !
 ! D69   D(12,11,18,10)          2.8444         estimate D2E/DX2                !
 ! D70   D(12,11,18,24)       -177.0251         estimate D2E/DX2                !
 ! D71   D(22,11,18,10)       -178.0181         estimate D2E/DX2                !
 ! D72   D(22,11,18,24)          2.1124         estimate D2E/DX2                !
 ! D73   D(7,12,13,14)           0.461          estimate D2E/DX2                !
 ! D74   D(7,12,13,16)        -179.8781         estimate D2E/DX2                !
 ! D75   D(11,12,13,14)       -178.6049         estimate D2E/DX2                !
 ! D76   D(11,12,13,16)          1.056          estimate D2E/DX2                !
 ! D77   D(12,13,14,4)           0.2708         estimate D2E/DX2                !
 ! D78   D(12,13,14,15)        179.7958         estimate D2E/DX2                !
 ! D79   D(16,13,14,4)        -179.3788         estimate D2E/DX2                !
 ! D80   D(16,13,14,15)          0.1463         estimate D2E/DX2                !
 ! D81   D(10,18,24,25)        -59.609          Frozen                          !
 ! D82   D(10,18,24,26)         59.2209         estimate D2E/DX2                !
 ! D83   D(10,18,24,27)        179.6858         estimate D2E/DX2                !
 ! D84   D(11,18,24,25)        120.2739         estimate D2E/DX2                !
 ! D85   D(11,18,24,26)       -120.8962         estimate D2E/DX2                !
 ! D86   D(11,18,24,27)         -0.4313         estimate D2E/DX2                !
 ! D87   D(1,19,28,29)         -58.1407         estimate D2E/DX2                !
 ! D88   D(1,19,28,30)          60.7668         Frozen                          !
 ! D89   D(1,19,28,31)        -178.7139         estimate D2E/DX2                !
 ! D90   D(5,19,28,29)         121.8132         estimate D2E/DX2                !
 ! D91   D(5,19,28,30)        -119.2792         estimate D2E/DX2                !
 ! D92   D(5,19,28,31)           1.2401         estimate D2E/DX2                !
 ! D93   D(9,32,33,35)        -174.2235         estimate D2E/DX2                !
 ! D94   D(9,32,33,36)           6.2413         estimate D2E/DX2                !
 ! D95   D(34,32,33,35)         -0.2014         estimate D2E/DX2                !
 ! D96   D(34,32,33,36)       -179.7366         estimate D2E/DX2                !
 ! D97   D(9,32,34,37)         175.3361         estimate D2E/DX2                !
 ! D98   D(33,32,34,37)          0.4918         estimate D2E/DX2                !
 ! D99   D(32,33,35,37)         -0.3058         estimate D2E/DX2                !
 ! D100  D(32,33,35,38)        179.7176         estimate D2E/DX2                !
 ! D101  D(36,33,35,37)        179.2253         estimate D2E/DX2                !
 ! D102  D(36,33,35,38)         -0.7512         estimate D2E/DX2                !
 ! D103  D(32,34,37,35)         -0.6486         estimate D2E/DX2                !
 ! D104  D(32,34,37,39)        177.9057         estimate D2E/DX2                !
 ! D105  D(33,35,37,34)          0.6626         estimate D2E/DX2                !
 ! D106  D(33,35,37,39)       -177.8057         estimate D2E/DX2                !
 ! D107  D(38,35,37,34)       -179.3589         estimate D2E/DX2                !
 ! D108  D(38,35,37,39)          2.1727         estimate D2E/DX2                !
 ! D109  D(33,35,38,40)          6.5037         Frozen                          !
 ! D110  D(37,35,38,40)       -173.4719         estimate D2E/DX2                !
 ! D111  D(34,37,39,41)          2.9329         estimate D2E/DX2                !
 ! D112  D(34,37,39,42)       -177.1606         estimate D2E/DX2                !
 ! D113  D(35,37,39,41)       -178.7899         estimate D2E/DX2                !
 ! D114  D(35,37,39,42)          1.1166         estimate D2E/DX2                !
 ! D115  D(35,38,40,43)        175.4696         estimate D2E/DX2                !
 ! D116  D(35,38,40,44)        -65.7999         estimate D2E/DX2                !
 ! D117  D(35,38,40,45)         56.3232         estimate D2E/DX2                !
 ! D118  D(37,39,41,46)        179.993          estimate D2E/DX2                !
 ! D119  D(37,39,41,47)         -0.2199         estimate D2E/DX2                !
 ! D120  D(42,39,41,46)          0.076          estimate D2E/DX2                !
 ! D121  D(42,39,41,47)        179.8631         estimate D2E/DX2                !
 ! D122  D(37,39,42,48)       -179.9619         estimate D2E/DX2                !
 ! D123  D(41,39,42,48)         -0.0404         estimate D2E/DX2                !
 ! D124  D(39,41,46,48)         -0.0818         estimate D2E/DX2                !
 ! D125  D(39,41,46,49)        179.9951         estimate D2E/DX2                !
 ! D126  D(47,41,46,48)       -179.8506         estimate D2E/DX2                !
 ! D127  D(47,41,46,49)          0.2262         estimate D2E/DX2                !
 ! D128  D(39,41,47,50)        178.4323         estimate D2E/DX2                !
 ! D129  D(46,41,47,50)         -1.8094         Frozen                          !
 ! D130  D(39,42,48,46)         -0.0047         estimate D2E/DX2                !
 ! D131  D(39,42,48,51)        179.9343         estimate D2E/DX2                !
 ! D132  D(41,46,48,42)          0.0482         estimate D2E/DX2                !
 ! D133  D(41,46,48,51)       -179.885          estimate D2E/DX2                !
 ! D134  D(49,46,48,42)        179.9723         estimate D2E/DX2                !
 ! D135  D(49,46,48,51)          0.039          estimate D2E/DX2                !
 ! D136  D(41,47,50,52)         61.9744         estimate D2E/DX2                !
 ! D137  D(41,47,50,53)       -179.1408         estimate D2E/DX2                !
 ! D138  D(41,47,50,54)        -60.29           estimate D2E/DX2                !
 --------------------------------------------------------------------------------
 Trust Radius=3.00D-01 FncErr=1.00D-07 GrdErr=1.00D-06 EigMax=2.50D+02 EigMin=1.00D-04
 Number of steps in this run=    307 maximum allowed number of steps=    324.
 GradGradGradGradGradGradGradGradGradGradGradGradGradGradGradGradGradGrad

 Stoichiometry    C26H18N2O6S2
 Framework group  C1[X(C26H18N2O6S2)]
 Deg. of freedom   156
 Full point group                 C1      NOp   1
 Largest Abelian subgroup         C1      NOp   1
 Largest concise Abelian subgroup C1      NOp   1
                         Standard orientation:                         
 ---------------------------------------------------------------------
 Center     Atomic      Atomic             Coordinates (Angstroms)
 Number     Number       Type             X           Y           Z
 ---------------------------------------------------------------------
      1          6           0       -3.544550   -2.644141    0.634266
      2          6           0       -2.790282   -1.411247    0.286183
      3          6           0       -3.468490   -0.186402    0.084336
      4          6           0       -4.873386   -0.118469    0.212274
      5          6           0       -5.659669   -1.333755    0.553957
      6          6           0       -1.427852   -1.476027    0.138101
      7          6           0       -2.705162    0.972125   -0.238047
      8          6           0       -1.282498    0.900693   -0.378871
      9          6           0       -0.624107   -0.349649   -0.223036
     10          6           0       -0.552513    2.179855   -0.592567
     11          6           0       -2.702881    3.450616   -0.699937
     12          6           0       -3.416529    2.189446   -0.405970
     13          6           0       -4.798813    2.237280   -0.280197
     14          6           0       -5.535112    1.086612    0.026102
     15          1           0       -6.613255    1.113717    0.129650
     16          1           0       -5.287326    3.195059   -0.421362
     17          1           0       -0.963165   -2.447073    0.262586
     18          7           0       -1.310498    3.357610   -0.744264
     19          7           0       -4.935060   -2.522758    0.744169
     20          8           0       -3.002290   -3.724497    0.821206
     21          8           0       -6.875899   -1.307768    0.667697
     22          8           0       -3.283845    4.514113   -0.877775
     23          8           0        0.666771    2.285229   -0.632063
     24          6           0       -0.540804    4.586940   -0.965574
     25          1           0        0.130357    4.760693   -0.123129
     26          1           0        0.066441    4.488083   -1.868999
     27          1           0       -1.250336    5.403262   -1.069041
     28          6           0       -5.669264   -3.746639    1.084179
     29          1           0       -5.469738   -4.515599    0.334870
     30          1           0       -5.337319   -4.119655    2.054875
     31          1           0       -6.727615   -3.501487    1.110494
     32          6           0        0.795494   -0.640449   -0.420195
     33          6           0        1.422400   -1.632535   -1.148823
     34         16           0        1.987065    0.282073    0.495833
     35          6           0        2.821082   -1.653800   -0.984165
     36          1           0        0.886148   -2.316821   -1.786989
     37          6           0        3.316936   -0.668453   -0.123748
     38          8           0        3.691850   -2.518012   -1.569639
     39          6           0        4.688084   -0.405451    0.210726
     40          6           0        3.171405   -3.414259   -2.546903
     41          6           0        5.178696    0.561660    1.085940
     42         16           0        6.035268   -1.314615   -0.467918
     43          1           0        4.029732   -3.954444   -2.946801
     44          1           0        2.470272   -4.128513   -2.097733
     45          1           0        2.668079   -2.870966   -3.354932
     46          6           0        6.597219    0.573578    1.207018
     47          8           0        4.305478    1.384698    1.724146
     48          6           0        7.183589   -0.385091    0.425606
     49          1           0        7.152827    1.252748    1.838031
     50          6           0        4.833374    2.339605    2.637400
     51          1           0        8.240105   -0.597928    0.326756
     52          1           0        5.500409    3.048272    2.131554
     53          1           0        3.975773    2.875735    3.041883
     54          1           0        5.375468    1.849300    3.455398
 ---------------------------------------------------------------------
 Rotational constants (GHZ):           0.1669577           0.0561466           0.0458135
 Standard basis: 6-311+G(d,p) (5D, 7F)
 There are   952 symmetry adapted cartesian basis functions of A   symmetry.
 There are   916 symmetry adapted basis functions of A   symmetry.
   916 basis functions,  1468 primitive gaussians,   952 cartesian basis functions
   134 alpha electrons      134 beta electrons
       nuclear repulsion energy      4098.5796715738 Hartrees.
 NAtoms=   54 NActive=   54 NUniq=   54 SFac= 1.00D+00 NAtFMM=   60 NAOKFM=F Big=F
 Integral buffers will be    131072 words long.
 Raffenetti 2 integral format.
 Two-electron integral symmetry is turned on.
 One-electron integrals computed using PRISM.
 NBasis=   916 RedAO= T EigKep=  1.05D-06  NBF=   916
 NBsUse=   902 1.00D-06 EigRej=  7.00D-07 NBFU=   902
 ExpMin= 4.05D-02 ExpMax= 9.34D+04 ExpMxC= 3.17D+03 IAcc=3 IRadAn=         5 AccDes= 0.00D+00
 Harris functional with IExCor=  402 and IRadAn=       5 diagonalized for initial guess.
 HarFok:  IExCor=  402 AccDes= 0.00D+00 IRadAn=         5 IDoV= 1 UseB2=F ITyADJ=14
 ICtDFT=  3500011 ScaDFX=  1.000000  1.000000  1.000000  1.000000
 FoFCou: FMM=F IPFlag=           0 FMFlag=      100000 FMFlg1=           0
         NFxFlg=           0 DoJE=T BraDBF=F KetDBF=T FulRan=T
         wScrn=  0.000000 ICntrl=       500 IOpCl=  0 I1Cent=   200000004 NGrid=           0
         NMat0=    1 NMatS0=      1 NMatT0=    0 NMatD0=    1 NMtDS0=    0 NMtDT0=    0
 Petite list used in FoFCou.
 Requested convergence on RMS density matrix=1.00D-08 within 128 cycles.
 Requested convergence on MAX density matrix=1.00D-06.
 Requested convergence on             energy=1.00D-06.
 No special actions if energy rises.
 SCF Done:  E(RB3LYP) =  -2359.32673119     A.U. after   17 cycles
            NFock= 17  Conv=0.69D-08     -V/T= 2.0032

 **********************************************************************

            Population analysis using the SCF Density.

 **********************************************************************

 Orbital symmetries:
       Occupied  (A) (A) (A) (A) (A) (A) (A) (A) (A) (A) (A) (A)
                 (A) (A) (A) (A) (A) (A) (A) (A) (A) (A) (A) (A)
                 (A) (A) (A) (A) (A) (A) (A) (A) (A) (A) (A) (A)
                 (A) (A) (A) (A) (A) (A) (A) (A) (A) (A) (A) (A)
                 (A) (A) (A) (A) (A) (A) (A) (A) (A) (A) (A) (A)
                 (A) (A) (A) (A) (A) (A) (A) (A) (A) (A) (A) (A)
                 (A) (A) (A) (A) (A) (A) (A) (A) (A) (A) (A) (A)
                 (A) (A) (A) (A) (A) (A) (A) (A) (A) (A) (A) (A)
                 (A) (A) (A) (A) (A) (A) (A) (A) (A) (A) (A) (A)
                 (A) (A) (A) (A) (A) (A) (A) (A) (A) (A) (A) (A)
                 (A) (A) (A) (A) (A) (A) (A) (A) (A) (A) (A) (A)
                 (A) (A)
       Virtual   (A) (A) (A) (A) (A) (A) (A) (A) (A) (A) (A) (A)
                 (A) (A) (A) (A) (A) (A) (A) (A) (A) (A) (A) (A)
                 (A) (A) (A) (A) (A) (A) (A) (A) (A) (A) (A) (A)
                 (A) (A) (A) (A) (A) (A) (A) (A) (A) (A) (A) (A)
                 (A) (A) (A) (A) (A) (A) (A) (A) (A) (A) (A) (A)
                 (A) (A) (A) (A) (A) (A) (A) (A) (A) (A) (A) (A)
                 (A) (A) (A) (A) (A) (A) (A) (A) (A) (A) (A) (A)
                 (A) (A) (A) (A) (A) (A) (A) (A) (A) (A) (A) (A)
                 (A) (A) (A) (A) (A) (A) (A) (A) (A) (A) (A) (A)
                 (A) (A) (A) (A) (A) (A) (A) (A) (A) (A) (A) (A)
                 (A) (A) (A) (A) (A) (A) (A) (A) (A) (A) (A) (A)
                 (A) (A) (A) (A) (A) (A) (A) (A) (A) (A) (A) (A)
                 (A) (A) (A) (A) (A) (A) (A) (A) (A) (A) (A) (A)
                 (A) (A) (A) (A) (A) (A) (A) (A) (A) (A) (A) (A)
                 (A) (A) (A) (A) (A) (A) (A) (A) (A) (A) (A) (A)
                 (A) (A) (A) (A) (A) (A) (A) (A) (A) (A) (A) (A)
                 (A) (A) (A) (A) (A) (A) (A) (A) (A) (A) (A) (A)
                 (A) (A) (A) (A) (A) (A) (A) (A) (A) (A) (A) (A)
                 (A) (A) (A) (A) (A) (A) (A) (A) (A) (A) (A) (A)
                 (A) (A) (A) (A) (A) (A) (A) (A) (A) (A) (A) (A)
                 (A) (A) (A) (A) (A) (A) (A) (A) (A) (A) (A) (A)
                 (A) (A) (A) (A) (A) (A) (A) (A) (A) (A) (A) (A)
                 (A) (A) (A) (A) (A) (A) (A) (A) (A) (A) (A) (A)
                 (A) (A) (A) (A) (A) (A) (A) (A) (A) (A) (A) (A)
                 (A) (A) (A) (A) (A) (A) (A) (A) (A) (A) (A) (A)
                 (A) (A) (A) (A) (A) (A) (A) (A) (A) (A) (A) (A)
                 (A) (A) (A) (A) (A) (A) (A) (A) (A) (A) (A) (A)
                 (A) (A) (A) (A) (A) (A) (A) (A) (A) (A) (A) (A)
                 (A) (A) (A) (A) (A) (A) (A) (A) (A) (A) (A) (A)
                 (A) (A) (A) (A) (A) (A) (A) (A) (A) (A) (A) (A)
                 (A) (A) (A) (A) (A) (A) (A) (A) (A) (A) (A) (A)
                 (A) (A) (A) (A) (A) (A) (A) (A) (A) (A) (A) (A)
                 (A) (A) (A) (A) (A) (A) (A) (A) (A) (A) (A) (A)
                 (A) (A) (A) (A) (A) (A) (A) (A) (A) (A) (A) (A)
                 (A) (A) (A) (A) (A) (A) (A) (A) (A) (A) (A) (A)
                 (A) (A) (A) (A) (A) (A) (A) (A) (A) (A) (A) (A)
                 (A) (A) (A) (A) (A) (A) (A) (A) (A) (A) (A) (A)
                 (A) (A) (A) (A) (A) (A) (A) (A) (A) (A) (A) (A)
                 (A) (A) (A) (A) (A) (A) (A) (A) (A) (A) (A) (A)
                 (A) (A) (A) (A) (A) (A) (A) (A) (A) (A) (A) (A)
                 (A) (A) (A) (A) (A) (A) (A) (A) (A) (A) (A) (A)
                 (A) (A) (A) (A) (A) (A) (A) (A) (A) (A) (A) (A)
                 (A) (A) (A) (A) (A) (A) (A) (A) (A) (A) (A) (A)
                 (A) (A) (A) (A) (A) (A) (A) (A) (A) (A) (A) (A)
                 (A) (A) (A) (A) (A) (A) (A) (A) (A) (A) (A) (A)
                 (A) (A) (A) (A) (A) (A) (A) (A) (A) (A) (A) (A)
                 (A) (A) (A) (A) (A) (A) (A) (A) (A) (A) (A) (A)
                 (A) (A) (A) (A) (A) (A) (A) (A) (A) (A) (A) (A)
                 (A) (A) (A) (A) (A) (A) (A) (A) (A) (A) (A) (A)
                 (A) (A) (A) (A) (A) (A) (A) (A) (A) (A) (A) (A)
                 (A) (A) (A) (A) (A) (A) (A) (A) (A) (A) (A) (A)
                 (A) (A) (A) (A) (A) (A) (A) (A) (A) (A) (A) (A)
                 (A) (A) (A) (A) (A) (A) (A) (A) (A) (A) (A) (A)
                 (A) (A) (A) (A) (A) (A) (A) (A) (A) (A) (A) (A)
                 (A) (A) (A) (A) (A) (A) (A) (A) (A) (A) (A) (A)
                 (A) (A) (A) (A) (A) (A) (A) (A) (A) (A) (A) (A)
                 (A) (A) (A) (A) (A) (A) (A) (A) (A) (A) (A) (A)
                 (A) (A) (A) (A) (A) (A) (A) (A) (A) (A) (A) (A)
                 (A) (A) (A) (A) (A) (A) (A) (A) (A) (A) (A) (A)
                 (A) (A) (A) (A) (A) (A) (A) (A) (A) (A) (A) (A)
                 (A) (A) (A) (A) (A) (A) (A) (A) (A) (A) (A) (A)
                 (A) (A) (A) (A) (A) (A) (A) (A) (A) (A) (A) (A)
                 (A) (A) (A) (A) (A) (A) (A) (A) (A) (A) (A) (A)
                 (A) (A) (A) (A) (A) (A) (A) (A) (A) (A) (A) (A)
 The electronic state is 1-A.
 Alpha  occ. eigenvalues --  -88.88109 -88.87487 -19.16854 -19.16723 -19.12536
 Alpha  occ. eigenvalues --  -19.12525 -19.11831 -19.11745 -14.38781 -14.38204
 Alpha  occ. eigenvalues --  -10.31203 -10.31053 -10.30757 -10.30453 -10.24501
 Alpha  occ. eigenvalues --  -10.24180 -10.24038 -10.23683 -10.23647 -10.23183
 Alpha  occ. eigenvalues --  -10.23094 -10.22768 -10.22443 -10.22405 -10.22200
 Alpha  occ. eigenvalues --  -10.21784 -10.21726 -10.21574 -10.21409 -10.21280
 Alpha  occ. eigenvalues --  -10.21227 -10.21109 -10.20758 -10.20622 -10.19048
 Alpha  occ. eigenvalues --  -10.18736  -7.96654  -7.96021  -5.92964  -5.92577
 Alpha  occ. eigenvalues --   -5.92339  -5.92224  -5.91930  -5.91578  -1.08544
 Alpha  occ. eigenvalues --   -1.08416  -1.08295  -1.08083  -1.06661  -1.06097
 Alpha  occ. eigenvalues --   -0.96326  -0.95676  -0.92422  -0.89867  -0.88423
 Alpha  occ. eigenvalues --   -0.86545  -0.84324  -0.80379  -0.78513  -0.77460
 Alpha  occ. eigenvalues --   -0.76161  -0.75247  -0.74963  -0.72980  -0.72502
 Alpha  occ. eigenvalues --   -0.71718  -0.70222  -0.68767  -0.67132  -0.65910
 Alpha  occ. eigenvalues --   -0.65442  -0.64864  -0.60785  -0.59785  -0.58625
 Alpha  occ. eigenvalues --   -0.57462  -0.56692  -0.56077  -0.55076  -0.54599
 Alpha  occ. eigenvalues --   -0.53735  -0.51693  -0.50207  -0.49885  -0.49706
 Alpha  occ. eigenvalues --   -0.49472  -0.48750  -0.48534  -0.48495  -0.48236
 Alpha  occ. eigenvalues --   -0.47922  -0.47181  -0.46653  -0.46303  -0.45883
 Alpha  occ. eigenvalues --   -0.45368  -0.45003  -0.44612  -0.44271  -0.43924
 Alpha  occ. eigenvalues --   -0.42646  -0.42506  -0.42197  -0.41868  -0.41723
 Alpha  occ. eigenvalues --   -0.41330  -0.41193  -0.41161  -0.40516  -0.39835
 Alpha  occ. eigenvalues --   -0.39452  -0.38798  -0.38559  -0.37702  -0.37265
 Alpha  occ. eigenvalues --   -0.36144  -0.35679  -0.34085  -0.33752  -0.33398
 Alpha  occ. eigenvalues --   -0.33157  -0.32028  -0.30968  -0.29983  -0.29841
 Alpha  occ. eigenvalues --   -0.29284  -0.28877  -0.28625  -0.28173  -0.27632
 Alpha  occ. eigenvalues --   -0.26190  -0.24627  -0.23355  -0.19073
 Alpha virt. eigenvalues --   -0.13316  -0.07278  -0.06510  -0.04848  -0.04021
 Alpha virt. eigenvalues --   -0.00867  -0.00314  -0.00292   0.00046   0.00506
 Alpha virt. eigenvalues --    0.00745   0.00931   0.01189   0.01468   0.01931
 Alpha virt. eigenvalues --    0.02009   0.02423   0.02617   0.02865   0.03134
 Alpha virt. eigenvalues --    0.03470   0.03735   0.03919   0.04190   0.04686
 Alpha virt. eigenvalues --    0.04839   0.04906   0.05085   0.05569   0.05747
 Alpha virt. eigenvalues --    0.05923   0.06202   0.06398   0.06877   0.07057
 Alpha virt. eigenvalues --    0.07256   0.07430   0.07758   0.07862   0.08042
 Alpha virt. eigenvalues --    0.08469   0.08719   0.09001   0.09103   0.09402
 Alpha virt. eigenvalues --    0.09591   0.09737   0.09926   0.10362   0.10635
 Alpha virt. eigenvalues --    0.10898   0.11211   0.11559   0.11779   0.11922
 Alpha virt. eigenvalues --    0.12110   0.12600   0.12797   0.13169   0.13436
 Alpha virt. eigenvalues --    0.13544   0.13887   0.13940   0.14304   0.14376
 Alpha virt. eigenvalues --    0.14514   0.14717   0.14925   0.15141   0.15275
 Alpha virt. eigenvalues --    0.15575   0.15682   0.15791   0.16081   0.16364
 Alpha virt. eigenvalues --    0.16638   0.16864   0.17230   0.17554   0.17729
 Alpha virt. eigenvalues --    0.17811   0.17962   0.18225   0.18311   0.18537
 Alpha virt. eigenvalues --    0.18787   0.19253   0.19299   0.19464   0.19567
 Alpha virt. eigenvalues --    0.19779   0.19903   0.20163   0.20366   0.20425
 Alpha virt. eigenvalues --    0.20612   0.20765   0.20910   0.21049   0.21243
 Alpha virt. eigenvalues --    0.21499   0.21738   0.22094   0.22329   0.22339
 Alpha virt. eigenvalues --    0.22718   0.22898   0.23080   0.23188   0.23305
 Alpha virt. eigenvalues --    0.23523   0.23643   0.23749   0.24027   0.24315
 Alpha virt. eigenvalues --    0.24499   0.24760   0.24947   0.25008   0.25373
 Alpha virt. eigenvalues --    0.25554   0.25766   0.25942   0.26035   0.26324
 Alpha virt. eigenvalues --    0.26491   0.26566   0.26816   0.27037   0.27099
 Alpha virt. eigenvalues --    0.27450   0.27664   0.27957   0.28063   0.28311
 Alpha virt. eigenvalues --    0.28492   0.28670   0.29096   0.29546   0.29582
 Alpha virt. eigenvalues --    0.29848   0.29919   0.30072   0.30256   0.30518
 Alpha virt. eigenvalues --    0.30745   0.30956   0.31031   0.31441   0.31846
 Alpha virt. eigenvalues --    0.32043   0.32288   0.32358   0.32489   0.32980
 Alpha virt. eigenvalues --    0.33364   0.33670   0.33749   0.34129   0.34287
 Alpha virt. eigenvalues --    0.34633   0.34997   0.35153   0.35755   0.36001
 Alpha virt. eigenvalues --    0.36247   0.36343   0.36732   0.37297   0.37374
 Alpha virt. eigenvalues --    0.37854   0.38016   0.38288   0.38542   0.39431
 Alpha virt. eigenvalues --    0.39945   0.40188   0.40835   0.41040   0.41403
 Alpha virt. eigenvalues --    0.42247   0.42575   0.42813   0.43012   0.43796
 Alpha virt. eigenvalues --    0.44233   0.44411   0.44819   0.44844   0.45116
 Alpha virt. eigenvalues --    0.45540   0.45740   0.45824   0.46421   0.46544
 Alpha virt. eigenvalues --    0.46565   0.47739   0.48066   0.48145   0.48894
 Alpha virt. eigenvalues --    0.49167   0.49352   0.49902   0.50135   0.50540
 Alpha virt. eigenvalues --    0.51073   0.51928   0.52354   0.53043   0.53656
 Alpha virt. eigenvalues --    0.53975   0.54563   0.54690   0.55349   0.55765
 Alpha virt. eigenvalues --    0.55790   0.56315   0.56418   0.56803   0.57069
 Alpha virt. eigenvalues --    0.57259   0.58122   0.58730   0.59291   0.59657
 Alpha virt. eigenvalues --    0.59939   0.60262   0.60383   0.60551   0.61243
 Alpha virt. eigenvalues --    0.61264   0.62014   0.62018   0.62362   0.62918
 Alpha virt. eigenvalues --    0.63437   0.63973   0.64184   0.64427   0.64611
 Alpha virt. eigenvalues --    0.65095   0.65481   0.65770   0.65819   0.66276
 Alpha virt. eigenvalues --    0.66675   0.67053   0.67580   0.67818   0.68099
 Alpha virt. eigenvalues --    0.68346   0.68641   0.69409   0.69674   0.69939
 Alpha virt. eigenvalues --    0.70492   0.71025   0.71381   0.71732   0.72027
 Alpha virt. eigenvalues --    0.72691   0.72760   0.73052   0.73174   0.73315
 Alpha virt. eigenvalues --    0.73907   0.74388   0.74634   0.74939   0.75085
 Alpha virt. eigenvalues --    0.75358   0.75875   0.76415   0.76571   0.77240
 Alpha virt. eigenvalues --    0.77525   0.77976   0.78370   0.78481   0.79174
 Alpha virt. eigenvalues --    0.79476   0.80080   0.80201   0.81491   0.82009
 Alpha virt. eigenvalues --    0.82329   0.83316   0.83572   0.84465   0.84512
 Alpha virt. eigenvalues --    0.86059   0.86535   0.87111   0.87598   0.88349
 Alpha virt. eigenvalues --    0.88937   0.89008   0.89231   0.90147   0.90484
 Alpha virt. eigenvalues --    0.91413   0.91639   0.92135   0.92210   0.92739
 Alpha virt. eigenvalues --    0.93577   0.93744   0.94132   0.94602   0.94978
 Alpha virt. eigenvalues --    0.95537   0.95698   0.96433   0.96652   0.97390
 Alpha virt. eigenvalues --    0.97529   0.97809   0.98851   0.99408   1.00033
 Alpha virt. eigenvalues --    1.00172   1.00340   1.01128   1.01739   1.02170
 Alpha virt. eigenvalues --    1.02411   1.03081   1.03351   1.03633   1.04467
 Alpha virt. eigenvalues --    1.04938   1.05047   1.05364   1.05727   1.06141
 Alpha virt. eigenvalues --    1.06313   1.07165   1.07398   1.07681   1.07843
 Alpha virt. eigenvalues --    1.08767   1.08985   1.09470   1.09875   1.10180
 Alpha virt. eigenvalues --    1.10522   1.11422   1.12201   1.12990   1.13971
 Alpha virt. eigenvalues --    1.14254   1.15359   1.15820   1.16836   1.17347
 Alpha virt. eigenvalues --    1.18210   1.18326   1.18910   1.19808   1.20317
 Alpha virt. eigenvalues --    1.21007   1.22113   1.22490   1.23834   1.24233
 Alpha virt. eigenvalues --    1.24922   1.25891   1.26051   1.26436   1.27033
 Alpha virt. eigenvalues --    1.27572   1.28255   1.28665   1.30114   1.30292
 Alpha virt. eigenvalues --    1.31650   1.32247   1.32826   1.33398   1.34101
 Alpha virt. eigenvalues --    1.34875   1.35491   1.36542   1.37474   1.38064
 Alpha virt. eigenvalues --    1.40190   1.40529   1.41083   1.41997   1.42242
 Alpha virt. eigenvalues --    1.42477   1.42793   1.43031   1.43368   1.44113
 Alpha virt. eigenvalues --    1.44382   1.44820   1.45007   1.45425   1.45582
 Alpha virt. eigenvalues --    1.46037   1.46637   1.47327   1.48013   1.48508
 Alpha virt. eigenvalues --    1.49081   1.50201   1.51154   1.51328   1.52361
 Alpha virt. eigenvalues --    1.52899   1.53740   1.53874   1.54069   1.54568
 Alpha virt. eigenvalues --    1.54755   1.55296   1.55540   1.55681   1.56460
 Alpha virt. eigenvalues --    1.57302   1.57780   1.58718   1.59348   1.60841
 Alpha virt. eigenvalues --    1.62009   1.62416   1.62682   1.63195   1.63616
 Alpha virt. eigenvalues --    1.64008   1.65068   1.65647   1.66435   1.66897
 Alpha virt. eigenvalues --    1.67421   1.67901   1.68341   1.68868   1.69231
 Alpha virt. eigenvalues --    1.69641   1.69941   1.70461   1.70862   1.71391
 Alpha virt. eigenvalues --    1.71443   1.73114   1.73897   1.74741   1.75101
 Alpha virt. eigenvalues --    1.75969   1.76625   1.76737   1.77998   1.78082
 Alpha virt. eigenvalues --    1.78668   1.79307   1.79466   1.80356   1.81472
 Alpha virt. eigenvalues --    1.82804   1.83294   1.83818   1.85115   1.85345
 Alpha virt. eigenvalues --    1.86141   1.86711   1.87162   1.88089   1.88411
 Alpha virt. eigenvalues --    1.88817   1.89711   1.89846   1.90482   1.91301
 Alpha virt. eigenvalues --    1.91634   1.91902   1.93139   1.93412   1.94427
 Alpha virt. eigenvalues --    1.95125   1.95741   1.96142   1.96939   1.97583
 Alpha virt. eigenvalues --    1.99080   1.99202   2.00698   2.01165   2.01697
 Alpha virt. eigenvalues --    2.01951   2.02440   2.02985   2.03710   2.04221
 Alpha virt. eigenvalues --    2.04492   2.05642   2.06117   2.06575   2.07913
 Alpha virt. eigenvalues --    2.08338   2.08467   2.09273   2.09987   2.11131
 Alpha virt. eigenvalues --    2.11906   2.12226   2.12372   2.13531   2.14666
 Alpha virt. eigenvalues --    2.15308   2.15651   2.16434   2.16835   2.18210
 Alpha virt. eigenvalues --    2.19502   2.19593   2.20298   2.20772   2.21271
 Alpha virt. eigenvalues --    2.22023   2.23718   2.25910   2.26179   2.26685
 Alpha virt. eigenvalues --    2.28206   2.31712   2.32415   2.32845   2.34521
 Alpha virt. eigenvalues --    2.35763   2.37546   2.39107   2.39657   2.41209
 Alpha virt. eigenvalues --    2.42728   2.43237   2.43792   2.44016   2.45628
 Alpha virt. eigenvalues --    2.46362   2.46650   2.47558   2.47880   2.48438
 Alpha virt. eigenvalues --    2.48937   2.50274   2.51484   2.51855   2.52273
 Alpha virt. eigenvalues --    2.52392   2.53011   2.53307   2.53754   2.54537
 Alpha virt. eigenvalues --    2.56159   2.56446   2.57945   2.58655   2.58993
 Alpha virt. eigenvalues --    2.59998   2.62441   2.63427   2.63499   2.64969
 Alpha virt. eigenvalues --    2.66305   2.67213   2.67742   2.68151   2.68271
 Alpha virt. eigenvalues --    2.68342   2.68828   2.70019   2.70166   2.70711
 Alpha virt. eigenvalues --    2.70890   2.71378   2.72666   2.73373   2.74244
 Alpha virt. eigenvalues --    2.75304   2.76261   2.76552   2.77609   2.78218
 Alpha virt. eigenvalues --    2.79957   2.81773   2.82586   2.83351   2.83818
 Alpha virt. eigenvalues --    2.83969   2.84456   2.84698   2.86029   2.86491
 Alpha virt. eigenvalues --    2.87060   2.87734   2.88390   2.88704   2.89697
 Alpha virt. eigenvalues --    2.90862   2.91145   2.92127   2.93004   2.93746
 Alpha virt. eigenvalues --    2.94541   2.95124   2.95773   2.96583   2.97389
 Alpha virt. eigenvalues --    2.99151   3.00287   3.01709   3.03522   3.04123
 Alpha virt. eigenvalues --    3.04682   3.05679   3.05759   3.08326   3.08748
 Alpha virt. eigenvalues --    3.10107   3.11418   3.12418   3.13891   3.14659
 Alpha virt. eigenvalues --    3.15143   3.16686   3.17565   3.19733   3.20310
 Alpha virt. eigenvalues --    3.21434   3.23010   3.23638   3.23900   3.24348
 Alpha virt. eigenvalues --    3.27177   3.28516   3.29817   3.31544   3.32110
 Alpha virt. eigenvalues --    3.33842   3.34222   3.34360   3.34686   3.35622
 Alpha virt. eigenvalues --    3.37173   3.38079   3.39540   3.41732   3.41937
 Alpha virt. eigenvalues --    3.42733   3.44492   3.45553   3.46031   3.48619
 Alpha virt. eigenvalues --    3.49650   3.50149   3.53420   3.55243   3.57567
 Alpha virt. eigenvalues --    3.59516   3.60137   3.61874   3.64907   3.65974
 Alpha virt. eigenvalues --    3.66530   3.69886   3.70373   3.72001   3.72742
 Alpha virt. eigenvalues --    3.75405   3.76160   3.76306   3.81500   3.82483
 Alpha virt. eigenvalues --    3.84455   3.85326   3.86410   3.90046   3.91424
 Alpha virt. eigenvalues --    3.92588   3.93113   3.94347   3.97016   4.01183
 Alpha virt. eigenvalues --    4.03505   4.04540   4.08058   4.10546   4.12683
 Alpha virt. eigenvalues --    4.14446   4.19384   4.23394   4.25247   4.26919
 Alpha virt. eigenvalues --    4.35215   4.38328   4.40204   4.51185   4.67124
 Alpha virt. eigenvalues --    4.83921   4.85669   4.87222   4.90344   5.01854
 Alpha virt. eigenvalues --    5.02773   5.03829   5.05375   5.05651   5.08405
 Alpha virt. eigenvalues --    5.11137   5.12953   5.24826   5.26715   5.28819
 Alpha virt. eigenvalues --    5.31275   5.42675   5.43969   5.75465   5.76783
 Alpha virt. eigenvalues --    5.79913   5.80512   5.81696   5.85230   8.02788
 Alpha virt. eigenvalues --    8.07534  17.29402  17.35843  17.49895  17.52883
 Alpha virt. eigenvalues --   17.58043  17.63962  23.48854  23.56683  23.72146
 Alpha virt. eigenvalues --   23.78883  23.81949  23.82567  23.84185  23.86453
 Alpha virt. eigenvalues --   23.86673  23.87989  23.89299  23.90068  23.91251
 Alpha virt. eigenvalues --   23.92833  23.94528  23.95339  23.96046  23.97736
 Alpha virt. eigenvalues --   24.00099  24.01898  24.02822  24.04686  24.11689
 Alpha virt. eigenvalues --   24.13337  24.13770  24.14572  35.55909  35.58887
 Alpha virt. eigenvalues --   49.96201  49.97613  50.01738  50.03812  50.05476
 Alpha virt. eigenvalues --   50.07202 189.20060 189.25606
          Condensed to atoms (all electrons):
 Mulliken charges:
               1
     1  C    0.362798
     2  C   -0.043756
     3  C    0.078862
     4  C    0.223906
     5  C    0.229636
     6  C   -0.368245
     7  C    0.133602
     8  C    0.040580
     9  C    0.360973
    10  C   -0.247962
    11  C    0.333066
    12  C    0.185026
    13  C   -0.475020
    14  C   -0.626416
    15  H    0.160643
    16  H    0.163604
    17  H    0.162312
    18  N   -0.138489
    19  N   -0.137064
    20  O   -0.274958
    21  O   -0.271438
    22  O   -0.273626
    23  O   -0.184408
    24  C   -0.200850
    25  H    0.174678
    26  H    0.175882
    27  H    0.184069
    28  C   -0.196695
    29  H    0.173475
    30  H    0.175463
    31  H    0.182872
    32  C   -0.182099
    33  C   -0.085103
    34  S   -0.447447
    35  C   -0.241195
    36  H    0.129226
    37  C    0.400106
    38  O   -0.113570
    39  C    0.846698
    40  C   -0.239875
    41  C    0.057625
    42  S   -0.248285
    43  H    0.165772
    44  H    0.147398
    45  H    0.148979
    46  C   -0.491392
    47  O   -0.133190
    48  C   -0.278593
    49  H    0.131209
    50  C   -0.243316
    51  H    0.159639
    52  H    0.144755
    53  H    0.166111
    54  H    0.144027
 Sum of Mulliken charges =  -0.00000
 Mulliken charges with hydrogens summed into heavy atoms:
               1
     1  C    0.362798
     2  C   -0.043756
     3  C    0.078862
     4  C    0.223906
     5  C    0.229636
     6  C   -0.205933
     7  C    0.133602
     8  C    0.040580
     9  C    0.360973
    10  C   -0.247962
    11  C    0.333066
    12  C    0.185026
    13  C   -0.311416
    14  C   -0.465772
    18  N   -0.138489
    19  N   -0.137064
    20  O   -0.274958
    21  O   -0.271438
    22  O   -0.273626
    23  O   -0.184408
    24  C    0.333779
    28  C    0.335115
    32  C   -0.182099
    33  C    0.044122
    34  S   -0.447447
    35  C   -0.241195
    37  C    0.400106
    38  O   -0.113570
    39  C    0.846698
    40  C    0.222274
    41  C    0.057625
    42  S   -0.248285
    46  C   -0.360183
    47  O   -0.133190
    48  C   -0.118953
    50  C    0.211576
 Electronic spatial extent (au):  <R**2>=          22274.3570
 Charge=             -0.0000 electrons
 Dipole moment (field-independent basis, Debye):
    X=              3.5229    Y=             -0.3401    Z=              0.0376  Tot=              3.5395
 Quadrupole moment (field-independent basis, Debye-Ang):
   XX=           -216.7081   YY=           -222.6227   ZZ=           -211.3274
   XY=             10.4204   XZ=              6.5327   YZ=             17.1462
 Traceless Quadrupole moment (field-independent basis, Debye-Ang):
   XX=              0.1780   YY=             -5.7366   ZZ=              5.5587
   XY=             10.4204   XZ=              6.5327   YZ=             17.1462
 Octapole moment (field-independent basis, Debye-Ang**2):
  XXX=            334.1223  YYY=            -34.8345  ZZZ=              3.2541  XYY=             78.0323
  XXY=             14.0688  XXZ=             52.0187  XZZ=             38.0217  YZZ=             -5.6169
  YYZ=             -8.1889  XYZ=             45.7026
 Hexadecapole moment (field-independent basis, Debye-Ang**3):
 XXXX=         -21644.9376 YYYY=          -6890.2239 ZZZZ=          -1475.1648 XXXY=            191.8676
 XXXZ=            430.0793 YYYX=            420.2301 YYYZ=            212.4861 ZZZX=             -5.5296
 ZZZY=             91.6685 XXYY=          -4649.4601 XXZZ=          -3801.7899 YYZZ=          -1251.7990
 XXYZ=            266.7361 YYXZ=           -109.5290 ZZXY=             81.5957
 N-N= 4.098579671574D+03 E-N=-1.373727010155D+04  KE= 2.351869496608D+03
 Calling FoFJK, ICntrl=      2127 FMM=F ISym2X=0 I1Cent= 0 IOpClX= 0 NMat=1 NMatS=1 NMatT=0.
 ***** Axes restored to original set *****
 -------------------------------------------------------------------
 Center     Atomic                   Forces (Hartrees/Bohr)
 Number     Number              X              Y              Z
 -------------------------------------------------------------------
      1        6           0.004218212   -0.005688970    0.000452693
      2        6          -0.000924063    0.000917002   -0.000713672
      3        6           0.001342965   -0.000876723   -0.000262760
      4        6          -0.000684819    0.001620719    0.000607782
      5        6          -0.005897500   -0.002268500   -0.000191694
      6        6           0.002138565    0.002972984   -0.009595970
      7        6          -0.000209369   -0.000638093    0.002068813
      8        6           0.001289661   -0.005321111    0.007395316
      9        6          -0.008678236   -0.004641985   -0.007825276
     10        6           0.005429096    0.007317288   -0.000916114
     11        6          -0.003494093    0.006047613    0.000468683
     12        6          -0.001049778   -0.000641360    0.000197078
     13        6           0.000708621   -0.000018942   -0.000370780
     14        6           0.001756464   -0.000620900   -0.000082245
     15        1           0.000600217    0.000698563    0.000018403
     16        1           0.000620833   -0.001067487   -0.000310722
     17        1           0.001347441    0.001748165    0.002435500
     18        7          -0.001385973   -0.001646099   -0.001873624
     19        7           0.000802779    0.001531979   -0.000087407
     20        8          -0.006131628    0.006447103    0.000548901
     21        8           0.007462569    0.002292025    0.000181815
     22        8           0.005998751   -0.006149090   -0.000593693
     23        8          -0.015155939   -0.002246430   -0.004792323
     24        6           0.000969100    0.002582127   -0.000845410
     25        1          -0.000563956   -0.000060625   -0.000414180
     26        1          -0.001174613   -0.000669183    0.001257913
     27        1           0.000988807   -0.000001272    0.000098978
     28        6          -0.000500583   -0.002064415   -0.000667729
     29        1          -0.000694025    0.000380647    0.001001396
     30        1          -0.000461859    0.000417125   -0.000515706
     31        1           0.000954887   -0.000376201   -0.000019195
     32        6           0.008862970    0.016306520    0.020514586
     33        6          -0.005375335   -0.006125318    0.000740143
     34       16           0.008219375   -0.006464503   -0.006575719
     35        6           0.000714393    0.003442159    0.004142135
     36        1          -0.001131755   -0.001295712   -0.001292049
     37        6          -0.003948295   -0.004921402   -0.001825027
     38        8          -0.000105482    0.000359405   -0.004208601
     39        6           0.001946245    0.000002860    0.003087134
     40        6           0.000848319   -0.000956126   -0.000635997
     41        6           0.000145526   -0.000673970   -0.002208352
     42       16          -0.000029356    0.000307008    0.001836204
     43        1          -0.001042212    0.000068328    0.000318395
     44        1           0.000613972    0.000926593    0.000373491
     45        1           0.001021445    0.000095467    0.000388847
     46        6          -0.000620589   -0.000849835   -0.001332394
     47        8           0.001358961   -0.000463992    0.000232816
     48        6           0.001186058    0.000635466    0.000458341
     49        1           0.000053042   -0.000253287   -0.000500195
     50        6           0.000983047    0.001028915    0.001595602
     51        1          -0.002060976   -0.000309488   -0.000170391
     52        1          -0.000739612   -0.001004898   -0.000252344
     53        1           0.000405711   -0.000057153   -0.000462513
     54        1          -0.000927988    0.000227007   -0.000878884
 -------------------------------------------------------------------
 Cartesian Forces:  Max     0.020514586 RMS     0.003715402

 GradGradGradGradGradGradGradGradGradGradGradGradGradGradGradGradGradGrad
 Berny optimization.
 FormGI is forming the generalized inverse of G from B-inverse, IUseBI=4.
 Internal  Forces:  Max     0.030815484 RMS     0.004115163
 Search for a local minimum.
 Step number   1 out of a maximum of  307
 All quantities printed in internal units (Hartrees-Bohrs-Radians)
 Mixed Optimization -- RFO/linear search
 Second derivative matrix not updated -- first step.
 ITU=  0
     Eigenvalues ---    0.01155   0.01172   0.01239   0.01297   0.01368
     Eigenvalues ---    0.01389   0.01397   0.01410   0.01452   0.01470
     Eigenvalues ---    0.01512   0.01544   0.01567   0.01592   0.01617
     Eigenvalues ---    0.01652   0.01679   0.01694   0.01710   0.01719
     Eigenvalues ---    0.01721   0.01763   0.01799   0.01845   0.01976
     Eigenvalues ---    0.02039   0.02047   0.02077   0.02090   0.02097
     Eigenvalues ---    0.02133   0.02149   0.02162   0.02181   0.02197
     Eigenvalues ---    0.02250   0.04601   0.04620   0.07665   0.07667
     Eigenvalues ---    0.10064   0.10068   0.10630   0.10634   0.15983
     Eigenvalues ---    0.15999   0.15999   0.16000   0.16000   0.16000
     Eigenvalues ---    0.16000   0.16000   0.16000   0.16000   0.16000
     Eigenvalues ---    0.16000   0.16000   0.16000   0.16000   0.16000
     Eigenvalues ---    0.16000   0.16000   0.22530   0.22583   0.23517
     Eigenvalues ---    0.23582   0.24513   0.24747   0.24867   0.24906
     Eigenvalues ---    0.24952   0.24985   0.24986   0.24988   0.24990
     Eigenvalues ---    0.24994   0.24996   0.24997   0.24998   0.24998
     Eigenvalues ---    0.25000   0.25000   0.25000   0.25000   0.25000
     Eigenvalues ---    0.25000   0.25000   0.25000   0.25000   0.25000
     Eigenvalues ---    0.28854   0.28923   0.30121   0.32118   0.32582
     Eigenvalues ---    0.32774   0.33104   0.33787   0.34011   0.34017
     Eigenvalues ---    0.34036   0.34118   0.34353   0.34466   0.34577
     Eigenvalues ---    0.34629   0.34693   0.34794   0.34897   0.35198
     Eigenvalues ---    0.35218   0.35468   0.35553   0.35582   0.35722
     Eigenvalues ---    0.35897   0.36078   0.36083   0.36181   0.36393
     Eigenvalues ---    0.36662   0.39348   0.40188   0.40194   0.40651
     Eigenvalues ---    0.40721   0.41524   0.41792   0.42031   0.42300
     Eigenvalues ---    0.42755   0.43455   0.43859   0.44092   0.44594
     Eigenvalues ---    0.44623   0.45014   0.45405   0.46251   0.47305
     Eigenvalues ---    0.47590   0.49309   0.49597   0.53076   0.53126
     Eigenvalues ---    0.93281   0.93432   0.93989   0.945851000.00000
     Eigenvalues --- 1000.000001000.000001000.000001000.000001000.00000
     Eigenvalues --- 1000.000001000.000001000.000001000.000001000.00000
     Eigenvalues --- 1000.000001000.000001000.000001000.000001000.00000
     Eigenvalues --- 1000.000001000.000001000.000001000.000001000.00000
     Eigenvalues --- 1000.000001000.000001000.000001000.000001000.00000
     Eigenvalues --- 1000.000001000.000001000.000001000.000001000.00000
     Eigenvalues --- 1000.000001000.000001000.000001000.000001000.00000
     Eigenvalues --- 1000.000001000.000001000.000001000.000001000.00000
     Eigenvalues --- 1000.000001000.000001000.000001000.000001000.00000
     Eigenvalues --- 1000.000001000.000001000.000001000.000001000.00000
     Eigenvalues --- 1000.000001000.000001000.000001000.000001000.00000
     Eigenvalues --- 1000.000001000.000001000.000001000.000001000.00000
     Eigenvalues --- 1000.000001000.000001000.000001000.000001000.00000
     Eigenvalues --- 1000.000001000.000001000.000001000.000001000.00000
     Eigenvalues --- 1000.000001000.000001000.000001000.000001000.00000
     Eigenvalues --- 1000.000001000.000001000.000001000.000001000.00000
     Eigenvalues --- 1000.000001000.000001000.000001000.000001000.00000
     Eigenvalues --- 1000.000001000.000001000.000001000.000001000.00000
     Eigenvalues --- 1000.000001000.000001000.000001000.000001000.00000
     Eigenvalues --- 1000.000001000.000001000.000001000.000001000.00000
     Eigenvalues --- 1000.000001000.000001000.000001000.000001000.00000
     Eigenvalues --- 1000.000001000.000001000.000001000.000001000.00000
     Eigenvalues --- 1000.000001000.000001000.000001000.000001000.00000
     Eigenvalues --- 1000.000001000.000001000.000001000.000001000.00000
     Eigenvalues --- 1000.000001000.000001000.000001000.000001000.00000
     Eigenvalues --- 1000.000001000.000001000.000001000.000001000.00000
     Eigenvalues --- 1000.000001000.000001000.000001000.000001000.00000
     Eigenvalues --- 1000.000001000.000001000.000001000.000001000.00000
     Eigenvalues --- 1000.000001000.000001000.000001000.000001000.00000
     Eigenvalues --- 1000.000001000.00000
 RFO step:  Lambda=-2.48844162D-02 EMin= 1.15532237D-02
 Linear search not attempted -- first point.
 Iteration  1 RMS(Cart)=  0.38987799 RMS(Int)=  0.01026037
 Iteration  2 RMS(Cart)=  0.05818950 RMS(Int)=  0.00125069
 Iteration  3 RMS(Cart)=  0.00102792 RMS(Int)=  0.00123663
 Iteration  4 RMS(Cart)=  0.00000611 RMS(Int)=  0.00123663
 Iteration  5 RMS(Cart)=  0.00000004 RMS(Int)=  0.00123663
 Iteration  1 RMS(Cart)=  0.00024475 RMS(Int)=  0.00005981
 Iteration  2 RMS(Cart)=  0.00012267 RMS(Int)=  0.00006661
 Iteration  3 RMS(Cart)=  0.00006297 RMS(Int)=  0.00007530
 Iteration  4 RMS(Cart)=  0.00003290 RMS(Int)=  0.00008142
 Iteration  5 RMS(Cart)=  0.00001741 RMS(Int)=  0.00008530
 Iteration  6 RMS(Cart)=  0.00000929 RMS(Int)=  0.00008769
 Iteration  7 RMS(Cart)=  0.00000499 RMS(Int)=  0.00008915
 Iteration  8 RMS(Cart)=  0.00000269 RMS(Int)=  0.00009005
 Iteration  9 RMS(Cart)=  0.00000146 RMS(Int)=  0.00009059
 Iteration 10 RMS(Cart)=  0.00000080 RMS(Int)=  0.00009092
 Variable       Old X    -DE/DX   Delta X   Delta X   Delta X     New X
                                 (Linear)    (Quad)   (Total)
    R1        2.80935  -0.00036   0.00000  -0.00126  -0.00126   2.80809
    R2        2.64584  -0.00192   0.00000  -0.00414  -0.00414   2.64170
    R3        2.31147  -0.00890   0.00000  -0.00923  -0.00923   2.30224
    R4        2.67311  -0.00472   0.00000  -0.01104  -0.01117   2.66194
    R5        2.59267  -0.00326   0.00000  -0.00738  -0.00753   2.58514
    R6        2.66894  -0.00065   0.00000  -0.00116  -0.00116   2.66779
    R7        2.69164   0.00022   0.00000   0.00211   0.00214   2.69378
    R8        2.81049  -0.00031   0.00000  -0.00059  -0.00059   2.80991
    R9        2.62173  -0.00354   0.00000  -0.00772  -0.00773   2.61400
   R10        2.65570  -0.00182   0.00000  -0.00381  -0.00381   2.65189
   R11        2.30889  -0.00781   0.00000  -0.00804  -0.00804   2.30085
   R12        2.70248  -0.00479   0.00000  -0.01189  -0.01191   2.69057
   R13        2.04786  -0.00063   0.00000  -0.00164  -0.00164   2.04621
   R14        2.70495   0.00387   0.00000   0.01168   0.01195   2.71690
   R15        2.68322   0.00066   0.00000   0.00292   0.00290   2.68612
   R16        2.68655   0.00720   0.00000   0.01681   0.01695   2.70350
   R17        2.81233   0.00411   0.00000   0.01189   0.01203   2.82436
   R18        2.76359   0.00923   0.00000   0.02359   0.02359   2.78718
   R19        2.66221  -0.00158   0.00000  -0.00411  -0.00409   2.65812
   R20        2.31391  -0.01528   0.00000  -0.01593  -0.01593   2.29797
   R21        2.79415  -0.00223   0.00000  -0.00650  -0.00666   2.78749
   R22        2.63842  -0.00486   0.00000  -0.01102  -0.01114   2.62728
   R23        2.31456  -0.00859   0.00000  -0.00897  -0.00897   2.30559
   R24        2.62448  -0.00210   0.00000  -0.00428  -0.00428   2.62020
   R25        2.64561  -0.00301   0.00000  -0.00703  -0.00705   2.63856
   R26        2.04921  -0.00122   0.00000  -0.00320  -0.00320   2.04601
   R27        2.04741  -0.00079   0.00000  -0.00208  -0.00208   2.04533
   R28        2.77259   0.00183   0.00000   0.00475   0.00475   2.77735
   R29        2.77252   0.00176   0.00000   0.00457   0.00457   2.77709
   R30        2.06176  -0.00065   0.00000  -0.00175  -0.00175   2.06001
   R31        2.06551  -0.00184   0.00000  -0.00498  -0.00498   2.06054
   R32        2.05322  -0.00085   0.00000  -0.00225  -0.00225   2.05098
   R33        2.06368  -0.00126   0.00000  -0.00340  -0.00340   2.06027
   R34        2.06281  -0.00079   0.00000  -0.00213  -0.00213   2.06068
   R35        2.05355  -0.00091   0.00000  -0.00241  -0.00241   2.05114
   R36        2.61038  -0.00045   0.00000  -0.00041   0.00019   2.61057
   R37        3.33256  -0.00404   0.00000  -0.01186  -0.01122   3.32134
   R38        2.66168  -0.00048   0.00000  -0.00124  -0.00131   2.66038
   R39        2.03799   0.00201   0.00000   0.00519   0.00519   2.04318
   R40        3.30347  -0.00064   0.00000  -0.00233  -0.00277   3.30071
   R41        2.64366  -0.00418   0.00000  -0.00932  -0.01010   2.63356
   R42        2.56883   0.00301   0.00000   0.00542   0.00542   2.57425
   R43        2.71298   0.00146   0.00000   0.00343   0.00343   2.71641
   R44        2.69189  -0.00065   0.00000  -0.00146  -0.00146   2.69043
   R45        2.63344  -0.00244   0.00000  -0.00505  -0.00505   2.62839
   R46        3.32830  -0.00059   0.00000  -0.00172  -0.00173   3.32658
   R47        2.06010  -0.00108   0.00000  -0.00290  -0.00290   2.05719
   R48        2.07311  -0.00106   0.00000  -0.00290  -0.00290   2.07021
   R49        2.07131  -0.00078   0.00000  -0.00212  -0.00212   2.06919
   R50        2.69046  -0.00107   0.00000  -0.00258  -0.00258   2.68789
   R51        2.56837  -0.00079   0.00000  -0.00142  -0.00142   2.56695
   R52        3.26274  -0.00145   0.00000  -0.00395  -0.00395   3.25880
   R53        2.58657  -0.00171   0.00000  -0.00320  -0.00320   2.58336
   R54        2.04243  -0.00052   0.00000  -0.00136  -0.00136   2.04107
   R55        2.68883   0.00006   0.00000   0.00013   0.00013   2.68896
   R56        2.04518  -0.00208   0.00000  -0.00544  -0.00544   2.03975
   R57        2.07270  -0.00116   0.00000  -0.00318  -0.00318   2.06952
   R58        2.05843  -0.00056   0.00000  -0.00151  -0.00151   2.05692
   R59        2.07301  -0.00121   0.00000  -0.00333  -0.00333   2.06968
    A1        2.03797   0.00060   0.00000   0.00160   0.00158   2.03955
    A2        2.14521  -0.00061   0.00000  -0.00194  -0.00193   2.14328
    A3        2.10001   0.00001   0.00000   0.00034   0.00035   2.10035
    A4        2.10395   0.00127   0.00000   0.00563   0.00566   2.10961
    A5        2.08282  -0.00030   0.00000   0.00046   0.00053   2.08335
    A6        2.09624  -0.00096   0.00000  -0.00596  -0.00608   2.09016
    A7        2.10093  -0.00142   0.00000  -0.00669  -0.00675   2.09418
    A8        2.07104   0.00035   0.00000   0.00085   0.00082   2.07187
    A9        2.11118   0.00107   0.00000   0.00598   0.00593   2.11711
   A10        2.10296   0.00068   0.00000   0.00324   0.00321   2.10617
   A11        2.09911   0.00032   0.00000   0.00083   0.00079   2.09990
   A12        2.08110  -0.00100   0.00000  -0.00402  -0.00400   2.07710
   A13        2.03739   0.00028   0.00000   0.00155   0.00152   2.03891
   A14        2.12972   0.00012   0.00000   0.00016   0.00017   2.12989
   A15        2.11607  -0.00039   0.00000  -0.00170  -0.00169   2.11437
   A16        2.15098   0.00478   0.00000   0.01694   0.01623   2.16721
   A17        2.04399   0.00008   0.00000   0.00597   0.00529   2.04928
   A18        2.08722  -0.00472   0.00000  -0.02006  -0.02071   2.06651
   A19        2.11101   0.00197   0.00000   0.00741   0.00752   2.11852
   A20        2.04385  -0.00307   0.00000  -0.01210  -0.01240   2.03144
   A21        2.12832   0.00111   0.00000   0.00480   0.00466   2.13298
   A22        2.08678  -0.00502   0.00000  -0.01414  -0.01508   2.07171
   A23        2.04738  -0.00633   0.00000  -0.01926  -0.02038   2.02701
   A24        2.14662   0.01157   0.00000   0.03936   0.03772   2.18434
   A25        2.04892  -0.00100   0.00000  -0.00266  -0.00240   2.04652
   A26        2.00754  -0.02762   0.00000  -0.10103  -0.10116   1.90638
   A27        2.22643   0.02861   0.00000   0.10360   0.10346   2.32988
   A28        2.06022   0.00384   0.00000   0.01535   0.01528   2.07550
   A29        2.17370   0.00193   0.00000   0.00653   0.00626   2.17995
   A30        2.04919  -0.00575   0.00000  -0.02142  -0.02174   2.02745
   A31        2.01621  -0.00030   0.00000  -0.00191  -0.00235   2.01385
   A32        2.14188  -0.00035   0.00000  -0.00069  -0.00070   2.14118
   A33        2.12500   0.00067   0.00000   0.00304   0.00303   2.12803
   A34        2.10943   0.00162   0.00000   0.00712   0.00691   2.11634
   A35        2.11468   0.00116   0.00000   0.00547   0.00546   2.12013
   A36        2.05896  -0.00276   0.00000  -0.01230  -0.01226   2.04671
   A37        2.11176   0.00068   0.00000   0.00247   0.00240   2.11416
   A38        2.05670   0.00002   0.00000   0.00073   0.00075   2.05745
   A39        2.11471  -0.00070   0.00000  -0.00315  -0.00314   2.11158
   A40        2.08567  -0.00013   0.00000  -0.00211  -0.00222   2.08345
   A41        2.07549   0.00054   0.00000   0.00371   0.00367   2.07916
   A42        2.12199  -0.00041   0.00000  -0.00145  -0.00149   2.12050
   A43        2.20043   0.00030   0.00000  -0.00013  -0.00024   2.20019
[...]
 Alpha  occ. eigenvalues --   -0.57473  -0.56687  -0.56103  -0.55133  -0.54631
 Alpha  occ. eigenvalues --   -0.53781  -0.51740  -0.50271  -0.49921  -0.49726
 Alpha  occ. eigenvalues --   -0.49446  -0.48704  -0.48578  -0.48550  -0.48292
 Alpha  occ. eigenvalues --   -0.47971  -0.47179  -0.46630  -0.46381  -0.45792
 Alpha  occ. eigenvalues --   -0.45386  -0.44974  -0.44722  -0.44376  -0.43930
 Alpha  occ. eigenvalues --   -0.42790  -0.42445  -0.42272  -0.41997  -0.41809
 Alpha  occ. eigenvalues --   -0.41408  -0.41328  -0.41216  -0.40595  -0.39930
 Alpha  occ. eigenvalues --   -0.39513  -0.38936  -0.38696  -0.37748  -0.37280
 Alpha  occ. eigenvalues --   -0.36215  -0.35769  -0.34094  -0.33720  -0.33476
 Alpha  occ. eigenvalues --   -0.33413  -0.32215  -0.31025  -0.30108  -0.29834
 Alpha  occ. eigenvalues --   -0.29307  -0.28920  -0.28692  -0.28098  -0.27484
 Alpha  occ. eigenvalues --   -0.26221  -0.24654  -0.24137  -0.19117
 Alpha virt. eigenvalues --   -0.13164  -0.07099  -0.06312  -0.04787  -0.03975
 Alpha virt. eigenvalues --   -0.00888  -0.00388  -0.00294   0.00024   0.00534
 Alpha virt. eigenvalues --    0.00668   0.01052   0.01268   0.01427   0.01877
 Alpha virt. eigenvalues --    0.02050   0.02223   0.02442   0.02904   0.03046
 Alpha virt. eigenvalues --    0.03531   0.03730   0.03858   0.04062   0.04653
 Alpha virt. eigenvalues --    0.04898   0.04928   0.05041   0.05588   0.05713
 Alpha virt. eigenvalues --    0.05854   0.06211   0.06363   0.06827   0.07029
 Alpha virt. eigenvalues --    0.07187   0.07364   0.07645   0.07896   0.08131
 Alpha virt. eigenvalues --    0.08577   0.08682   0.09015   0.09214   0.09306
 Alpha virt. eigenvalues --    0.09422   0.09573   0.09895   0.10252   0.10797
 Alpha virt. eigenvalues --    0.10956   0.11244   0.11508   0.11699   0.11796
 Alpha virt. eigenvalues --    0.12231   0.12660   0.12735   0.13175   0.13363
 Alpha virt. eigenvalues --    0.13561   0.13678   0.13994   0.14124   0.14438
 Alpha virt. eigenvalues --    0.14489   0.14778   0.14869   0.15129   0.15256
 Alpha virt. eigenvalues --    0.15514   0.15675   0.15915   0.16170   0.16288
 Alpha virt. eigenvalues --    0.16590   0.16793   0.16987   0.17329   0.17655
 Alpha virt. eigenvalues --    0.17802   0.18138   0.18252   0.18368   0.18781
 Alpha virt. eigenvalues --    0.18888   0.19047   0.19070   0.19513   0.19656
 Alpha virt. eigenvalues --    0.19783   0.20074   0.20228   0.20274   0.20526
 Alpha virt. eigenvalues --    0.20604   0.20779   0.20938   0.21119   0.21443
 Alpha virt. eigenvalues --    0.21560   0.21774   0.21901   0.22151   0.22432
 Alpha virt. eigenvalues --    0.22665   0.22812   0.22907   0.23146   0.23284
 Alpha virt. eigenvalues --    0.23393   0.23517   0.23801   0.23921   0.24289
 Alpha virt. eigenvalues --    0.24580   0.24895   0.24975   0.25122   0.25339
 Alpha virt. eigenvalues --    0.25688   0.25852   0.25896   0.26125   0.26228
 Alpha virt. eigenvalues --    0.26335   0.26747   0.26879   0.27064   0.27086
 Alpha virt. eigenvalues --    0.27404   0.27643   0.27989   0.28194   0.28331
 Alpha virt. eigenvalues --    0.28517   0.28684   0.29020   0.29202   0.29489
 Alpha virt. eigenvalues --    0.29704   0.29879   0.30116   0.30260   0.30399
 Alpha virt. eigenvalues --    0.30828   0.31046   0.31143   0.31386   0.31502
 Alpha virt. eigenvalues --    0.31949   0.32071   0.32474   0.32714   0.32879
 Alpha virt. eigenvalues --    0.33321   0.33372   0.33778   0.34067   0.34286
 Alpha virt. eigenvalues --    0.34734   0.34966   0.35197   0.35769   0.35863
 Alpha virt. eigenvalues --    0.36101   0.36339   0.36950   0.37417   0.37896
 Alpha virt. eigenvalues --    0.37960   0.38280   0.38529   0.38977   0.39262
 Alpha virt. eigenvalues --    0.39647   0.39895   0.40567   0.40790   0.41296
 Alpha virt. eigenvalues --    0.41875   0.41986   0.42507   0.43041   0.43541
 Alpha virt. eigenvalues --    0.44036   0.44204   0.44796   0.44900   0.45225
 Alpha virt. eigenvalues --    0.45671   0.45819   0.46338   0.46419   0.46747
 Alpha virt. eigenvalues --    0.46804   0.47253   0.47765   0.48411   0.49070
 Alpha virt. eigenvalues --    0.49337   0.49402   0.50027   0.50322   0.50756
 Alpha virt. eigenvalues --    0.51266   0.52067   0.52687   0.53149   0.53912
 Alpha virt. eigenvalues --    0.54172   0.54425   0.54592   0.55572   0.55646
 Alpha virt. eigenvalues --    0.55932   0.56233   0.56681   0.56796   0.57061
 Alpha virt. eigenvalues --    0.57403   0.57910   0.58350   0.58895   0.59223
 Alpha virt. eigenvalues --    0.59741   0.60569   0.60732   0.60964   0.61667
 Alpha virt. eigenvalues --    0.61805   0.62114   0.62239   0.62393   0.62745
 Alpha virt. eigenvalues --    0.63442   0.63810   0.64325   0.64588   0.64830
 Alpha virt. eigenvalues --    0.65219   0.65805   0.65911   0.66149   0.66324
 Alpha virt. eigenvalues --    0.66816   0.67142   0.67563   0.67926   0.67959
 Alpha virt. eigenvalues --    0.68580   0.69149   0.69214   0.69466   0.70295
 Alpha virt. eigenvalues --    0.70585   0.71177   0.71210   0.71755   0.72300
 Alpha virt. eigenvalues --    0.72516   0.72782   0.73003   0.73167   0.73521
 Alpha virt. eigenvalues --    0.74095   0.74388   0.74583   0.74950   0.75172
 Alpha virt. eigenvalues --    0.75745   0.75943   0.76243   0.76526   0.77004
 Alpha virt. eigenvalues --    0.77377   0.77730   0.78054   0.78356   0.79160
 Alpha virt. eigenvalues --    0.79519   0.80012   0.80186   0.80610   0.81635
 Alpha virt. eigenvalues --    0.82002   0.82992   0.83059   0.83967   0.84578
 Alpha virt. eigenvalues --    0.85923   0.86587   0.87223   0.87742   0.87968
 Alpha virt. eigenvalues --    0.88258   0.88624   0.89355   0.90454   0.90793
 Alpha virt. eigenvalues --    0.90951   0.91392   0.91826   0.92243   0.92803
 Alpha virt. eigenvalues --    0.93183   0.93796   0.94032   0.94502   0.94805
 Alpha virt. eigenvalues --    0.95702   0.96154   0.96353   0.96813   0.97092
 Alpha virt. eigenvalues --    0.97574   0.97976   0.98404   0.99014   1.00028
 Alpha virt. eigenvalues --    1.00647   1.00806   1.00960   1.01656   1.01937
 Alpha virt. eigenvalues --    1.01995   1.02345   1.03174   1.03896   1.04146
 Alpha virt. eigenvalues --    1.04590   1.05060   1.05198   1.05901   1.06161
 Alpha virt. eigenvalues --    1.06451   1.06941   1.07182   1.07928   1.08186
 Alpha virt. eigenvalues --    1.08751   1.09073   1.09437   1.09723   1.10421
 Alpha virt. eigenvalues --    1.10934   1.11428   1.13001   1.13079   1.13568
 Alpha virt. eigenvalues --    1.14626   1.15636   1.15858   1.16587   1.16890
 Alpha virt. eigenvalues --    1.17952   1.18323   1.18866   1.20101   1.20526
 Alpha virt. eigenvalues --    1.21672   1.22201   1.22472   1.23763   1.24704
 Alpha virt. eigenvalues --    1.25248   1.25365   1.25831   1.26759   1.26867
 Alpha virt. eigenvalues --    1.27584   1.27841   1.28126   1.29793   1.30021
 Alpha virt. eigenvalues --    1.31313   1.32676   1.33029   1.33703   1.34244
 Alpha virt. eigenvalues --    1.35605   1.35993   1.36430   1.37076   1.39179
 Alpha virt. eigenvalues --    1.39999   1.40397   1.40763   1.41609   1.42356
 Alpha virt. eigenvalues --    1.42818   1.43040   1.43413   1.43665   1.43933
 Alpha virt. eigenvalues --    1.44501   1.44934   1.45262   1.45489   1.45766
 Alpha virt. eigenvalues --    1.46177   1.46284   1.47107   1.47701   1.48547
 Alpha virt. eigenvalues --    1.50090   1.50558   1.51174   1.51665   1.51932
 Alpha virt. eigenvalues --    1.52642   1.53269   1.53566   1.54156   1.54467
 Alpha virt. eigenvalues --    1.54549   1.54974   1.55431   1.55909   1.56922
 Alpha virt. eigenvalues --    1.57041   1.58625   1.59188   1.60198   1.60818
 Alpha virt. eigenvalues --    1.61939   1.62331   1.62704   1.63494   1.63921
 Alpha virt. eigenvalues --    1.64465   1.64741   1.64896   1.66259   1.66644
 Alpha virt. eigenvalues --    1.67233   1.67982   1.68569   1.69082   1.69517
 Alpha virt. eigenvalues --    1.69835   1.70306   1.70666   1.70957   1.71377
 Alpha virt. eigenvalues --    1.71729   1.73427   1.73983   1.74475   1.74801
 Alpha virt. eigenvalues --    1.75611   1.76524   1.76984   1.77360   1.78288
 Alpha virt. eigenvalues --    1.78828   1.79522   1.80098   1.80363   1.81537
 Alpha virt. eigenvalues --    1.81979   1.83330   1.84168   1.85690   1.85819
 Alpha virt. eigenvalues --    1.86225   1.86629   1.86939   1.87697   1.87887
 Alpha virt. eigenvalues --    1.88609   1.89842   1.90163   1.90462   1.91038
 Alpha virt. eigenvalues --    1.91425   1.91728   1.92118   1.93713   1.94722
 Alpha virt. eigenvalues --    1.95263   1.96063   1.96411   1.96753   1.98340
 Alpha virt. eigenvalues --    1.98907   1.99142   2.00866   2.01075   2.01451
 Alpha virt. eigenvalues --    2.02171   2.02583   2.03211   2.03715   2.04496
 Alpha virt. eigenvalues --    2.04910   2.05989   2.06575   2.06863   2.07631
 Alpha virt. eigenvalues --    2.08176   2.09083   2.09606   2.10409   2.11095
 Alpha virt. eigenvalues --    2.11451   2.12101   2.12249   2.13707   2.14655
 Alpha virt. eigenvalues --    2.15357   2.15753   2.16264   2.17018   2.18111
 Alpha virt. eigenvalues --    2.19303   2.19571   2.20254   2.21430   2.21591
 Alpha virt. eigenvalues --    2.21845   2.22952   2.25978   2.26589   2.27450
 Alpha virt. eigenvalues --    2.28651   2.31759   2.32456   2.33105   2.34666
 Alpha virt. eigenvalues --    2.36579   2.37832   2.39322   2.40006   2.41595
 Alpha virt. eigenvalues --    2.42981   2.43533   2.43933   2.44320   2.46001
 Alpha virt. eigenvalues --    2.46319   2.46541   2.47014   2.48488   2.48895
 Alpha virt. eigenvalues --    2.49245   2.50328   2.51652   2.51891   2.51977
 Alpha virt. eigenvalues --    2.52487   2.52872   2.53430   2.53806   2.54631
 Alpha virt. eigenvalues --    2.56005   2.56376   2.58276   2.58528   2.59104
 Alpha virt. eigenvalues --    2.60142   2.62308   2.63482   2.63895   2.64999
 Alpha virt. eigenvalues --    2.66688   2.67101   2.67872   2.68025   2.68308
 Alpha virt. eigenvalues --    2.68798   2.69209   2.69678   2.70372   2.71075
 Alpha virt. eigenvalues --    2.71322   2.71924   2.72607   2.73203   2.74313
 Alpha virt. eigenvalues --    2.75884   2.76098   2.77266   2.77871   2.78415
 Alpha virt. eigenvalues --    2.80182   2.82261   2.83008   2.83399   2.83780
 Alpha virt. eigenvalues --    2.84254   2.84360   2.85051   2.85962   2.86443
 Alpha virt. eigenvalues --    2.87604   2.88180   2.88332   2.88913   2.89666
 Alpha virt. eigenvalues --    2.90262   2.91660   2.92490   2.93277   2.93745
 Alpha virt. eigenvalues --    2.94691   2.95235   2.95508   2.96543   2.98231
 Alpha virt. eigenvalues --    3.00067   3.00611   3.02125   3.03514   3.04273
 Alpha virt. eigenvalues --    3.04886   3.06441   3.06477   3.08151   3.08667
 Alpha virt. eigenvalues --    3.10001   3.10779   3.12817   3.14073   3.14535
 Alpha virt. eigenvalues --    3.15027   3.16974   3.17465   3.19573   3.21176
 Alpha virt. eigenvalues --    3.21859   3.23476   3.23732   3.24112   3.24838
 Alpha virt. eigenvalues --    3.27147   3.29558   3.29917   3.31235   3.32533
 Alpha virt. eigenvalues --    3.34448   3.34919   3.35272   3.35612   3.36455
 Alpha virt. eigenvalues --    3.37933   3.38397   3.39648   3.41740   3.42980
 Alpha virt. eigenvalues --    3.43980   3.44823   3.46014   3.46645   3.49244
 Alpha virt. eigenvalues --    3.49552   3.51172   3.53769   3.55681   3.58094
 Alpha virt. eigenvalues --    3.60076   3.60849   3.62336   3.65428   3.65934
 Alpha virt. eigenvalues --    3.66755   3.69819   3.71128   3.72470   3.73459
 Alpha virt. eigenvalues --    3.75857   3.76726   3.76990   3.81898   3.82567
 Alpha virt. eigenvalues --    3.84736   3.85349   3.86286   3.89980   3.91478
 Alpha virt. eigenvalues --    3.92967   3.93250   3.94942   3.96604   4.01178
 Alpha virt. eigenvalues --    4.03241   4.04308   4.08278   4.10689   4.12346
 Alpha virt. eigenvalues --    4.14556   4.19728   4.23300   4.25199   4.26833
 Alpha virt. eigenvalues --    4.35164   4.38587   4.39965   4.50519   4.67401
 Alpha virt. eigenvalues --    4.84342   4.86411   4.86866   4.89971   5.02010
 Alpha virt. eigenvalues --    5.02670   5.03953   5.05473   5.05798   5.09295
 Alpha virt. eigenvalues --    5.11210   5.12529   5.24868   5.26674   5.28700
 Alpha virt. eigenvalues --    5.31523   5.42496   5.43779   5.75855   5.76881
 Alpha virt. eigenvalues --    5.80057   5.80628   5.81931   5.85431   8.02851
 Alpha virt. eigenvalues --    8.06262  17.29388  17.34856  17.50258  17.52968
 Alpha virt. eigenvalues --   17.59002  17.63298  23.48868  23.56532  23.72466
 Alpha virt. eigenvalues --   23.79280  23.82424  23.83000  23.84568  23.87041
 Alpha virt. eigenvalues --   23.87420  23.88044  23.88898  23.90442  23.91437
 Alpha virt. eigenvalues --   23.93544  23.94820  23.96099  23.96554  23.99977
 Alpha virt. eigenvalues --   24.01278  24.03604  24.03805  24.05474  24.11483
 Alpha virt. eigenvalues --   24.13668  24.14279  24.15313  35.55748  35.58360
 Alpha virt. eigenvalues --   49.96318  49.97679  50.02130  50.03915  50.05938
 Alpha virt. eigenvalues --   50.07376 189.20124 189.24346
          Condensed to atoms (all electrons):
 Mulliken charges:
               1
     1  C    0.324425
     2  C   -0.043423
     3  C    0.187091
     4  C    0.280877
     5  C    0.291744
     6  C   -0.367799
     7  C    0.154958
     8  C    0.035435
     9  C    0.250855
    10  C   -0.256386
    11  C    0.235842
    12  C    0.177379
    13  C   -0.445062
    14  C   -0.665983
    15  H    0.160463
    16  H    0.161794
    17  H    0.168498
    18  N   -0.120540
    19  N   -0.140106
    20  O   -0.275816
    21  O   -0.270824
    22  O   -0.278366
    23  O   -0.196999
    24  C   -0.179251
    25  H    0.177583
    26  H    0.177046
    27  H    0.182713
    28  C   -0.198331
    29  H    0.173667
    30  H    0.175562
    31  H    0.182563
    32  C    0.198685
    33  C   -0.508989
    34  S   -0.477912
    35  C   -0.244519
    36  H    0.129041
    37  C    0.451225
    38  O   -0.116886
    39  C    0.986878
    40  C   -0.248186
    41  C   -0.016302
    42  S   -0.238420
    43  H    0.166422
    44  H    0.147464
    45  H    0.150744
    46  C   -0.522428
    47  O   -0.141025
    48  C   -0.281030
    49  H    0.130579
    50  C   -0.238494
    51  H    0.159401
    52  H    0.144448
    53  H    0.164933
    54  H    0.144762
 Sum of Mulliken charges =  -0.00000
 Mulliken charges with hydrogens summed into heavy atoms:
               1
     1  C    0.324425
     2  C   -0.043423
     3  C    0.187091
     4  C    0.280877
     5  C    0.291744
     6  C   -0.199301
     7  C    0.154958
     8  C    0.035435
     9  C    0.250855
    10  C   -0.256386
    11  C    0.235842
    12  C    0.177379
    13  C   -0.283268
    14  C   -0.505520
    18  N   -0.120540
    19  N   -0.140106
    20  O   -0.275816
    21  O   -0.270824
    22  O   -0.278366
    23  O   -0.196999
    24  C    0.358090
    28  C    0.333461
    32  C    0.198685
    33  C   -0.379948
    34  S   -0.477912
    35  C   -0.244519
    37  C    0.451225
    38  O   -0.116886
    39  C    0.986878
    40  C    0.216445
    41  C   -0.016302
    42  S   -0.238420
    46  C   -0.391849
    47  O   -0.141025
    48  C   -0.121629
    50  C    0.215648
 Electronic spatial extent (au):  <R**2>=          22162.8002
 Charge=             -0.0000 electrons
 Dipole moment (field-independent basis, Debye):
    X=              3.2303    Y=             -0.3707    Z=              0.1047  Tot=              3.2532
 Quadrupole moment (field-independent basis, Debye-Ang):
   XX=           -216.7272   YY=           -226.0906   ZZ=           -206.7105
   XY=              8.2209   XZ=             10.7014   YZ=             14.6562
 Traceless Quadrupole moment (field-independent basis, Debye-Ang):
   XX=             -0.2177   YY=             -9.5812   ZZ=              9.7990
   XY=              8.2209   XZ=             10.7014   YZ=             14.6562
 Octapole moment (field-independent basis, Debye-Ang**2):
  XXX=            312.1849  YYY=            -25.6192  ZZZ=             -1.8536  XYY=             61.8878
  XXY=              0.6360  XXZ=             46.6207  XZZ=             56.1680  YZZ=             -4.6152
  YYZ=            -13.8055  XYZ=             51.1630
 Hexadecapole moment (field-independent basis, Debye-Ang**3):
 XXXX=         -21238.7317 YYYY=          -6696.3656 ZZZZ=          -1867.7770 XXXY=             62.8134
 XXXZ=            594.0129 YYYX=            456.5222 YYYZ=             59.2630 ZZZX=             30.3372
 ZZZY=            121.5231 XXYY=          -4622.4548 XXZZ=          -3745.6408 YYZZ=          -1256.8165
 XXYZ=            289.9792 YYXZ=            -82.2050 ZZXY=             54.5980
 N-N= 4.096147931847D+03 E-N=-1.373246065779D+04  KE= 2.352052754328D+03
 Unable to Open any file for archive entry.
 1\1\GINC-CX3-5-6\FOpt\RB3LYP\6-311+G(d,p)\C26H18N2O6S2\NS5018\29-Nov-2
 020\0\\# opt=modredundant b3lyp/6-311+g(d,p)\\NDI_-130.pdb\\0,1\C,-2.4
 837594111,-2.9551636407,-0.428647927\C,-2.2086144612,-1.5052923351,-0.
 2495237013\C,-3.2638080075,-0.6070133151,0.0293979023\C,-4.5926780336,
 -1.0701214354,0.1368093261\C,-4.902124131,-2.5155526694,-0.0322146991\
 C,-0.9200377544,-1.0396886148,-0.3548609057\C,-2.9708035871,0.77783778
 51,0.1669141046\C,-1.6289914908,1.2461009309,0.0661159047\C,-0.5874893
 13,0.3288285831,-0.1625724657\C,-1.4011790922,2.7186301708,0.029969958
 6\C,-3.8214559472,3.1291847742,0.4824465398\C,-4.0506917894,1.66644756
 09,0.3933892139\C,-5.3468654327,1.1895025169,0.5082378726\C,-5.6225374
 198,-0.177974239,0.3839993057\H,-6.634592257,-0.553644989,0.4639263853
 \H,-6.1419186703,1.9027197796,0.6855466606\H,-0.1263952735,-1.75195745
 49,-0.5405387815\N,-2.5119775597,3.5550957448,0.25164216\N,-3.81886560
 69,-3.3626266518,-0.3210073374\O,-1.6062888292,-3.7703817736,-0.645009
 8787\O,-6.0338997332,-2.9501300756,0.0677306703\O,-4.7207803997,3.9166
 613469,0.7184227413\O,-0.3171801825,3.2296160451,-0.1726731044\C,-2.23
 69147695,4.9993230022,0.2448306944\H,-1.5114901547,5.2414083531,1.0219
 09942\H,-1.8168792735,5.2889384081,-0.7183002268\H,-3.1739791808,5.516
 2913635,0.4253729485\C,-4.0769640564,-4.7992777759,-0.4963415813\H,-3.
 7200863898,-5.1182476429,-1.4755748157\H,-3.5427855015,-5.3665175665,0
 .2664931764\H,-5.1467744973,-4.9595369082,-0.4085943376\C,0.8506420452
 ,0.6297544395,-0.1719437792\C,1.7457749295,0.2720151852,-1.1554078735\
 S,1.6665923636,1.328886722,1.1970427459\C,3.0822947965,0.5975980087,-0
 .8274978857\H,1.4399743828,-0.1814608624,-2.0874963952\C,3.2365014843,
 1.1683258558,0.4323808017\O,4.1804816989,0.3841386987,-1.6024595027\C,
 4.4602330873,1.5671505712,1.0750729706\C,3.9800705007,-0.0946706471,-2
 .9280575265\C,4.6142764153,2.1312676486,2.3356523965\S,6.0392386436,1.
 3974490329,0.3173025123\H,4.9691768159,-0.1478305857,-3.3795358885\H,3
 .5296446924,-1.0928581382,-2.9247885892\H,3.3518825815,0.5927845751,-3
 .5038134218\C,5.9619971543,2.4240081088,2.6835443352\O,3.5152226999,2.
 3559744779,3.1044032478\C,6.8335277341,2.0787127704,1.6885018338\H,6.2
 715820147,2.8655380156,3.6194978366\C,3.7058005164,2.9045228927,4.4041
 331118\H,7.9070249586,2.1891029288,1.6843652693\H,4.1639519412,3.89746
 75304,4.350567524\H,2.7124933377,2.9883420315,4.8414673763\H,4.3224234
 12,2.245321462,5.0237731557\\Version=ES64L-G16RevC.01\State=1-A\HF=-23
 59.3357665\RMSD=3.471e-09\RMSF=6.855e-04\Dipole=1.2519681,0.2215855,0.
 14694\Quadrupole=-4.6385366,-9.4666483,14.1051848,5.15619,5.7496643,7.
 5249846\PG=C01 [X(C26H18N2O6S2)]\\@
 The archive entry for this job was punched.


 AN AIRPLANE IS A COLLECTION OF SPARE PARTS
 FLYING IN CLOSE FORMATION.
 Job cpu time:       1 days 16 hours 55 minutes  4.1 seconds.
 Elapsed time:       0 days  5 hours 10 minutes 15.5 seconds.
 File lengths (MBytes):  RWF=    496 Int=      0 D2E=      0 Chk=     70 Scr=      1
 Normal termination of Gaussian 16 at Sun Nov 29 14:26:31 2020.
