 Entering Gaussian System, Link 0=g16
 Input=NDI_10.gjf
 Output=NDI_10.log
 Initial command:
 /apps/gaussian/g16-c01-avx/g16/l1.exe "/tmp/pbs.2625174[38].pbs/Gau-2709591.inp" -scrdir="/tmp/pbs.2625174[38].pbs/"
 Entering Link 1 = /apps/gaussian/g16-c01-avx/g16/l1.exe PID=   2709595.
  
 Copyright (c) 1988-2019, Gaussian, Inc.  All Rights Reserved.
  
 This is part of the Gaussian(R) 16 program.  It is based on
 the Gaussian(R) 09 system (copyright 2009, Gaussian, Inc.),
 the Gaussian(R) 03 system (copyright 2003, Gaussian, Inc.),
 the Gaussian(R) 98 system (copyright 1998, Gaussian, Inc.),
 the Gaussian(R) 94 system (copyright 1995, Gaussian, Inc.),
 the Gaussian 92(TM) system (copyright 1992, Gaussian, Inc.),
 the Gaussian 90(TM) system (copyright 1990, Gaussian, Inc.),
 the Gaussian 88(TM) system (copyright 1988, Gaussian, Inc.),
 the Gaussian 86(TM) system (copyright 1986, Carnegie Mellon
 University), and the Gaussian 82(TM) system (copyright 1983,
 Carnegie Mellon University). Gaussian is a federally registered
 trademark of Gaussian, Inc.
  
 This software contains proprietary and confidential information,
 including trade secrets, belonging to Gaussian, Inc.
  
 This software is provided under written license and may be
 used, copied, transmitted, or stored only in accord with that
 written license.
  
 The following legend is applicable only to US Government
 contracts under FAR:
  
                    RESTRICTED RIGHTS LEGEND
  
 Use, reproduction and disclosure by the US Government is
 subject to restrictions as set forth in subparagraphs (a)
 and (c) of the Commercial Computer Software - Restricted
 Rights clause in FAR 52.227-19.
  
 Gaussian, Inc.
 340 Quinnipiac St., Bldg. 40, Wallingford CT 06492
  
  
 ---------------------------------------------------------------
 Warning -- This program may not be used in any manner that
 competes with the business of Gaussian, Inc. or will provide
 assistance to any competitor of Gaussian, Inc.  The licensee
 of this program is prohibited from giving any competitor of
 Gaussian, Inc. access to this program.  By using this program,
 the user acknowledges that Gaussian, Inc. is engaged in the
 business of creating and licensing software in the field of
 computational chemistry and represents and warrants to the
 licensee that it is not a competitor of Gaussian, Inc. and that
 it will not use this program in any manner prohibited above.
 ---------------------------------------------------------------
  

 Cite this work as:
 Gaussian 16, Revision C.01,
 M. J. Frisch, G. W. Trucks, H. B. Schlegel, G. E. Scuseria, 
 M. A. Robb, J. R. Cheeseman, G. Scalmani, V. Barone, 
 G. A. Petersson, H. Nakatsuji, X. Li, M. Caricato, A. V. Marenich, 
 J. Bloino, B. G. Janesko, R. Gomperts, B. Mennucci, H. P. Hratchian, 
 J. V. Ortiz, A. F. Izmaylov, J. L. Sonnenberg, D. Williams-Young, 
 F. Ding, F. Lipparini, F. Egidi, J. Goings, B. Peng, A. Petrone, 
 T. Henderson, D. Ranasinghe, V. G. Zakrzewski, J. Gao, N. Rega, 
 G. Zheng, W. Liang, M. Hada, M. Ehara, K. Toyota, R. Fukuda, 
 J. Hasegawa, M. Ishida, T. Nakajima, Y. Honda, O. Kitao, H. Nakai, 
 T. Vreven, K. Throssell, J. A. Montgomery, Jr., J. E. Peralta, 
 F. Ogliaro, M. J. Bearpark, J. J. Heyd, E. N. Brothers, K. N. Kudin, 
 V. N. Staroverov, T. A. Keith, R. Kobayashi, J. Normand, 
 K. Raghavachari, A. P. Rendell, J. C. Burant, S. S. Iyengar, 
 J. Tomasi, M. Cossi, J. M. Millam, M. Klene, C. Adamo, R. Cammi, 
 J. W. Ochterski, R. L. Martin, K. Morokuma, O. Farkas, 
 J. B. Foresman, and D. J. Fox, Gaussian, Inc., Wallingford CT, 2019.
 
 ******************************************
 Gaussian 16:  ES64L-G16RevC.01  3-Jul-2019
                29-Nov-2020 
 ******************************************
 %mem=10GB
 %nprocshared=8
 Will use up to    8 processors via shared memory.
 -------------------------------------
 # opt=modredundant b3lyp/6-311+g(d,p)
 -------------------------------------
 1/18=120,19=15,26=3,38=1/1,3;
 2/9=110,12=2,17=6,18=5,40=1/2;
 3/5=4,6=6,7=111,11=2,25=1,30=1,71=1,74=-5/1,2,3;
 4//1;
 5/5=2,38=5/2;
 6/7=2,8=2,9=2,10=2,28=1/1;
 7//1,2,3,16;
 1/18=20,19=15,26=3/3(2);
 2/9=110/2;
 99//99;
 2/9=110/2;
 3/5=4,6=6,7=111,11=2,25=1,30=1,71=1,74=-5/1,2,3;
 4/5=5,16=3,69=1/1;
 5/5=2,38=5/2;
 7//1,2,3,16;
 1/18=20,19=15,26=3/3(-5);
 2/9=110/2;
 6/7=2,8=2,9=2,10=2,19=2,28=1/1;
 99/9=1/99;
 ----------
 NDI_10.pdb
 ----------
 Symbolic Z-matrix:
 Charge =  0 Multiplicity = 1
 C                    -2.563    -2.994    -0.409 
 C                    -2.257    -1.551    -0.224 
 C                    -3.301    -0.607    -0.083 
 C                    -4.65     -1.024    -0.115 
 C                    -4.992    -2.459    -0.304 
 C                    -0.949    -1.137    -0.215 
 C                    -2.962     0.764     0.102 
 C                    -1.595     1.188     0.123 
 C                    -0.561     0.232    -0.072 
 C                    -1.328     2.616     0.446 
 C                    -3.777     3.115     0.508 
 C                    -4.035     1.679     0.268 
 C                    -5.356     1.252     0.23 
 C                    -5.672    -0.098     0.036 
 H                    -6.699    -0.442     0.008 
 H                    -6.133     1.997     0.361 
 H                    -0.19     -1.895    -0.369 
 N                    -2.432     3.476     0.608 
 N                    -3.916    -3.353    -0.438 
 O                    -1.695    -3.847    -0.532 
 O                    -6.149    -2.85     -0.34 
 O                    -4.676     3.938     0.629 
 O                    -0.212     3.097     0.596 
 C                    -2.111     4.875     0.912 
 H                    -1.54      4.931     1.84 
 H                    -1.5       5.299     0.111 
 H                    -3.05      5.414     1.003 
 C                    -4.206    -4.779    -0.625 
 H                    -3.759    -5.126    -1.559 
 H                    -3.775    -5.355     0.196 
 H                    -5.286    -4.897    -0.649 
 C                     0.876     0.482    -0.178 
 C                     1.614     1.626     0.057 
 S                     1.911    -0.78     -0.847 
 C                     2.975     1.497    -0.284 
 H                     1.184     2.524     0.47 
 C                     3.329     0.241    -0.787 
 O                     3.933     2.455    -0.166 
 C                     4.634    -0.211    -1.18 
 C                     3.57      3.671     0.482 
 C                     4.981    -1.455    -1.704 
 S                     6.077     0.791    -1.054 
 H                     4.484     4.261     0.546 
 H                     2.822     4.223    -0.1 
 H                     3.181     3.483     1.49 
 C                     6.367    -1.599    -1.995 
 O                     4.014    -2.393    -1.884 
 C                     7.073    -0.466    -1.693 
 H                     6.816    -2.493    -2.406 
 C                     4.392    -3.641    -2.454 
 H                     8.134    -0.3      -1.816 
 H                     5.115    -4.166    -1.817 
 H                     3.478    -4.229    -2.523 
 H                     4.818    -3.508    -3.455 
 
 The following ModRedundant input section has been read:
 D       8       9      32      33 F                                           
 D      33      35      38      40 F                                           
 D      46      41      47      50 F                                           
 D      10      18      24      25 F                                           
 D       1      19      28      30 F                                           
 D       9       8      10      23 F                                           
 D      20       1       2       6 F                                           
 

 GradGradGradGradGradGradGradGradGradGradGradGradGradGradGradGradGradGrad
 Berny optimization.
 Initialization pass.
                           ----------------------------
                           !    Initial Parameters    !
                           ! (Angstroms and Degrees)  !
 --------------------------                            --------------------------
 ! Name  Definition              Value          Derivative Info.                !
 --------------------------------------------------------------------------------
 ! R1    R(1,2)                  1.4866         estimate D2E/DX2                !
 ! R2    R(1,19)                 1.4001         estimate D2E/DX2                !
 ! R3    R(1,20)                 1.2232         estimate D2E/DX2                !
 ! R4    R(2,3)                  1.4146         estimate D2E/DX2                !
 ! R5    R(2,6)                  1.372          estimate D2E/DX2                !
 ! R6    R(3,4)                  1.4123         estimate D2E/DX2                !
 ! R7    R(3,7)                  1.4244         estimate D2E/DX2                !
 ! R8    R(4,5)                  1.4872         estimate D2E/DX2                !
 ! R9    R(4,14)                 1.3874         estimate D2E/DX2                !
 ! R10   R(5,19)                 1.4053         estimate D2E/DX2                !
 ! R11   R(5,21)                 1.2218         estimate D2E/DX2                !
 ! R12   R(6,9)                  1.4301         estimate D2E/DX2                !
 ! R13   R(6,17)                 1.0837         estimate D2E/DX2                !
 ! R14   R(7,8)                  1.4314         estimate D2E/DX2                !
 ! R15   R(7,12)                 1.4199         estimate D2E/DX2                !
 ! R16   R(8,9)                  1.4217         estimate D2E/DX2                !
 ! R17   R(8,10)                 1.4882         estimate D2E/DX2                !
 ! R18   R(9,32)                 1.4624         estimate D2E/DX2                !
 ! R19   R(10,18)                1.4088         estimate D2E/DX2                !
 ! R20   R(10,23)                1.2245         estimate D2E/DX2                !
 ! R21   R(11,12)                1.4786         estimate D2E/DX2                !
 ! R22   R(11,18)                1.3962         estimate D2E/DX2                !
 ! R23   R(11,22)                1.2248         estimate D2E/DX2                !
 ! R24   R(12,13)                1.3888         estimate D2E/DX2                !
 ! R25   R(13,14)                1.4            estimate D2E/DX2                !
 ! R26   R(13,16)                1.0844         estimate D2E/DX2                !
 ! R27   R(14,15)                1.0834         estimate D2E/DX2                !
 ! R28   R(18,24)                1.4672         estimate D2E/DX2                !
 ! R29   R(19,28)                1.4672         estimate D2E/DX2                !
 ! R30   R(24,25)                1.091          estimate D2E/DX2                !
 ! R31   R(24,26)                1.093          estimate D2E/DX2                !
 ! R32   R(24,27)                1.0865         estimate D2E/DX2                !
 ! R33   R(28,29)                1.0921         estimate D2E/DX2                !
 ! R34   R(28,30)                1.0916         estimate D2E/DX2                !
 ! R35   R(28,31)                1.0867         estimate D2E/DX2                !
 ! R36   R(32,33)                1.3815         estimate D2E/DX2                !
 ! R37   R(32,34)                1.7639         estimate D2E/DX2                !
 ! R38   R(33,35)                1.409          estimate D2E/DX2                !
 ! R39   R(33,36)                1.0779         estimate D2E/DX2                !
 ! R40   R(34,37)                1.7484         estimate D2E/DX2                !
 ! R41   R(35,37)                1.3985         estimate D2E/DX2                !
 ! R42   R(35,38)                1.3599         estimate D2E/DX2                !
 ! R43   R(37,39)                1.4359         estimate D2E/DX2                !
 ! R44   R(38,40)                1.4249         estimate D2E/DX2                !
 ! R45   R(39,41)                1.3937         estimate D2E/DX2                !
 ! R46   R(39,42)                1.7613         estimate D2E/DX2                !
 ! R47   R(40,43)                1.0898         estimate D2E/DX2                !
 ! R48   R(40,44)                1.0968         estimate D2E/DX2                !
 ! R49   R(40,45)                1.0967         estimate D2E/DX2                !
 ! R50   R(41,46)                1.4235         estimate D2E/DX2                !
 ! R51   R(41,47)                1.3592         estimate D2E/DX2                !
 ! R52   R(42,48)                1.7264         estimate D2E/DX2                !
 ! R53   R(46,48)                1.3687         estimate D2E/DX2                !
 ! R54   R(46,49)                1.0816         estimate D2E/DX2                !
 ! R55   R(47,50)                1.4231         estimate D2E/DX2                !
 ! R56   R(48,51)                1.0809         estimate D2E/DX2                !
 ! R57   R(50,52)                1.0973         estimate D2E/DX2                !
 ! R58   R(50,53)                1.089          estimate D2E/DX2                !
 ! R59   R(50,54)                1.096          estimate D2E/DX2                !
 ! A1    A(2,1,19)             116.767          estimate D2E/DX2                !
 ! A2    A(2,1,20)             122.9113         estimate D2E/DX2                !
 ! A3    A(19,1,20)            120.3217         estimate D2E/DX2                !
 ! A4    A(1,2,3)              120.5473         estimate D2E/DX2                !
 ! A5    A(1,2,6)              119.3369         estimate D2E/DX2                !
 ! A6    A(3,2,6)              120.1056         estimate D2E/DX2                !
 ! A7    A(2,3,4)              120.3743         estimate D2E/DX2                !
 ! A8    A(2,3,7)              118.662          estimate D2E/DX2                !
 ! A9    A(4,3,7)              120.9617         estimate D2E/DX2                !
 ! A10   A(3,4,5)              120.4909         estimate D2E/DX2                !
 ! A11   A(3,4,14)             120.2702         estimate D2E/DX2                !
 ! A12   A(5,4,14)             119.2382         estimate D2E/DX2                !
 ! A13   A(4,5,19)             116.7341         estimate D2E/DX2                !
 ! A14   A(4,5,21)             122.024          estimate D2E/DX2                !
 ! A15   A(19,5,21)            121.2418         estimate D2E/DX2                !
 ! A16   A(2,6,9)              123.2421         estimate D2E/DX2                !
 ! A17   A(2,6,17)             117.1119         estimate D2E/DX2                !
 ! A18   A(9,6,17)             119.589          estimate D2E/DX2                !
 ! A19   A(3,7,8)              120.9519         estimate D2E/DX2                !
 ! A20   A(3,7,12)             117.1037         estimate D2E/DX2                !
 ! A21   A(8,7,12)             121.944          estimate D2E/DX2                !
 ! A22   A(7,8,9)              119.5639         estimate D2E/DX2                !
 ! A23   A(7,8,10)             117.3064         estimate D2E/DX2                !
 ! A24   A(9,8,10)             122.9922         estimate D2E/DX2                !
 ! A25   A(6,9,8)              117.3944         estimate D2E/DX2                !
 ! A26   A(6,9,32)             115.0236         estimate D2E/DX2                !
 ! A27   A(8,9,32)             127.5648         estimate D2E/DX2                !
 ! A28   A(8,10,18)            118.042          estimate D2E/DX2                !
 ! A29   A(8,10,23)            124.5436         estimate D2E/DX2                !
 ! A30   A(18,10,23)           117.4097         estimate D2E/DX2                !
 ! A31   A(12,11,18)           115.5202         estimate D2E/DX2                !
 ! A32   A(12,11,22)           122.7205         estimate D2E/DX2                !
 ! A33   A(18,11,22)           121.7534         estimate D2E/DX2                !
 ! A34   A(7,12,11)            120.8614         estimate D2E/DX2                !
 ! A35   A(7,12,13)            121.162          estimate D2E/DX2                !
 ! A36   A(11,12,13)           117.9699         estimate D2E/DX2                !
 ! A37   A(12,13,14)           120.9948         estimate D2E/DX2                !
 ! A38   A(12,13,16)           117.8401         estimate D2E/DX2                !
 ! A39   A(14,13,16)           121.1642         estimate D2E/DX2                !
 ! A40   A(4,14,13)            119.5003         estimate D2E/DX2                !
 ! A41   A(4,14,15)            118.9169         estimate D2E/DX2                !
 ! A42   A(13,14,15)           121.5811         estimate D2E/DX2                !
 ! A43   A(10,18,11)           126.0753         estimate D2E/DX2                !
 ! A44   A(10,18,24)           115.7508         estimate D2E/DX2                !
 ! A45   A(11,18,24)           118.1737         estimate D2E/DX2                !
 ! A46   A(1,19,5)             125.0856         estimate D2E/DX2                !
 ! A47   A(1,19,28)            116.2868         estimate D2E/DX2                !
 ! A48   A(5,19,28)            118.6276         estimate D2E/DX2                !
 ! A49   A(18,24,25)           109.8574         estimate D2E/DX2                !
 ! A50   A(18,24,26)           109.8979         estimate D2E/DX2                !
 ! A51   A(18,24,27)           107.5355         estimate D2E/DX2                !
 ! A52   A(25,24,26)           108.1108         estimate D2E/DX2                !
 ! A53   A(25,24,27)           110.8301         estimate D2E/DX2                !
 ! A54   A(26,24,27)           110.6124         estimate D2E/DX2                !
 ! A55   A(19,28,29)           109.6906         estimate D2E/DX2                !
 ! A56   A(19,28,30)           109.8136         estimate D2E/DX2                !
 ! A57   A(19,28,31)           107.7461         estimate D2E/DX2                !
 ! A58   A(29,28,30)           108.2991         estimate D2E/DX2                !
 ! A59   A(29,28,31)           110.6959         estimate D2E/DX2                !
 ! A60   A(30,28,31)           110.5924         estimate D2E/DX2                !
 ! A61   A(9,32,33)            130.8538         estimate D2E/DX2                !
 ! A62   A(9,32,34)            118.7992         estimate D2E/DX2                !
 ! A63   A(33,32,34)           110.0912         estimate D2E/DX2                !
 ! A64   A(32,33,35)           113.5168         estimate D2E/DX2                !
 ! A65   A(32,33,36)           122.8158         estimate D2E/DX2                !
 ! A66   A(35,33,36)           123.6653         estimate D2E/DX2                !
 ! A67   A(32,34,37)            92.5831         estimate D2E/DX2                !
 ! A68   A(33,35,37)           114.4421         estimate D2E/DX2                !
 ! A69   A(33,35,38)           126.5093         estimate D2E/DX2                !
 ! A70   A(37,35,38)           119.0484         estimate D2E/DX2                !
 ! A71   A(34,37,35)           109.3605         estimate D2E/DX2                !
 ! A72   A(34,37,39)           122.9491         estimate D2E/DX2                !
 ! A73   A(35,37,39)           127.6762         estimate D2E/DX2                !
 ! A74   A(35,38,40)           117.4623         estimate D2E/DX2                !
 ! A75   A(37,39,41)           127.5998         estimate D2E/DX2                !
 ! A76   A(37,39,42)           123.089          estimate D2E/DX2                !
 ! A77   A(41,39,42)           109.3111         estimate D2E/DX2                !
 ! A78   A(38,40,43)           105.9662         estimate D2E/DX2                !
 ! A79   A(38,40,44)           111.2186         estimate D2E/DX2                !
 ! A80   A(38,40,45)           111.2269         estimate D2E/DX2                !
 ! A81   A(43,40,44)           109.31           estimate D2E/DX2                !
 ! A82   A(43,40,45)           109.6531         estimate D2E/DX2                !
 ! A83   A(44,40,45)           109.3963         estimate D2E/DX2                !
 ! A84   A(39,41,46)           114.1767         estimate D2E/DX2                !
 ! A85   A(39,41,47)           119.2512         estimate D2E/DX2                !
 ! A86   A(46,41,47)           126.5717         estimate D2E/DX2                !
 ! A87   A(39,42,48)            91.8319         estimate D2E/DX2                !
 ! A88   A(41,46,48)           111.9242         estimate D2E/DX2                !
 ! A89   A(41,46,49)           124.437          estimate D2E/DX2                !
 ! A90   A(48,46,49)           123.6388         estimate D2E/DX2                !
 ! A91   A(41,47,50)           117.9871         estimate D2E/DX2                !
 ! A92   A(42,48,46)           112.756          estimate D2E/DX2                !
 ! A93   A(42,48,51)           119.7749         estimate D2E/DX2                !
 ! A94   A(46,48,51)           127.4687         estimate D2E/DX2                !
 ! A95   A(47,50,52)           111.2267         estimate D2E/DX2                !
 ! A96   A(47,50,53)           106.0187         estimate D2E/DX2                !
 ! A97   A(47,50,54)           111.2624         estimate D2E/DX2                !
 ! A98   A(52,50,53)           109.3568         estimate D2E/DX2                !
 ! A99   A(52,50,54)           109.3996         estimate D2E/DX2                !
 ! A100  A(53,50,54)           109.505          estimate D2E/DX2                !
 ! D1    D(19,1,2,3)             0.1578         estimate D2E/DX2                !
 ! D2    D(19,1,2,6)          -178.6792         estimate D2E/DX2                !
 ! D3    D(20,1,2,3)          -179.8231         estimate D2E/DX2                !
 ! D4    D(20,1,2,6)             1.3399         Frozen                          !
 ! D5    D(2,1,19,5)            -0.124          estimate D2E/DX2                !
 ! D6    D(2,1,19,28)          179.8267         estimate D2E/DX2                !
 ! D7    D(20,1,19,5)          179.8575         estimate D2E/DX2                !
 ! D8    D(20,1,19,28)          -0.1919         estimate D2E/DX2                !
 ! D9    D(1,2,3,4)              0.0571         estimate D2E/DX2                !
 ! D10   D(1,2,3,7)            179.5453         estimate D2E/DX2                !
 ! D11   D(6,2,3,4)            178.8851         estimate D2E/DX2                !
 ! D12   D(6,2,3,7)             -1.6266         estimate D2E/DX2                !
 ! D13   D(1,2,6,9)            178.625          estimate D2E/DX2                !
 ! D14   D(1,2,6,17)             1.3881         estimate D2E/DX2                !
 ! D15   D(3,2,6,9)             -0.2173         estimate D2E/DX2                !
 ! D16   D(3,2,6,17)          -177.4541         estimate D2E/DX2                !
 ! D17   D(2,3,4,5)             -0.3074         estimate D2E/DX2                !
 ! D18   D(2,3,4,14)           179.3968         estimate D2E/DX2                !
 ! D19   D(7,3,4,5)           -179.7837         estimate D2E/DX2                !
 ! D20   D(7,3,4,14)            -0.0795         estimate D2E/DX2                !
 ! D21   D(2,3,7,8)              1.0523         estimate D2E/DX2                !
 ! D22   D(2,3,7,12)          -178.712          estimate D2E/DX2                !
 ! D23   D(4,3,7,8)           -179.4626         estimate D2E/DX2                !
 ! D24   D(4,3,7,12)             0.7731         estimate D2E/DX2                !
 ! D25   D(3,4,5,19)             0.3343         estimate D2E/DX2                !
 ! D26   D(3,4,5,21)          -179.7799         estimate D2E/DX2                !
 ! D27   D(14,4,5,19)         -179.3729         estimate D2E/DX2                !
 ! D28   D(14,4,5,21)            0.5129         estimate D2E/DX2                !
 ! D29   D(3,4,14,13)           -0.4559         estimate D2E/DX2                !
 ! D30   D(3,4,14,15)         -179.9937         estimate D2E/DX2                !
 ! D31   D(5,4,14,13)          179.252          estimate D2E/DX2                !
 ! D32   D(5,4,14,15)           -0.2858         estimate D2E/DX2                !
 ! D33   D(4,5,19,1)            -0.1141         estimate D2E/DX2                !
 ! D34   D(4,5,19,28)          179.9364         estimate D2E/DX2                !
 ! D35   D(21,5,19,1)          179.9992         estimate D2E/DX2                !
 ! D36   D(21,5,19,28)           0.0496         estimate D2E/DX2                !
 ! D37   D(2,6,9,8)              2.5984         estimate D2E/DX2                !
 ! D38   D(2,6,9,32)          -176.0103         estimate D2E/DX2                !
 ! D39   D(17,6,9,8)           179.77           estimate D2E/DX2                !
 ! D40   D(17,6,9,32)            1.1613         estimate D2E/DX2                !
 ! D41   D(3,7,8,9)              1.3551         estimate D2E/DX2                !
 ! D42   D(3,7,8,10)          -174.5099         estimate D2E/DX2                !
 ! D43   D(12,7,8,9)          -178.8921         estimate D2E/DX2                !
 ! D44   D(12,7,8,10)            5.2428         estimate D2E/DX2                !
 ! D45   D(3,7,12,11)          178.0768         estimate D2E/DX2                !
 ! D46   D(3,7,12,13)           -0.9621         estimate D2E/DX2                !
 ! D47   D(8,7,12,11)           -1.685          estimate D2E/DX2                !
 ! D48   D(8,7,12,13)          179.2761         estimate D2E/DX2                !
 ! D49   D(7,8,9,6)             -3.0809         estimate D2E/DX2                !
 ! D50   D(7,8,9,32)           175.3285         estimate D2E/DX2                !
 ! D51   D(10,8,9,6)           172.5381         estimate D2E/DX2                !
 ! D52   D(10,8,9,32)           -9.0525         estimate D2E/DX2                !
 ! D53   D(7,8,10,18)           -4.7549         estimate D2E/DX2                !
 ! D54   D(7,8,10,23)          174.4235         estimate D2E/DX2                !
 ! D55   D(9,8,10,18)          179.5335         estimate D2E/DX2                !
 ! D56   D(9,8,10,23)           -1.2882         Frozen                          !
 ! D57   D(6,9,32,33)         -171.5541         estimate D2E/DX2                !
 ! D58   D(6,9,32,34)           14.8907         estimate D2E/DX2                !
 ! D59   D(8,9,32,33)           10.0043         Frozen                          !
 ! D60   D(8,9,32,34)         -163.5508         estimate D2E/DX2                !
 ! D61   D(8,10,18,11)           0.7189         estimate D2E/DX2                !
 ! D62   D(8,10,18,24)        -179.4089         estimate D2E/DX2                !
 ! D63   D(23,10,18,11)       -178.5188         estimate D2E/DX2                !
 ! D64   D(23,10,18,24)          1.3535         estimate D2E/DX2                !
 ! D65   D(18,11,12,7)          -2.3856         estimate D2E/DX2                !
 ! D66   D(18,11,12,13)        176.6833         estimate D2E/DX2                !
 ! D67   D(22,11,12,7)         178.4862         estimate D2E/DX2                !
 ! D68   D(22,11,12,13)         -2.445          estimate D2E/DX2                !
 ! D69   D(12,11,18,10)          2.8444         estimate D2E/DX2                !
 ! D70   D(12,11,18,24)       -177.0251         estimate D2E/DX2                !
 ! D71   D(22,11,18,10)       -178.0181         estimate D2E/DX2                !
 ! D72   D(22,11,18,24)          2.1124         estimate D2E/DX2                !
 ! D73   D(7,12,13,14)           0.461          estimate D2E/DX2                !
 ! D74   D(7,12,13,16)        -179.8781         estimate D2E/DX2                !
 ! D75   D(11,12,13,14)       -178.6049         estimate D2E/DX2                !
 ! D76   D(11,12,13,16)          1.056          estimate D2E/DX2                !
 ! D77   D(12,13,14,4)           0.2708         estimate D2E/DX2                !
 ! D78   D(12,13,14,15)        179.7958         estimate D2E/DX2                !
 ! D79   D(16,13,14,4)        -179.3788         estimate D2E/DX2                !
 ! D80   D(16,13,14,15)          0.1463         estimate D2E/DX2                !
 ! D81   D(10,18,24,25)        -59.609          Frozen                          !
 ! D82   D(10,18,24,26)         59.2209         estimate D2E/DX2                !
 ! D83   D(10,18,24,27)        179.6858         estimate D2E/DX2                !
 ! D84   D(11,18,24,25)        120.2739         estimate D2E/DX2                !
 ! D85   D(11,18,24,26)       -120.8962         estimate D2E/DX2                !
 ! D86   D(11,18,24,27)         -0.4313         estimate D2E/DX2                !
 ! D87   D(1,19,28,29)         -58.1407         estimate D2E/DX2                !
 ! D88   D(1,19,28,30)          60.7668         Frozen                          !
 ! D89   D(1,19,28,31)        -178.7139         estimate D2E/DX2                !
 ! D90   D(5,19,28,29)         121.8132         estimate D2E/DX2                !
 ! D91   D(5,19,28,30)        -119.2792         estimate D2E/DX2                !
 ! D92   D(5,19,28,31)           1.2401         estimate D2E/DX2                !
 ! D93   D(9,32,33,35)        -174.2148         estimate D2E/DX2                !
 ! D94   D(9,32,33,36)           6.297          estimate D2E/DX2                !
 ! D95   D(34,32,33,35)         -0.2268         estimate D2E/DX2                !
 ! D96   D(34,32,33,36)       -179.715          estimate D2E/DX2                !
 ! D97   D(9,32,34,37)         175.3753         estimate D2E/DX2                !
 ! D98   D(33,32,34,37)          0.5621         estimate D2E/DX2                !
 ! D99   D(32,33,35,37)         -0.3558         estimate D2E/DX2                !
 ! D100  D(32,33,35,38)        179.7693         estimate D2E/DX2                !
 ! D101  D(36,33,35,37)        179.1274         estimate D2E/DX2                !
 ! D102  D(36,33,35,38)         -0.7475         estimate D2E/DX2                !
 ! D103  D(32,34,37,35)         -0.7445         estimate D2E/DX2                !
 ! D104  D(32,34,37,39)        177.9801         estimate D2E/DX2                !
 ! D105  D(33,35,37,34)          0.7635         estimate D2E/DX2                !
 ! D106  D(33,35,37,39)       -177.8843         estimate D2E/DX2                !
 ! D107  D(38,35,37,34)       -179.3515         estimate D2E/DX2                !
 ! D108  D(38,35,37,39)          2.0006         estimate D2E/DX2                !
 ! D109  D(33,35,38,40)          6.4689         Frozen                          !
 ! D110  D(37,35,38,40)       -173.4008         estimate D2E/DX2                !
 ! D111  D(34,37,39,41)          2.7979         estimate D2E/DX2                !
 ! D112  D(34,37,39,42)       -177.2035         estimate D2E/DX2                !
 ! D113  D(35,37,39,41)       -178.7224         estimate D2E/DX2                !
 ! D114  D(35,37,39,42)          1.2762         estimate D2E/DX2                !
 ! D115  D(35,38,40,43)        175.4942         estimate D2E/DX2                !
 ! D116  D(35,38,40,44)        -65.8178         estimate D2E/DX2                !
 ! D117  D(35,38,40,45)         56.3894         estimate D2E/DX2                !
 ! D118  D(37,39,41,46)       -179.9613         estimate D2E/DX2                !
 ! D119  D(37,39,41,47)         -0.1766         estimate D2E/DX2                !
 ! D120  D(42,39,41,46)          0.0399         estimate D2E/DX2                !
 ! D121  D(42,39,41,47)        179.8246         estimate D2E/DX2                !
 ! D122  D(37,39,42,48)        179.958          estimate D2E/DX2                !
 ! D123  D(41,39,42,48)         -0.0431         estimate D2E/DX2                !
 ! D124  D(39,41,46,48)         -0.0133         estimate D2E/DX2                !
 ! D125  D(39,41,46,49)       -179.9845         estimate D2E/DX2                !
 ! D126  D(47,41,46,48)       -179.7793         estimate D2E/DX2                !
 ! D127  D(47,41,46,49)          0.2495         estimate D2E/DX2                !
 ! D128  D(39,41,47,50)        178.3519         estimate D2E/DX2                !
 ! D129  D(46,41,47,50)         -1.8927         Frozen                          !
 ! D130  D(39,42,48,46)          0.0373         estimate D2E/DX2                !
 ! D131  D(39,42,48,51)        179.83           estimate D2E/DX2                !
 ! D132  D(41,46,48,42)         -0.0209         estimate D2E/DX2                !
 ! D133  D(41,46,48,51)       -179.7942         estimate D2E/DX2                !
 ! D134  D(49,46,48,42)        179.9505         estimate D2E/DX2                !
 ! D135  D(49,46,48,51)          0.1773         estimate D2E/DX2                !
 ! D136  D(41,47,50,52)         62.0847         estimate D2E/DX2                !
 ! D137  D(41,47,50,53)       -179.1351         estimate D2E/DX2                !
 ! D138  D(41,47,50,54)        -60.1575         estimate D2E/DX2                !
 --------------------------------------------------------------------------------
 Trust Radius=3.00D-01 FncErr=1.00D-07 GrdErr=1.00D-06 EigMax=2.50D+02 EigMin=1.00D-04
 Number of steps in this run=    307 maximum allowed number of steps=    324.
 GradGradGradGradGradGradGradGradGradGradGradGradGradGradGradGradGradGrad

 Stoichiometry    C26H18N2O6S2
 Framework group  C1[X(C26H18N2O6S2)]
 Deg. of freedom   156
 Full point group                 C1      NOp   1
 Largest Abelian subgroup         C1      NOp   1
 Largest concise Abelian subgroup C1      NOp   1
                         Standard orientation:                         
 ---------------------------------------------------------------------
 Center     Atomic      Atomic             Coordinates (Angstroms)
 Number     Number       Type             X           Y           Z
 ---------------------------------------------------------------------
      1          6           0       -2.532230   -3.013446    0.326716
      2          6           0       -2.239376   -1.559480    0.225086
      3          6           0       -3.283258   -0.629040    0.011674
      4          6           0       -4.619791   -1.069945   -0.106637
      5          6           0       -4.947694   -2.517728   -0.015460
      6          6           0       -0.940399   -1.127432    0.316376
      7          6           0       -2.958435    0.755404   -0.069522
      8          6           0       -1.602515    1.201056    0.039013
      9          6           0       -0.561387    0.246734    0.201611
     10          6           0       -1.367049    2.670230    0.068781
     11          6           0       -3.796901    3.120908   -0.309581
     12          6           0       -4.034713    1.662533   -0.256212
     13          6           0       -5.342795    1.211115   -0.374351
     14          6           0       -5.643404   -0.154388   -0.303447
     15          1           0       -6.660691   -0.516727   -0.391126
     16          1           0       -6.122790    1.950739   -0.517459
     17          1           0       -0.175272   -1.885196    0.437762
     18          7           0       -2.474060    3.522227   -0.113672
     19          7           0       -3.872544   -3.397224    0.197859
     20          8           0       -1.664239   -3.854739    0.513745
     21          8           0       -6.093186   -2.930290   -0.117771
     22          8           0       -4.695641    3.931885   -0.496006
     23          8           0       -0.276632    3.194995    0.255675
     24          6           0       -2.182823    4.960007   -0.088584
     25          1           0       -1.741531    5.232052    0.871423
     26          1           0       -1.465214    5.207983   -0.874869
     27          1           0       -3.120024    5.486656   -0.246114
     28          6           0       -4.149102   -4.834738    0.295911
     29          1           0       -3.583863   -5.371209   -0.469123
     30          1           0       -3.838498   -5.205379    1.274547
     31          1           0       -5.217157   -4.976942    0.154714
     32          6           0        0.879245    0.495997    0.235579
     33          6           0        1.590377    1.678311    0.306496
     34         16           0        1.982137   -0.861784    0.008666
     35          6           0        2.983538    1.504422    0.187720
     36          1           0        1.117751    2.636678    0.448025
     37          6           0        3.389370    0.175547    0.028803
     38          8           0        3.926538    2.483901    0.216437
     39          6           0        4.730786   -0.325894   -0.075782
     40          6           0        3.491848    3.805771    0.523084
     41          6           0        5.132632   -1.647871   -0.258585
     42         16           0        6.153704    0.708065    0.015662
     43          1           0        4.394806    4.413629    0.575680
     44          1           0        2.834705    4.199633   -0.261753
     45          1           0        2.968698    3.838283    1.486404
     46          6           0        6.543675   -1.824783   -0.322397
     47          8           0        4.189271   -2.621791   -0.352830
     48          6           0        7.213963   -0.638974   -0.188602
     49          1           0        7.034899   -2.778422   -0.460346
     50          6           0        4.627991   -3.957247   -0.575025
     51          1           0        8.283484   -0.482977   -0.202588
     52          1           0        5.253225   -4.313090    0.253577
     53          1           0        3.725726   -4.564265   -0.632894
     54          1           0        5.186303   -4.041075   -1.514401
 ---------------------------------------------------------------------
 Rotational constants (GHZ):           0.1522948           0.0606640           0.0437177
 Standard basis: 6-311+G(d,p) (5D, 7F)
 There are   952 symmetry adapted cartesian basis functions of A   symmetry.
 There are   916 symmetry adapted basis functions of A   symmetry.
   916 basis functions,  1468 primitive gaussians,   952 cartesian basis functions
   134 alpha electrons      134 beta electrons
       nuclear repulsion energy      4092.7383117113 Hartrees.
 NAtoms=   54 NActive=   54 NUniq=   54 SFac= 1.00D+00 NAtFMM=   60 NAOKFM=F Big=F
 Integral buffers will be    131072 words long.
 Raffenetti 2 integral format.
 Two-electron integral symmetry is turned on.
 One-electron integrals computed using PRISM.
 NBasis=   916 RedAO= T EigKep=  1.22D-06  NBF=   916
 NBsUse=   901 1.00D-06 EigRej=  6.95D-07 NBFU=   901
 ExpMin= 4.05D-02 ExpMax= 9.34D+04 ExpMxC= 3.17D+03 IAcc=3 IRadAn=         5 AccDes= 0.00D+00
 Harris functional with IExCor=  402 and IRadAn=       5 diagonalized for initial guess.
 HarFok:  IExCor=  402 AccDes= 0.00D+00 IRadAn=         5 IDoV= 1 UseB2=F ITyADJ=14
 ICtDFT=  3500011 ScaDFX=  1.000000  1.000000  1.000000  1.000000
 FoFCou: FMM=F IPFlag=           0 FMFlag=      100000 FMFlg1=           0
         NFxFlg=           0 DoJE=T BraDBF=F KetDBF=T FulRan=T
         wScrn=  0.000000 ICntrl=       500 IOpCl=  0 I1Cent=   200000004 NGrid=           0
         NMat0=    1 NMatS0=      1 NMatT0=    0 NMatD0=    1 NMtDS0=    0 NMtDT0=    0
 Petite list used in FoFCou.
 Requested convergence on RMS density matrix=1.00D-08 within 128 cycles.
 Requested convergence on MAX density matrix=1.00D-06.
 Requested convergence on             energy=1.00D-06.
 No special actions if energy rises.
 SCF Done:  E(RB3LYP) =  -2359.31941688     A.U. after   17 cycles
            NFock= 17  Conv=0.71D-08     -V/T= 2.0031

 **********************************************************************

            Population analysis using the SCF Density.

 **********************************************************************

 Orbital symmetries:
       Occupied  (A) (A) (A) (A) (A) (A) (A) (A) (A) (A) (A) (A)
                 (A) (A) (A) (A) (A) (A) (A) (A) (A) (A) (A) (A)
                 (A) (A) (A) (A) (A) (A) (A) (A) (A) (A) (A) (A)
                 (A) (A) (A) (A) (A) (A) (A) (A) (A) (A) (A) (A)
                 (A) (A) (A) (A) (A) (A) (A) (A) (A) (A) (A) (A)
                 (A) (A) (A) (A) (A) (A) (A) (A) (A) (A) (A) (A)
                 (A) (A) (A) (A) (A) (A) (A) (A) (A) (A) (A) (A)
                 (A) (A) (A) (A) (A) (A) (A) (A) (A) (A) (A) (A)
                 (A) (A) (A) (A) (A) (A) (A) (A) (A) (A) (A) (A)
                 (A) (A) (A) (A) (A) (A) (A) (A) (A) (A) (A) (A)
                 (A) (A) (A) (A) (A) (A) (A) (A) (A) (A) (A) (A)
                 (A) (A)
       Virtual   (A) (A) (A) (A) (A) (A) (A) (A) (A) (A) (A) (A)
                 (A) (A) (A) (A) (A) (A) (A) (A) (A) (A) (A) (A)
                 (A) (A) (A) (A) (A) (A) (A) (A) (A) (A) (A) (A)
                 (A) (A) (A) (A) (A) (A) (A) (A) (A) (A) (A) (A)
                 (A) (A) (A) (A) (A) (A) (A) (A) (A) (A) (A) (A)
                 (A) (A) (A) (A) (A) (A) (A) (A) (A) (A) (A) (A)
                 (A) (A) (A) (A) (A) (A) (A) (A) (A) (A) (A) (A)
                 (A) (A) (A) (A) (A) (A) (A) (A) (A) (A) (A) (A)
                 (A) (A) (A) (A) (A) (A) (A) (A) (A) (A) (A) (A)
                 (A) (A) (A) (A) (A) (A) (A) (A) (A) (A) (A) (A)
                 (A) (A) (A) (A) (A) (A) (A) (A) (A) (A) (A) (A)
                 (A) (A) (A) (A) (A) (A) (A) (A) (A) (A) (A) (A)
                 (A) (A) (A) (A) (A) (A) (A) (A) (A) (A) (A) (A)
                 (A) (A) (A) (A) (A) (A) (A) (A) (A) (A) (A) (A)
                 (A) (A) (A) (A) (A) (A) (A) (A) (A) (A) (A) (A)
                 (A) (A) (A) (A) (A) (A) (A) (A) (A) (A) (A) (A)
                 (A) (A) (A) (A) (A) (A) (A) (A) (A) (A) (A) (A)
                 (A) (A) (A) (A) (A) (A) (A) (A) (A) (A) (A) (A)
                 (A) (A) (A) (A) (A) (A) (A) (A) (A) (A) (A) (A)
                 (A) (A) (A) (A) (A) (A) (A) (A) (A) (A) (A) (A)
                 (A) (A) (A) (A) (A) (A) (A) (A) (A) (A) (A) (A)
                 (A) (A) (A) (A) (A) (A) (A) (A) (A) (A) (A) (A)
                 (A) (A) (A) (A) (A) (A) (A) (A) (A) (A) (A) (A)
                 (A) (A) (A) (A) (A) (A) (A) (A) (A) (A) (A) (A)
                 (A) (A) (A) (A) (A) (A) (A) (A) (A) (A) (A) (A)
                 (A) (A) (A) (A) (A) (A) (A) (A) (A) (A) (A) (A)
                 (A) (A) (A) (A) (A) (A) (A) (A) (A) (A) (A) (A)
                 (A) (A) (A) (A) (A) (A) (A) (A) (A) (A) (A) (A)
                 (A) (A) (A) (A) (A) (A) (A) (A) (A) (A) (A) (A)
                 (A) (A) (A) (A) (A) (A) (A) (A) (A) (A) (A) (A)
                 (A) (A) (A) (A) (A) (A) (A) (A) (A) (A) (A) (A)
                 (A) (A) (A) (A) (A) (A) (A) (A) (A) (A) (A) (A)
                 (A) (A) (A) (A) (A) (A) (A) (A) (A) (A) (A) (A)
                 (A) (A) (A) (A) (A) (A) (A) (A) (A) (A) (A) (A)
                 (A) (A) (A) (A) (A) (A) (A) (A) (A) (A) (A) (A)
                 (A) (A) (A) (A) (A) (A) (A) (A) (A) (A) (A) (A)
                 (A) (A) (A) (A) (A) (A) (A) (A) (A) (A) (A) (A)
                 (A) (A) (A) (A) (A) (A) (A) (A) (A) (A) (A) (A)
                 (A) (A) (A) (A) (A) (A) (A) (A) (A) (A) (A) (A)
                 (A) (A) (A) (A) (A) (A) (A) (A) (A) (A) (A) (A)
                 (A) (A) (A) (A) (A) (A) (A) (A) (A) (A) (A) (A)
                 (A) (A) (A) (A) (A) (A) (A) (A) (A) (A) (A) (A)
                 (A) (A) (A) (A) (A) (A) (A) (A) (A) (A) (A) (A)
                 (A) (A) (A) (A) (A) (A) (A) (A) (A) (A) (A) (A)
                 (A) (A) (A) (A) (A) (A) (A) (A) (A) (A) (A) (A)
                 (A) (A) (A) (A) (A) (A) (A) (A) (A) (A) (A) (A)
                 (A) (A) (A) (A) (A) (A) (A) (A) (A) (A) (A) (A)
                 (A) (A) (A) (A) (A) (A) (A) (A) (A) (A) (A) (A)
                 (A) (A) (A) (A) (A) (A) (A) (A) (A) (A) (A) (A)
                 (A) (A) (A) (A) (A) (A) (A) (A) (A) (A) (A) (A)
                 (A) (A) (A) (A) (A) (A) (A) (A) (A) (A) (A) (A)
                 (A) (A) (A) (A) (A) (A) (A) (A) (A) (A) (A) (A)
                 (A) (A) (A) (A) (A) (A) (A) (A) (A) (A) (A) (A)
                 (A) (A) (A) (A) (A) (A) (A) (A) (A) (A) (A) (A)
                 (A) (A) (A) (A) (A) (A) (A) (A) (A) (A) (A) (A)
                 (A) (A) (A) (A) (A) (A) (A) (A) (A) (A) (A) (A)
                 (A) (A) (A) (A) (A) (A) (A) (A) (A) (A) (A) (A)
                 (A) (A) (A) (A) (A) (A) (A) (A) (A) (A) (A) (A)
                 (A) (A) (A) (A) (A) (A) (A) (A) (A) (A) (A) (A)
                 (A) (A) (A) (A) (A) (A) (A) (A) (A) (A) (A) (A)
                 (A) (A) (A) (A) (A) (A) (A) (A) (A) (A) (A) (A)
                 (A) (A) (A) (A) (A) (A) (A) (A) (A) (A) (A) (A)
                 (A) (A) (A) (A) (A) (A) (A) (A) (A) (A) (A) (A)
                 (A) (A) (A) (A) (A) (A) (A) (A) (A) (A) (A)
 The electronic state is 1-A.
 Alpha  occ. eigenvalues --  -88.88732 -88.88307 -19.17519 -19.16746 -19.12274
 Alpha  occ. eigenvalues --  -19.12272 -19.12178 -19.11567 -14.38532 -14.38350
 Alpha  occ. eigenvalues --  -10.31267 -10.30920 -10.30808 -10.30236 -10.25287
 Alpha  occ. eigenvalues --  -10.24201 -10.24066 -10.23985 -10.23243 -10.22821
 Alpha  occ. eigenvalues --  -10.22728 -10.22477 -10.22308 -10.22169 -10.22164
 Alpha  occ. eigenvalues --  -10.22090 -10.22042 -10.21699 -10.21473 -10.21447
 Alpha  occ. eigenvalues --  -10.20918 -10.20869 -10.20806 -10.20681 -10.19360
 Alpha  occ. eigenvalues --  -10.16871  -7.97273  -7.96889  -5.93583  -5.93213
 Alpha  occ. eigenvalues --   -5.93194  -5.92842  -5.92818  -5.92421  -1.09039
 Alpha  occ. eigenvalues --   -1.08738  -1.08286  -1.08243  -1.06403  -1.06303
 Alpha  occ. eigenvalues --   -0.96090  -0.95895  -0.92156  -0.90383  -0.88841
 Alpha  occ. eigenvalues --   -0.86396  -0.84024  -0.80371  -0.78255  -0.77761
 Alpha  occ. eigenvalues --   -0.76475  -0.75230  -0.75074  -0.73401  -0.72351
 Alpha  occ. eigenvalues --   -0.71663  -0.70499  -0.68764  -0.67293  -0.65712
 Alpha  occ. eigenvalues --   -0.65553  -0.64690  -0.61183  -0.59851  -0.58540
 Alpha  occ. eigenvalues --   -0.57302  -0.56973  -0.56500  -0.55682  -0.54986
 Alpha  occ. eigenvalues --   -0.53274  -0.51691  -0.51483  -0.50025  -0.49609
 Alpha  occ. eigenvalues --   -0.49509  -0.48926  -0.48558  -0.48518  -0.48293
 Alpha  occ. eigenvalues --   -0.48084  -0.47629  -0.46295  -0.46146  -0.45810
 Alpha  occ. eigenvalues --   -0.45705  -0.44986  -0.44240  -0.44147  -0.42986
 Alpha  occ. eigenvalues --   -0.42875  -0.42509  -0.42320  -0.41783  -0.41716
 Alpha  occ. eigenvalues --   -0.41502  -0.41156  -0.41142  -0.40506  -0.39673
 Alpha  occ. eigenvalues --   -0.39570  -0.39070  -0.38500  -0.37518  -0.37108
 Alpha  occ. eigenvalues --   -0.36361  -0.36221  -0.34492  -0.34170  -0.33494
 Alpha  occ. eigenvalues --   -0.33328  -0.32024  -0.30650  -0.30496  -0.29618
 Alpha  occ. eigenvalues --   -0.29224  -0.29005  -0.28555  -0.27536  -0.27176
 Alpha  occ. eigenvalues --   -0.26153  -0.24955  -0.24608  -0.19657
 Alpha virt. eigenvalues --   -0.12881  -0.07750  -0.06582  -0.04624  -0.03422
 Alpha virt. eigenvalues --   -0.00776  -0.00528  -0.00368  -0.00013   0.00426
 Alpha virt. eigenvalues --    0.00874   0.01088   0.01381   0.01712   0.01944
 Alpha virt. eigenvalues --    0.02039   0.02228   0.02563   0.02886   0.03344
 Alpha virt. eigenvalues --    0.03698   0.03812   0.03863   0.04134   0.04319
 Alpha virt. eigenvalues --    0.04789   0.04984   0.05225   0.05626   0.05852
 Alpha virt. eigenvalues --    0.06223   0.06270   0.06469   0.06835   0.07080
 Alpha virt. eigenvalues --    0.07280   0.07665   0.07753   0.07904   0.08209
 Alpha virt. eigenvalues --    0.08506   0.08656   0.08812   0.09193   0.09498
 Alpha virt. eigenvalues --    0.09814   0.09997   0.10408   0.10602   0.10885
 Alpha virt. eigenvalues --    0.11051   0.11448   0.11668   0.12133   0.12271
 Alpha virt. eigenvalues --    0.12318   0.12871   0.12951   0.13344   0.13414
 Alpha virt. eigenvalues --    0.13503   0.13779   0.13869   0.14305   0.14557
 Alpha virt. eigenvalues --    0.14593   0.15078   0.15141   0.15346   0.15563
 Alpha virt. eigenvalues --    0.15606   0.15812   0.15952   0.16182   0.16353
 Alpha virt. eigenvalues --    0.16769   0.16945   0.17417   0.17513   0.17863
 Alpha virt. eigenvalues --    0.18016   0.18113   0.18384   0.18516   0.18755
 Alpha virt. eigenvalues --    0.18840   0.19173   0.19447   0.19505   0.19585
 Alpha virt. eigenvalues --    0.19724   0.19971   0.20197   0.20368   0.20468
 Alpha virt. eigenvalues --    0.20634   0.21037   0.21137   0.21177   0.21690
 Alpha virt. eigenvalues --    0.21946   0.22045   0.22298   0.22371   0.22712
 Alpha virt. eigenvalues --    0.22955   0.23161   0.23209   0.23374   0.23581
 Alpha virt. eigenvalues --    0.23904   0.24014   0.24374   0.24407   0.24539
 Alpha virt. eigenvalues --    0.24756   0.24900   0.25096   0.25410   0.25451
 Alpha virt. eigenvalues --    0.25812   0.25841   0.26195   0.26313   0.26485
 Alpha virt. eigenvalues --    0.26717   0.26834   0.27048   0.27355   0.27417
 Alpha virt. eigenvalues --    0.27619   0.27796   0.28142   0.28266   0.28587
 Alpha virt. eigenvalues --    0.28772   0.28918   0.29216   0.29299   0.29613
 Alpha virt. eigenvalues --    0.29994   0.30172   0.30370   0.30811   0.31097
 Alpha virt. eigenvalues --    0.31500   0.31818   0.32109   0.32256   0.32369
 Alpha virt. eigenvalues --    0.32642   0.32763   0.32930   0.33458   0.33808
 Alpha virt. eigenvalues --    0.34061   0.34303   0.34505   0.34861   0.35273
 Alpha virt. eigenvalues --    0.35366   0.35586   0.35964   0.36483   0.36639
 Alpha virt. eigenvalues --    0.37014   0.37078   0.37575   0.37750   0.38030
 Alpha virt. eigenvalues --    0.38689   0.38838   0.38925   0.39491   0.39890
 Alpha virt. eigenvalues --    0.40767   0.41246   0.41613   0.41951   0.42450
 Alpha virt. eigenvalues --    0.42750   0.43078   0.43195   0.43517   0.43984
 Alpha virt. eigenvalues --    0.44579   0.44849   0.45302   0.45890   0.46020
 Alpha virt. eigenvalues --    0.46100   0.46249   0.46630   0.46816   0.47637
 Alpha virt. eigenvalues --    0.47701   0.48255   0.48603   0.48640   0.49768
 Alpha virt. eigenvalues --    0.50111   0.50622   0.50816   0.51262   0.52066
 Alpha virt. eigenvalues --    0.52328   0.52747   0.53351   0.54045   0.54170
 Alpha virt. eigenvalues --    0.54408   0.55270   0.55436   0.55584   0.56157
 Alpha virt. eigenvalues --    0.56268   0.56463   0.56724   0.57112   0.57748
 Alpha virt. eigenvalues --    0.58210   0.58554   0.58707   0.59323   0.59604
 Alpha virt. eigenvalues --    0.59907   0.60159   0.60870   0.60987   0.61075
 Alpha virt. eigenvalues --    0.61450   0.61839   0.62247   0.62615   0.62938
 Alpha virt. eigenvalues --    0.63382   0.63726   0.64527   0.64667   0.64995
 Alpha virt. eigenvalues --    0.65368   0.65488   0.65676   0.65900   0.66113
 Alpha virt. eigenvalues --    0.66564   0.66994   0.67139   0.67665   0.68082
 Alpha virt. eigenvalues --    0.68303   0.68897   0.69737   0.69813   0.70541
 Alpha virt. eigenvalues --    0.71128   0.71268   0.71805   0.71967   0.72553
 Alpha virt. eigenvalues --    0.72847   0.73216   0.73247   0.74029   0.74212
 Alpha virt. eigenvalues --    0.74944   0.75273   0.75367   0.75649   0.76006
 Alpha virt. eigenvalues --    0.76069   0.76541   0.77540   0.77630   0.77865
 Alpha virt. eigenvalues --    0.78355   0.78676   0.78946   0.79380   0.79794
 Alpha virt. eigenvalues --    0.80182   0.81130   0.82369   0.82581   0.83550
 Alpha virt. eigenvalues --    0.83958   0.84041   0.84923   0.85819   0.86308
 Alpha virt. eigenvalues --    0.86840   0.87779   0.88458   0.88819   0.88980
 Alpha virt. eigenvalues --    0.89127   0.90206   0.91176   0.91451   0.91935
 Alpha virt. eigenvalues --    0.92173   0.92412   0.92994   0.93412   0.93709
 Alpha virt. eigenvalues --    0.94160   0.94534   0.95208   0.95394   0.95685
 Alpha virt. eigenvalues --    0.96369   0.96925   0.97251   0.97834   0.97952
 Alpha virt. eigenvalues --    0.98132   0.99112   0.99403   1.00218   1.00563
 Alpha virt. eigenvalues --    1.00826   1.01218   1.01512   1.01848   1.02432
 Alpha virt. eigenvalues --    1.03002   1.03174   1.03853   1.04758   1.05154
 Alpha virt. eigenvalues --    1.05290   1.05706   1.06024   1.06649   1.06720
 Alpha virt. eigenvalues --    1.06848   1.07267   1.07869   1.08472   1.08554
 Alpha virt. eigenvalues --    1.08909   1.09513   1.10417   1.11134   1.11346
 Alpha virt. eigenvalues --    1.12095   1.13211   1.13906   1.14640   1.15307
 Alpha virt. eigenvalues --    1.15459   1.16320   1.17049   1.17627   1.17838
 Alpha virt. eigenvalues --    1.18486   1.18854   1.19236   1.20766   1.21563
 Alpha virt. eigenvalues --    1.22204   1.23463   1.24895   1.24995   1.25445
 Alpha virt. eigenvalues --    1.25648   1.26115   1.26449   1.27192   1.27559
 Alpha virt. eigenvalues --    1.28899   1.29522   1.30287   1.31064   1.32437
 Alpha virt. eigenvalues --    1.32655   1.32853   1.33924   1.34783   1.35356
 Alpha virt. eigenvalues --    1.35588   1.36460   1.37344   1.38560   1.40273
 Alpha virt. eigenvalues --    1.41786   1.41960   1.42286   1.42427   1.42657
 Alpha virt. eigenvalues --    1.43316   1.43537   1.43566   1.44080   1.44464
 Alpha virt. eigenvalues --    1.44816   1.45220   1.45433   1.45720   1.46728
 Alpha virt. eigenvalues --    1.46913   1.47942   1.48533   1.48607   1.49199
 Alpha virt. eigenvalues --    1.49865   1.51124   1.51489   1.52675   1.53064
 Alpha virt. eigenvalues --    1.53614   1.54401   1.54450   1.55053   1.55268
 Alpha virt. eigenvalues --    1.55403   1.55730   1.56391   1.56775   1.57593
 Alpha virt. eigenvalues --    1.58083   1.59258   1.60347   1.60824   1.61456
 Alpha virt. eigenvalues --    1.62427   1.62614   1.63415   1.63771   1.64394
 Alpha virt. eigenvalues --    1.65431   1.66233   1.66949   1.67211   1.67714
 Alpha virt. eigenvalues --    1.68003   1.68501   1.69010   1.69706   1.69896
 Alpha virt. eigenvalues --    1.70226   1.70757   1.71083   1.71722   1.72150
 Alpha virt. eigenvalues --    1.73421   1.74007   1.74948   1.75190   1.75710
 Alpha virt. eigenvalues --    1.77013   1.77164   1.77812   1.78452   1.78536
 Alpha virt. eigenvalues --    1.78801   1.79314   1.80462   1.82610   1.82647
 Alpha virt. eigenvalues --    1.83860   1.84370   1.85355   1.86023   1.86607
 Alpha virt. eigenvalues --    1.86966   1.87266   1.87851   1.88347   1.88615
 Alpha virt. eigenvalues --    1.89699   1.90357   1.90850   1.91434   1.92327
 Alpha virt. eigenvalues --    1.93384   1.93560   1.93664   1.94713   1.95141
 Alpha virt. eigenvalues --    1.96000   1.96412   1.97907   1.98204   1.99343
 Alpha virt. eigenvalues --    2.00325   2.00765   2.01402   2.01803   2.02289
 Alpha virt. eigenvalues --    2.03066   2.03588   2.03880   2.04302   2.05778
 Alpha virt. eigenvalues --    2.06053   2.06745   2.07229   2.08002   2.08512
 Alpha virt. eigenvalues --    2.09082   2.09906   2.10911   2.11460   2.11693
 Alpha virt. eigenvalues --    2.13474   2.13712   2.14439   2.14879   2.15837
 Alpha virt. eigenvalues --    2.16350   2.16804   2.18332   2.19151   2.19566
 Alpha virt. eigenvalues --    2.20222   2.20722   2.21926   2.22028   2.22918
 Alpha virt. eigenvalues --    2.24578   2.25435   2.26553   2.27253   2.30076
 Alpha virt. eigenvalues --    2.32032   2.32462   2.33335   2.35185   2.37507
 Alpha virt. eigenvalues --    2.38889   2.39605   2.39931   2.42032   2.42740
 Alpha virt. eigenvalues --    2.43229   2.43899   2.44876   2.45244   2.45814
 Alpha virt. eigenvalues --    2.46923   2.47643   2.48258   2.48527   2.49171
 Alpha virt. eigenvalues --    2.50262   2.51647   2.51985   2.52348   2.52665
 Alpha virt. eigenvalues --    2.52965   2.53239   2.54244   2.54505   2.56456
 Alpha virt. eigenvalues --    2.58157   2.58956   2.59221   2.59647   2.60434
 Alpha virt. eigenvalues --    2.62466   2.62986   2.63622   2.65515   2.66451
 Alpha virt. eigenvalues --    2.67090   2.67508   2.67788   2.68181   2.69141
 Alpha virt. eigenvalues --    2.69967   2.70158   2.70691   2.70730   2.71516
 Alpha virt. eigenvalues --    2.72927   2.73538   2.73861   2.75178   2.75693
 Alpha virt. eigenvalues --    2.75859   2.76599   2.77582   2.80186   2.80730
 Alpha virt. eigenvalues --    2.80993   2.82008   2.83025   2.83363   2.84227
 Alpha virt. eigenvalues --    2.84937   2.85083   2.85438   2.85919   2.86680
 Alpha virt. eigenvalues --    2.87694   2.88325   2.88837   2.89211   2.89872
 Alpha virt. eigenvalues --    2.91705   2.92101   2.92753   2.93984   2.94066
 Alpha virt. eigenvalues --    2.95439   2.95822   2.96485   2.97511   2.99691
 Alpha virt. eigenvalues --    3.01549   3.02811   3.03166   3.04520   3.05090
 Alpha virt. eigenvalues --    3.06221   3.08271   3.09093   3.10659   3.11693
 Alpha virt. eigenvalues --    3.12741   3.13548   3.14702   3.15111   3.16519
 Alpha virt. eigenvalues --    3.18003   3.18565   3.19947   3.20671   3.22546
 Alpha virt. eigenvalues --    3.22931   3.23613   3.24120   3.25678   3.27726
 Alpha virt. eigenvalues --    3.28791   3.30101   3.30663   3.31973   3.33825
 Alpha virt. eigenvalues --    3.34121   3.34591   3.34961   3.36454   3.37838
 Alpha virt. eigenvalues --    3.39083   3.40557   3.41366   3.42536   3.43498
 Alpha virt. eigenvalues --    3.44618   3.45733   3.47315   3.49199   3.49518
 Alpha virt. eigenvalues --    3.51645   3.53110   3.55849   3.57891   3.59905
 Alpha virt. eigenvalues --    3.60609   3.64172   3.65868   3.66429   3.67520
 Alpha virt. eigenvalues --    3.70346   3.72183   3.72420   3.73762   3.75692
 Alpha virt. eigenvalues --    3.76705   3.77175   3.81700   3.82875   3.84864
 Alpha virt. eigenvalues --    3.85461   3.86536   3.90080   3.92277   3.93031
 Alpha virt. eigenvalues --    3.93422   3.94342   3.98945   4.01827   4.03295
 Alpha virt. eigenvalues --    4.05183   4.08411   4.10274   4.13234   4.14449
 Alpha virt. eigenvalues --    4.21674   4.24091   4.25669   4.29218   4.35819
 Alpha virt. eigenvalues --    4.40616   4.41805   4.54071   4.72959   4.84433
 Alpha virt. eigenvalues --    4.86354   4.87744   4.90512   5.00951   5.02506
 Alpha virt. eigenvalues --    5.03987   5.05532   5.05770   5.07046   5.11467
 Alpha virt. eigenvalues --    5.13546   5.25227   5.27290   5.29593   5.37585
 Alpha virt. eigenvalues --    5.42147   5.44193   5.76095   5.76376   5.79885
 Alpha virt. eigenvalues --    5.80712   5.82416   5.85380   8.02430   8.04615
 Alpha virt. eigenvalues --   17.28599  17.30828  17.49500  17.52280  17.58610
 Alpha virt. eigenvalues --   17.63430  23.48982  23.56874  23.71616  23.78388
 Alpha virt. eigenvalues --   23.82218  23.82758  23.84166  23.86752  23.86963
 Alpha virt. eigenvalues --   23.88292  23.89082  23.90110  23.91507  23.93069
 Alpha virt. eigenvalues --   23.94632  23.95350  23.96098  23.98158  24.00755
 Alpha virt. eigenvalues --   24.01500  24.02073  24.05245  24.13306  24.13672
 Alpha virt. eigenvalues --   24.14273  24.14496  35.56503  35.59824  49.95789
 Alpha virt. eigenvalues --   49.98209  50.02217  50.04399  50.05932  50.07736
 Alpha virt. eigenvalues --  189.19806 189.22431
          Condensed to atoms (all electrons):
 Mulliken charges:
               1
     1  C    0.326446
     2  C    0.044251
     3  C    0.180304
     4  C    0.286030
     5  C    0.289672
     6  C    0.044699
     7  C    0.162087
     8  C    0.121947
     9  C    0.061792
    10  C   -0.120102
    11  C    0.114336
    12  C    0.230368
    13  C   -0.438679
    14  C   -0.683728
    15  H    0.159107
    16  H    0.161610
    17  H    0.168176
    18  N   -0.192856
    19  N   -0.134333
    20  O   -0.283570
    21  O   -0.272178
    22  O   -0.270993
    23  O   -0.268623
    24  C   -0.205235
    25  H    0.171963
    26  H    0.172992
    27  H    0.190296
    28  C   -0.197948
    29  H    0.173622
    30  H    0.174093
    31  H    0.182367
    32  C   -0.343563
    33  C   -0.210748
    34  S   -0.774919
    35  C   -0.169484
    36  H    0.244630
    37  C    0.568234
    38  O   -0.132568
    39  C    0.919680
    40  C   -0.235157
    41  C    0.004410
    42  S   -0.220359
    43  H    0.163389
    44  H    0.153620
    45  H    0.150764
    46  C   -0.577818
    47  O   -0.120425
    48  C   -0.285295
    49  H    0.133699
    50  C   -0.242267
    51  H    0.163401
    52  H    0.145601
    53  H    0.171686
    54  H    0.145575
 Sum of Mulliken charges =  -0.00000
 Mulliken charges with hydrogens summed into heavy atoms:
               1
     1  C    0.326446
     2  C    0.044251
     3  C    0.180304
     4  C    0.286030
     5  C    0.289672
     6  C    0.212875
     7  C    0.162087
     8  C    0.121947
     9  C    0.061792
    10  C   -0.120102
    11  C    0.114336
    12  C    0.230368
    13  C   -0.277069
    14  C   -0.524622
    18  N   -0.192856
    19  N   -0.134333
    20  O   -0.283570
    21  O   -0.272178
    22  O   -0.270993
    23  O   -0.268623
    24  C    0.330016
    28  C    0.332133
    32  C   -0.343563
    33  C    0.033882
    34  S   -0.774919
    35  C   -0.169484
    37  C    0.568234
    38  O   -0.132568
    39  C    0.919680
    40  C    0.232617
    41  C    0.004410
    42  S   -0.220359
    46  C   -0.444118
    47  O   -0.120425
    48  C   -0.121894
    50  C    0.220595
 Electronic spatial extent (au):  <R**2>=          22412.2427
 Charge=              0.0000 electrons
 Dipole moment (field-independent basis, Debye):
    X=              5.1634    Y=             -0.5925    Z=             -0.0358  Tot=              5.1974
 Quadrupole moment (field-independent basis, Debye-Ang):
   XX=           -217.1363   YY=           -207.7170   ZZ=           -223.4773
   XY=             -5.5189   XZ=             -4.2341   YZ=              6.0138
 Traceless Quadrupole moment (field-independent basis, Debye-Ang):
   XX=             -1.0261   YY=              8.3932   ZZ=             -7.3671
   XY=             -5.5189   XZ=             -4.2341   YZ=              6.0138
 Octapole moment (field-independent basis, Debye-Ang**2):
  XXX=            392.8788  YYY=            -19.9078  ZZZ=              2.3503  XYY=            147.1670
  XXY=            -88.3207  XXZ=              2.3128  XZZ=            -11.8636  YZZ=             -0.5684
  YYZ=              0.5696  XYZ=             14.0202
 Hexadecapole moment (field-independent basis, Debye-Ang**3):
 XXXX=         -20753.3723 YYYY=          -7995.3637 ZZZZ=           -373.8495 XXXY=           -592.1672
 XXXZ=           -155.7038 YYYX=            214.3538 YYYZ=            110.8979 ZZZX=             -2.0833
 ZZZY=             -0.5367 XXYY=          -4967.5614 XXZZ=          -3758.6277 YYZZ=          -1471.8980
 XXYZ=            105.0844 YYXZ=            -92.4466 ZZXY=             29.5600
 N-N= 4.092738311711D+03 E-N=-1.372546142754D+04  KE= 2.352036263882D+03
 Calling FoFJK, ICntrl=      2127 FMM=F ISym2X=0 I1Cent= 0 IOpClX= 0 NMat=1 NMatS=1 NMatT=0.
 ***** Axes restored to original set *****
 -------------------------------------------------------------------
 Center     Atomic                   Forces (Hartrees/Bohr)
 Number     Number              X              Y              Z
 -------------------------------------------------------------------
      1        6           0.004269322   -0.005582774   -0.000017875
      2        6           0.005667956    0.000460523   -0.001150538
      3        6          -0.003003612    0.000863724    0.000294979
      4        6           0.002750803    0.001439735    0.000395473
      5        6          -0.005860479   -0.001629669   -0.000079350
      6        6          -0.005747649   -0.000821935   -0.004872442
      7        6          -0.001412464    0.000236243    0.000912950
      8        6          -0.000027506    0.005910070    0.007718298
      9        6           0.010941037   -0.000164624   -0.000562812
     10        6          -0.011728118   -0.006267598   -0.002374411
     11        6          -0.006086174    0.002506048   -0.000316172
     12        6           0.001794565    0.000589600    0.000311377
     13        6          -0.001627596   -0.002638733   -0.000526004
     14        6           0.000157097    0.002504702    0.000386038
     15        1           0.000641282    0.000793075    0.000025479
     16        1           0.000574573   -0.001150149   -0.000276444
     17        1          -0.001738944   -0.000195544    0.002539419
     18        7           0.003648328   -0.001744943   -0.001758297
     19        7           0.001087690    0.001258206   -0.000045343
     20        8          -0.005970161    0.006196363    0.000704728
     21        8           0.007482490    0.002073894    0.000156769
     22        8           0.006350581   -0.004848588   -0.000386455
     23        8          -0.039715913    0.024178731    0.008557734
     24        6           0.000890711    0.002409946   -0.000733419
     25        1          -0.000772026    0.000069944   -0.000193022
     26        1          -0.001425066   -0.000439268    0.001080875
     27        1           0.000989771    0.000007404    0.000085750
     28        6          -0.000444955   -0.001932652   -0.000668796
     29        1          -0.000688658    0.000383256    0.000984565
     30        1          -0.000461305    0.000393030   -0.000495301
     31        1           0.000939814   -0.000353978   -0.000021157
     32        6          -0.009912390    0.002479663   -0.001717000
     33        6           0.033541313   -0.002971800   -0.002235890
     34       16           0.002941512   -0.002088236   -0.000622358
     35        6          -0.002194518   -0.008043121   -0.001265065
     36        1           0.015352470   -0.014113350   -0.004811801
     37        6           0.002026084    0.000937242    0.000577307
     38        8          -0.001588469   -0.001956979    0.001164047
     39        6          -0.000921113   -0.001058364   -0.001299099
     40        6          -0.001083480    0.003225808    0.000923693
     41        6          -0.000300892   -0.000174378    0.000408260
     42       16           0.000417680   -0.000526956   -0.000765839
     43        1          -0.000338467   -0.000639086   -0.000056001
     44        1           0.000855867   -0.001348968    0.000831673
     45        1           0.000859474    0.000047927   -0.001604836
     46        6          -0.001157581   -0.000256628    0.000108050
     47        8           0.002408043    0.002127596   -0.000028564
     48        6          -0.000784878   -0.000022101    0.000130721
     49        1          -0.000167358    0.001009495    0.000401878
     50        6           0.001436385   -0.002785894   -0.000343745
     51        1          -0.001132830   -0.000021326    0.000327186
     52        1          -0.001280914    0.000916990   -0.000457836
     53        1           0.000291718    0.000395777    0.000074410
     54        1          -0.000743052    0.000362651    0.000584211
 -------------------------------------------------------------------
 Cartesian Forces:  Max     0.039715913 RMS     0.005557741

 GradGradGradGradGradGradGradGradGradGradGradGradGradGradGradGradGradGrad
 Berny optimization.
 FormGI is forming the generalized inverse of G from B-inverse, IUseBI=4.
 Internal  Forces:  Max     0.136932581 RMS     0.016193853
 Search for a local minimum.
 Step number   1 out of a maximum of  307
 All quantities printed in internal units (Hartrees-Bohrs-Radians)
 Mixed Optimization -- RFO/linear search
 Second derivative matrix not updated -- first step.
 ITU=  0
     Eigenvalues ---    0.01155   0.01172   0.01239   0.01297   0.01362
     Eigenvalues ---    0.01386   0.01397   0.01410   0.01452   0.01469
     Eigenvalues ---    0.01512   0.01544   0.01567   0.01592   0.01614
     Eigenvalues ---    0.01651   0.01679   0.01692   0.01710   0.01719
     Eigenvalues ---    0.01721   0.01763   0.01799   0.01845   0.01977
     Eigenvalues ---    0.02039   0.02046   0.02078   0.02086   0.02098
     Eigenvalues ---    0.02133   0.02149   0.02162   0.02177   0.02197
     Eigenvalues ---    0.02251   0.04601   0.04620   0.07665   0.07667
     Eigenvalues ---    0.10063   0.10067   0.10634   0.10637   0.15983
     Eigenvalues ---    0.15999   0.15999   0.16000   0.16000   0.16000
     Eigenvalues ---    0.16000   0.16000   0.16000   0.16000   0.16000
     Eigenvalues ---    0.16000   0.16000   0.16000   0.16000   0.16000
     Eigenvalues ---    0.16000   0.16000   0.22530   0.22583   0.23517
     Eigenvalues ---    0.23582   0.24513   0.24747   0.24865   0.24906
     Eigenvalues ---    0.24952   0.24985   0.24986   0.24988   0.24992
     Eigenvalues ---    0.24994   0.24996   0.24997   0.24998   0.24998
     Eigenvalues ---    0.25000   0.25000   0.25000   0.25000   0.25000
     Eigenvalues ---    0.25000   0.25000   0.25000   0.25000   0.25000
     Eigenvalues ---    0.28820   0.28921   0.30100   0.32136   0.32582
     Eigenvalues ---    0.32774   0.33104   0.33787   0.33980   0.34040
     Eigenvalues ---    0.34051   0.34131   0.34353   0.34466   0.34577
     Eigenvalues ---    0.34629   0.34693   0.34840   0.34930   0.35198
     Eigenvalues ---    0.35218   0.35468   0.35553   0.35582   0.35807
     Eigenvalues ---    0.35882   0.36078   0.36083   0.36249   0.36393
     Eigenvalues ---    0.36662   0.39348   0.40155   0.40194   0.40651
     Eigenvalues ---    0.40750   0.41524   0.41731   0.41993   0.42300
     Eigenvalues ---    0.42695   0.43455   0.43902   0.44092   0.44594
     Eigenvalues ---    0.44599   0.45014   0.45405   0.46251   0.47305
     Eigenvalues ---    0.47574   0.49309   0.49603   0.52959   0.53116
     Eigenvalues ---    0.93281   0.93432   0.93989   0.945851000.00000
     Eigenvalues --- 1000.000001000.000001000.000001000.000001000.00000
     Eigenvalues --- 1000.000001000.000001000.000001000.000001000.00000
     Eigenvalues --- 1000.000001000.000001000.000001000.000001000.00000
     Eigenvalues --- 1000.000001000.000001000.000001000.000001000.00000
     Eigenvalues --- 1000.000001000.000001000.000001000.000001000.00000
     Eigenvalues --- 1000.000001000.000001000.000001000.000001000.00000
     Eigenvalues --- 1000.000001000.000001000.000001000.000001000.00000
     Eigenvalues --- 1000.000001000.000001000.000001000.000001000.00000
     Eigenvalues --- 1000.000001000.000001000.000001000.000001000.00000
     Eigenvalues --- 1000.000001000.000001000.000001000.000001000.00000
     Eigenvalues --- 1000.000001000.000001000.000001000.000001000.00000
     Eigenvalues --- 1000.000001000.000001000.000001000.000001000.00000
     Eigenvalues --- 1000.000001000.000001000.000001000.000001000.00000
     Eigenvalues --- 1000.000001000.000001000.000001000.000001000.00000
     Eigenvalues --- 1000.000001000.000001000.000001000.000001000.00000
     Eigenvalues --- 1000.000001000.000001000.000001000.000001000.00000
     Eigenvalues --- 1000.000001000.000001000.000001000.000001000.00000
     Eigenvalues --- 1000.000001000.000001000.000001000.000001000.00000
     Eigenvalues --- 1000.000001000.000001000.000001000.000001000.00000
     Eigenvalues --- 1000.000001000.000001000.000001000.000001000.00000
     Eigenvalues --- 1000.000001000.000001000.000001000.000001000.00000
     Eigenvalues --- 1000.000001000.000001000.000001000.000001000.00000
     Eigenvalues --- 1000.000001000.000001000.000001000.000001000.00000
     Eigenvalues --- 1000.000001000.000001000.000001000.000001000.00000
     Eigenvalues --- 1000.000001000.000001000.000001000.000001000.00000
     Eigenvalues --- 1000.000001000.000001000.000001000.000001000.00000
     Eigenvalues --- 1000.000001000.000001000.000001000.000001000.00000
     Eigenvalues --- 1000.000001000.000001000.000001000.000001000.00000
     Eigenvalues --- 1000.000001000.000001000.000001000.000001000.00000
     Eigenvalues --- 1000.000001000.00000
 RFO step:  Lambda=-1.74688667D-01 EMin= 1.15532237D-02
 Linear search not attempted -- first point.
 Maximum step size (   0.300) exceeded in Quadratic search.
    -- Step size scaled by   0.477
 Iteration  1 RMS(Cart)=  0.30085312 RMS(Int)=  0.00748388
 Iteration  2 RMS(Cart)=  0.11000987 RMS(Int)=  0.00075148
 Iteration  3 RMS(Cart)=  0.00257884 RMS(Int)=  0.00005760
 Iteration  4 RMS(Cart)=  0.00000046 RMS(Int)=  0.00005760
 Iteration  1 RMS(Cart)=  0.00000785 RMS(Int)=  0.00000553
 Iteration  2 RMS(Cart)=  0.00000454 RMS(Int)=  0.00000616
 Iteration  3 RMS(Cart)=  0.00000266 RMS(Int)=  0.00000701
 Iteration  4 RMS(Cart)=  0.00000157 RMS(Int)=  0.00000764
 Iteration  5 RMS(Cart)=  0.00000094 RMS(Int)=  0.00000805
 Variable       Old X    -DE/DX   Delta X   Delta X   Delta X     New X
                                 (Linear)    (Quad)   (Total)
    R1        2.80935  -0.00001   0.00000  -0.00039  -0.00038   2.80897
    R2        2.64584  -0.00606   0.00000  -0.00473  -0.00472   2.64112
    R3        2.31147  -0.00863   0.00000  -0.00369  -0.00369   2.30778
    R4        2.67311  -0.01503   0.00000  -0.01380  -0.01389   2.65922
    R5        2.59267  -0.02270   0.00000  -0.01815  -0.01819   2.57449
    R6        2.66894   0.00275   0.00000   0.00227   0.00225   2.67120
    R7        2.69164   0.00612   0.00000   0.00658   0.00656   2.69820
    R8        2.81049  -0.00079   0.00000  -0.00035  -0.00036   2.81013
    R9        2.62173  -0.00917   0.00000  -0.00760  -0.00763   2.61409
   R10        2.65570  -0.00577   0.00000  -0.00428  -0.00427   2.65143
   R11        2.30889  -0.00775   0.00000  -0.00330  -0.00330   2.30559
   R12        2.70248   0.00245   0.00000   0.00115   0.00120   2.70368
   R13        2.04786  -0.00144   0.00000  -0.00130  -0.00130   2.04656
   R14        2.70495   0.03718   0.00000   0.03494   0.03509   2.74004
   R15        2.68322   0.01028   0.00000   0.01009   0.01012   2.69333
   R16        2.68655   0.07272   0.00000   0.06002   0.06011   2.74666
   R17        2.81233   0.02665   0.00000   0.02578   0.02590   2.83823
   R18        2.76359   0.03437   0.00000   0.03029   0.03029   2.79389
   R19        2.66221  -0.00777   0.00000  -0.00701  -0.00701   2.65520
   R20        2.31391  -0.02565   0.00000  -0.01104  -0.01104   2.30287
   R21        2.79415  -0.01897   0.00000  -0.01829  -0.01841   2.77574
   R22        2.63842  -0.02064   0.00000  -0.01711  -0.01722   2.62119
   R23        2.31456  -0.00796   0.00000  -0.00343  -0.00343   2.31114
   R24        2.62448  -0.00166   0.00000  -0.00120  -0.00119   2.62329
   R25        2.64561  -0.01452   0.00000  -0.01186  -0.01190   2.63371
   R26        2.04921  -0.00124   0.00000  -0.00111  -0.00111   2.04810
   R27        2.04741  -0.00086   0.00000  -0.00077  -0.00077   2.04664
   R28        2.77259   0.00193   0.00000   0.00172   0.00172   2.77432
   R29        2.77252   0.00162   0.00000   0.00145   0.00145   2.77397
   R30        2.06176  -0.00056   0.00000  -0.00052  -0.00052   2.06124
   R31        2.06551  -0.00176   0.00000  -0.00162  -0.00162   2.06390
   R32        2.05322  -0.00084   0.00000  -0.00076  -0.00076   2.05246
   R33        2.06368  -0.00125   0.00000  -0.00114  -0.00114   2.06253
   R34        2.06281  -0.00076   0.00000  -0.00070  -0.00070   2.06212
   R35        2.05355  -0.00090   0.00000  -0.00081  -0.00081   2.05274
   R36        2.61070   0.01469   0.00000   0.01107   0.01110   2.62180
   R37        3.33333   0.01074   0.00000   0.01161   0.01164   3.34498
   R38        2.66260  -0.00062   0.00000  -0.00054  -0.00055   2.66205
   R39        2.03694  -0.01973   0.00000  -0.01752  -0.01752   2.01942
   R40        3.30392  -0.01003   0.00000  -0.01043  -0.01045   3.29347
   R41        2.64282  -0.01133   0.00000  -0.00910  -0.00914   2.63368
   R42        2.56992  -0.00128   0.00000  -0.00086  -0.00086   2.56906
   R43        2.71344  -0.00151   0.00000  -0.00125  -0.00125   2.71219
   R44        2.69266   0.00107   0.00000   0.00086   0.00086   2.69352
   R45        2.63379  -0.00099   0.00000  -0.00073  -0.00073   2.63306
   R46        3.32835  -0.00059   0.00000  -0.00055  -0.00055   3.32780
   R47        2.05936  -0.00063   0.00000  -0.00058  -0.00058   2.05878
   R48        2.07262  -0.00170   0.00000  -0.00158  -0.00158   2.07104
   R49        2.07244  -0.00179   0.00000  -0.00166  -0.00166   2.07079
   R50        2.69007  -0.00199   0.00000  -0.00163  -0.00163   2.68843
   R51        2.56845  -0.00218   0.00000  -0.00148  -0.00148   2.56698
   R52        3.26238  -0.00150   0.00000  -0.00141  -0.00141   3.26098
   R53        2.58646  -0.00102   0.00000  -0.00073  -0.00073   2.58573
   R54        2.04384  -0.00106   0.00000  -0.00095  -0.00095   2.04289
   R55        2.68932   0.00095   0.00000   0.00076   0.00076   2.69008
   R56        2.04266  -0.00115   0.00000  -0.00103  -0.00103   2.04163
   R57        2.07364  -0.00155   0.00000  -0.00144  -0.00144   2.07221
   R58        2.05789  -0.00046   0.00000  -0.00042  -0.00042   2.05747
   R59        2.07110  -0.00078   0.00000  -0.00072  -0.00072   2.07038
    A1        2.03797   0.00149   0.00000   0.00060   0.00059   2.03856
    A2        2.14521  -0.00100   0.00000  -0.00058  -0.00058   2.14463
    A3        2.10001  -0.00049   0.00000  -0.00001  -0.00001   2.10000
    A4        2.10395   0.00757   0.00000   0.01012   0.01016   2.11411
    A5        2.08282  -0.00938   0.00000  -0.00733  -0.00726   2.07556
    A6        2.09624   0.00180   0.00000  -0.00281  -0.00291   2.09333
    A7        2.10093  -0.00997   0.00000  -0.01235  -0.01233   2.08859
    A8        2.07104   0.00038   0.00000  -0.00139  -0.00151   2.06954
    A9        2.11118   0.00960   0.00000   0.01375   0.01384   2.12502
   A10        2.10296   0.00518   0.00000   0.00639   0.00637   2.10934
   A11        2.09911   0.00369   0.00000   0.00358   0.00354   2.10265
   A12        2.08110  -0.00887   0.00000  -0.00996  -0.00991   2.07119
   A13        2.03739   0.00035   0.00000   0.00077   0.00075   2.03814
   A14        2.12972   0.00033   0.00000   0.00018   0.00019   2.12991
   A15        2.11607  -0.00068   0.00000  -0.00095  -0.00094   2.11513
   A16        2.15098   0.03064   0.00000   0.03304   0.03308   2.18406
   A17        2.04399  -0.01660   0.00000  -0.01835  -0.01836   2.02563
   A18        2.08722  -0.01398   0.00000  -0.01464  -0.01466   2.07256
   A19        2.11101   0.01340   0.00000   0.01581   0.01573   2.12674
   A20        2.04385  -0.02437   0.00000  -0.02918  -0.02919   2.01465
   A21        2.12832   0.01097   0.00000   0.01338   0.01347   2.14179
   A22        2.08678  -0.02697   0.00000  -0.02608  -0.02604   2.06074
   A23        2.04738  -0.04415   0.00000  -0.04790  -0.04770   1.99968
   A24        2.14662   0.07129   0.00000   0.07415   0.07392   2.22054
   A25        2.04892  -0.01936   0.00000  -0.01886  -0.01867   2.03025
   A26        2.00754  -0.11764   0.00000  -0.13364  -0.13372   1.87382
   A27        2.22643   0.13693   0.00000   0.15245   0.15235   2.37878
   A28        2.06022   0.02067   0.00000   0.02443   0.02458   2.08480
   A29        2.17370   0.03531   0.00000   0.03906   0.03898   2.21268
   A30        2.04919  -0.05600   0.00000  -0.06343  -0.06352   1.98567
   A31        2.01621  -0.00582   0.00000  -0.00893  -0.00916   2.00704
   A32        2.14188   0.00378   0.00000   0.00545   0.00556   2.14744
   A33        2.12500   0.00202   0.00000   0.00346   0.00358   2.12857
   A34        2.10943   0.00882   0.00000   0.01047   0.01034   2.11977
   A35        2.11468   0.01247   0.00000   0.01560   0.01568   2.13036
   A36        2.05896  -0.02128   0.00000  -0.02606  -0.02601   2.03295
   A37        2.11176   0.00307   0.00000   0.00348   0.00343   2.11519
   A38        2.05670  -0.00109   0.00000  -0.00109  -0.00107   2.05563
   A39        2.11471  -0.00199   0.00000  -0.00238  -0.00236   2.11235
   A40        2.08567  -0.00445   0.00000  -0.00719  -0.00728   2.07839
   A41        2.07549   0.00278   0.00000   0.00439   0.00444   2.07993
   A42        2.12199   0.00167   0.00000   0.00280   0.00285   2.12484
   A43        2.20043   0.00946   0.00000   0.00824   0.00816   2.20859
   A44        2.02023  -0.00379   0.00000  -0.00307  -0.00303   2.01720
   A45        2.06252  -0.00567   0.00000  -0.00517  -0.00513   2.05739
   A46        2.18316  -0.00461   0.00000  -0.00553  -0.00553   2.17762
   A47        2.02959   0.00247   0.00000   0.00294   0.00295   2.03254
[...]
 Alpha  occ. eigenvalues --   -0.48160  -0.47025  -0.46462  -0.46111  -0.45978
 Alpha  occ. eigenvalues --   -0.45698  -0.44704  -0.44224  -0.43941  -0.43131
 Alpha  occ. eigenvalues --   -0.43041  -0.42683  -0.42400  -0.42021  -0.41855
 Alpha  occ. eigenvalues --   -0.41565  -0.41034  -0.40939  -0.40279  -0.39877
 Alpha  occ. eigenvalues --   -0.39354  -0.39185  -0.38919  -0.37793  -0.37337
 Alpha  occ. eigenvalues --   -0.36678  -0.36256  -0.34717  -0.34346  -0.33701
 Alpha  occ. eigenvalues --   -0.33503  -0.31777  -0.30763  -0.30437  -0.29601
 Alpha  occ. eigenvalues --   -0.29133  -0.28527  -0.28494  -0.27702  -0.27220
 Alpha  occ. eigenvalues --   -0.26005  -0.25029  -0.24923  -0.19795
 Alpha virt. eigenvalues --   -0.12745  -0.07917  -0.06252  -0.04214  -0.03568
 Alpha virt. eigenvalues --   -0.00842  -0.00424  -0.00316  -0.00084   0.00382
 Alpha virt. eigenvalues --    0.00893   0.01321   0.01419   0.01859   0.01929
 Alpha virt. eigenvalues --    0.02053   0.02183   0.02554   0.02793   0.03184
 Alpha virt. eigenvalues --    0.03583   0.03724   0.03914   0.04229   0.04405
 Alpha virt. eigenvalues --    0.04686   0.04980   0.05085   0.05531   0.05860
 Alpha virt. eigenvalues --    0.06180   0.06429   0.06548   0.06835   0.06911
 Alpha virt. eigenvalues --    0.07138   0.07474   0.07790   0.07850   0.08144
 Alpha virt. eigenvalues --    0.08327   0.08534   0.08761   0.09265   0.09592
 Alpha virt. eigenvalues --    0.09832   0.09957   0.10301   0.10419   0.10772
 Alpha virt. eigenvalues --    0.10865   0.11258   0.11588   0.11842   0.12219
 Alpha virt. eigenvalues --    0.12347   0.12670   0.12907   0.13105   0.13372
 Alpha virt. eigenvalues --    0.13477   0.13760   0.13846   0.14207   0.14387
 Alpha virt. eigenvalues --    0.14728   0.14875   0.15194   0.15360   0.15436
 Alpha virt. eigenvalues --    0.15628   0.15868   0.15926   0.16271   0.16361
 Alpha virt. eigenvalues --    0.16557   0.16860   0.17343   0.17380   0.17698
 Alpha virt. eigenvalues --    0.17833   0.18103   0.18391   0.18460   0.18775
 Alpha virt. eigenvalues --    0.18841   0.19208   0.19443   0.19523   0.19763
 Alpha virt. eigenvalues --    0.19841   0.20002   0.20188   0.20393   0.20500
 Alpha virt. eigenvalues --    0.20734   0.20833   0.20906   0.21446   0.21832
 Alpha virt. eigenvalues --    0.21890   0.21997   0.22352   0.22496   0.22709
 Alpha virt. eigenvalues --    0.22779   0.22970   0.23177   0.23486   0.23806
 Alpha virt. eigenvalues --    0.23885   0.24051   0.24292   0.24399   0.24649
 Alpha virt. eigenvalues --    0.24879   0.24996   0.25112   0.25458   0.25538
 Alpha virt. eigenvalues --    0.25789   0.26033   0.26095   0.26192   0.26508
 Alpha virt. eigenvalues --    0.26638   0.26950   0.27092   0.27250   0.27409
 Alpha virt. eigenvalues --    0.27741   0.27837   0.27981   0.28522   0.28547
 Alpha virt. eigenvalues --    0.28665   0.28764   0.29142   0.29373   0.29509
 Alpha virt. eigenvalues --    0.29673   0.30006   0.30288   0.30396   0.30655
 Alpha virt. eigenvalues --    0.31489   0.31652   0.31720   0.32298   0.32449
 Alpha virt. eigenvalues --    0.32615   0.32700   0.32995   0.33395   0.33727
 Alpha virt. eigenvalues --    0.33903   0.34049   0.34435   0.34763   0.34932
 Alpha virt. eigenvalues --    0.35144   0.35454   0.35732   0.36325   0.36412
 Alpha virt. eigenvalues --    0.36907   0.37268   0.37658   0.37770   0.38128
 Alpha virt. eigenvalues --    0.38601   0.38823   0.39044   0.39395   0.39984
 Alpha virt. eigenvalues --    0.40210   0.40766   0.41217   0.41320   0.42208
 Alpha virt. eigenvalues --    0.42415   0.42665   0.42885   0.43477   0.43842
 Alpha virt. eigenvalues --    0.43861   0.44381   0.44739   0.45294   0.45511
 Alpha virt. eigenvalues --    0.45978   0.46210   0.46719   0.46862   0.47104
 Alpha virt. eigenvalues --    0.47654   0.48260   0.48582   0.49168   0.49476
 Alpha virt. eigenvalues --    0.49576   0.50298   0.50523   0.50757   0.51563
 Alpha virt. eigenvalues --    0.51935   0.52550   0.53192   0.53398   0.53956
 Alpha virt. eigenvalues --    0.54235   0.54596   0.54890   0.55179   0.55964
 Alpha virt. eigenvalues --    0.56261   0.56460   0.56644   0.56907   0.56958
 Alpha virt. eigenvalues --    0.57592   0.58156   0.58601   0.59177   0.59269
 Alpha virt. eigenvalues --    0.59989   0.60162   0.60902   0.61150   0.61349
 Alpha virt. eigenvalues --    0.61470   0.61890   0.61966   0.62469   0.63178
 Alpha virt. eigenvalues --    0.63425   0.63897   0.64316   0.64809   0.65137
 Alpha virt. eigenvalues --    0.65398   0.65573   0.65889   0.65976   0.66096
 Alpha virt. eigenvalues --    0.66525   0.66764   0.67283   0.67696   0.68615
 Alpha virt. eigenvalues --    0.69126   0.69353   0.69566   0.70169   0.70324
 Alpha virt. eigenvalues --    0.70646   0.71231   0.71810   0.72161   0.72336
 Alpha virt. eigenvalues --    0.72463   0.72882   0.73430   0.73860   0.74356
 Alpha virt. eigenvalues --    0.74515   0.74798   0.75155   0.75323   0.75771
 Alpha virt. eigenvalues --    0.76042   0.76275   0.76713   0.77378   0.77617
 Alpha virt. eigenvalues --    0.77793   0.78078   0.78551   0.78689   0.79282
 Alpha virt. eigenvalues --    0.79932   0.80493   0.80967   0.81515   0.82097
 Alpha virt. eigenvalues --    0.83048   0.83677   0.84196   0.84316   0.85716
 Alpha virt. eigenvalues --    0.86594   0.86811   0.87567   0.88379   0.88964
 Alpha virt. eigenvalues --    0.89242   0.89810   0.90168   0.90376   0.91319
 Alpha virt. eigenvalues --    0.91637   0.92341   0.92565   0.92984   0.93287
 Alpha virt. eigenvalues --    0.93559   0.93906   0.94560   0.95056   0.95552
 Alpha virt. eigenvalues --    0.95743   0.96032   0.96394   0.97033   0.97363
 Alpha virt. eigenvalues --    0.97619   0.98731   0.99283   0.99888   1.00266
 Alpha virt. eigenvalues --    1.00348   1.01052   1.01468   1.01866   1.02680
 Alpha virt. eigenvalues --    1.03094   1.03390   1.03725   1.04132   1.04627
 Alpha virt. eigenvalues --    1.05180   1.05466   1.05575   1.06066   1.06468
 Alpha virt. eigenvalues --    1.06864   1.07324   1.07532   1.08285   1.08618
 Alpha virt. eigenvalues --    1.08868   1.09271   1.09811   1.10601   1.10837
 Alpha virt. eigenvalues --    1.11727   1.12723   1.14224   1.14324   1.15523
 Alpha virt. eigenvalues --    1.15710   1.16131   1.16474   1.17308   1.18473
 Alpha virt. eigenvalues --    1.18629   1.18978   1.19413   1.20792   1.21549
 Alpha virt. eigenvalues --    1.22639   1.23233   1.23812   1.24525   1.24924
 Alpha virt. eigenvalues --    1.25623   1.25997   1.26349   1.27022   1.27267
 Alpha virt. eigenvalues --    1.28474   1.28601   1.29933   1.30307   1.31282
 Alpha virt. eigenvalues --    1.32379   1.32741   1.33591   1.34571   1.34690
 Alpha virt. eigenvalues --    1.34904   1.35862   1.37246   1.38087   1.38820
 Alpha virt. eigenvalues --    1.39820   1.40999   1.41392   1.41835   1.42449
 Alpha virt. eigenvalues --    1.42997   1.43377   1.43685   1.43823   1.44795
 Alpha virt. eigenvalues --    1.44921   1.45397   1.45677   1.46046   1.46420
 Alpha virt. eigenvalues --    1.46616   1.47128   1.47977   1.48906   1.49333
 Alpha virt. eigenvalues --    1.49642   1.50964   1.51581   1.51869   1.52246
 Alpha virt. eigenvalues --    1.53104   1.53539   1.53844   1.54698   1.55044
 Alpha virt. eigenvalues --    1.55351   1.56013   1.56128   1.56482   1.56867
 Alpha virt. eigenvalues --    1.57821   1.58178   1.60358   1.60924   1.61242
 Alpha virt. eigenvalues --    1.62319   1.62785   1.62983   1.63607   1.63974
 Alpha virt. eigenvalues --    1.65095   1.65793   1.66146   1.66561   1.67443
 Alpha virt. eigenvalues --    1.68269   1.68446   1.68675   1.69564   1.69919
 Alpha virt. eigenvalues --    1.70328   1.70608   1.71530   1.72185   1.72380
 Alpha virt. eigenvalues --    1.72506   1.73478   1.74424   1.75036   1.75840
 Alpha virt. eigenvalues --    1.75859   1.76935   1.77655   1.78124   1.78653
 Alpha virt. eigenvalues --    1.78907   1.79549   1.79811   1.80968   1.82471
 Alpha virt. eigenvalues --    1.83624   1.84345   1.84964   1.85088   1.85903
 Alpha virt. eigenvalues --    1.86984   1.87284   1.87513   1.88355   1.89108
 Alpha virt. eigenvalues --    1.89404   1.90023   1.90795   1.91090   1.91830
 Alpha virt. eigenvalues --    1.92398   1.93333   1.93676   1.94742   1.95000
 Alpha virt. eigenvalues --    1.95990   1.96808   1.97120   1.97915   1.98906
 Alpha virt. eigenvalues --    1.99923   2.00070   2.00859   2.01858   2.02118
 Alpha virt. eigenvalues --    2.02474   2.03488   2.03587   2.04768   2.04873
 Alpha virt. eigenvalues --    2.05347   2.06321   2.06617   2.07330   2.07992
 Alpha virt. eigenvalues --    2.08409   2.10026   2.10665   2.10816   2.11617
 Alpha virt. eigenvalues --    2.12272   2.13271   2.14097   2.14786   2.15425
 Alpha virt. eigenvalues --    2.16179   2.17102   2.18194   2.18685   2.19284
 Alpha virt. eigenvalues --    2.20306   2.21036   2.21566   2.21699   2.22747
 Alpha virt. eigenvalues --    2.24745   2.25563   2.26755   2.27449   2.29581
 Alpha virt. eigenvalues --    2.31458   2.33102   2.34039   2.36034   2.37672
 Alpha virt. eigenvalues --    2.38502   2.39385   2.40226   2.41577   2.42720
 Alpha virt. eigenvalues --    2.43201   2.43827   2.44530   2.45121   2.46019
 Alpha virt. eigenvalues --    2.46836   2.47856   2.48034   2.49275   2.49494
 Alpha virt. eigenvalues --    2.50771   2.51297   2.51911   2.52572   2.52705
 Alpha virt. eigenvalues --    2.52962   2.53589   2.54037   2.54548   2.56038
 Alpha virt. eigenvalues --    2.56742   2.57990   2.58860   2.59315   2.60401
 Alpha virt. eigenvalues --    2.62831   2.63249   2.63728   2.65153   2.66662
 Alpha virt. eigenvalues --    2.66882   2.67423   2.67565   2.67852   2.68413
 Alpha virt. eigenvalues --    2.69344   2.70011   2.70767   2.71468   2.71793
 Alpha virt. eigenvalues --    2.72082   2.73391   2.73620   2.74059   2.75716
 Alpha virt. eigenvalues --    2.76415   2.76846   2.77488   2.78237   2.80947
 Alpha virt. eigenvalues --    2.81241   2.81977   2.82839   2.83044   2.83426
 Alpha virt. eigenvalues --    2.84319   2.84639   2.84948   2.86231   2.86925
 Alpha virt. eigenvalues --    2.88264   2.88853   2.89225   2.89736   2.90303
 Alpha virt. eigenvalues --    2.91472   2.91976   2.92806   2.93250   2.94606
 Alpha virt. eigenvalues --    2.95271   2.95940   2.96318   2.97513   2.99714
 Alpha virt. eigenvalues --    3.00665   3.02054   3.02695   3.03685   3.04779
 Alpha virt. eigenvalues --    3.05405   3.06804   3.07658   3.09439   3.10856
 Alpha virt. eigenvalues --    3.11823   3.13142   3.14388   3.14854   3.15472
 Alpha virt. eigenvalues --    3.16961   3.17655   3.18185   3.20593   3.21832
 Alpha virt. eigenvalues --    3.22937   3.23514   3.23949   3.25041   3.26598
 Alpha virt. eigenvalues --    3.28761   3.29302   3.30572   3.32064   3.34763
 Alpha virt. eigenvalues --    3.35255   3.35469   3.35832   3.36334   3.37730
 Alpha virt. eigenvalues --    3.39349   3.40133   3.40804   3.43080   3.44009
 Alpha virt. eigenvalues --    3.44855   3.45463   3.46175   3.48772   3.49796
 Alpha virt. eigenvalues --    3.51686   3.53563   3.55586   3.58562   3.60691
 Alpha virt. eigenvalues --    3.60925   3.62902   3.65794   3.66418   3.67355
 Alpha virt. eigenvalues --    3.69278   3.70307   3.72709   3.73614   3.75724
 Alpha virt. eigenvalues --    3.76215   3.76944   3.80537   3.82650   3.84499
 Alpha virt. eigenvalues --    3.85716   3.86421   3.90043   3.91371   3.93126
 Alpha virt. eigenvalues --    3.93552   3.95252   3.97022   4.01886   4.02665
 Alpha virt. eigenvalues --    4.04171   4.07814   4.09972   4.13012   4.14254
 Alpha virt. eigenvalues --    4.20230   4.23762   4.25551   4.27530   4.35686
 Alpha virt. eigenvalues --    4.40095   4.41062   4.53292   4.71166   4.84408
 Alpha virt. eigenvalues --    4.85093   4.87561   4.90434   5.00745   5.02276
 Alpha virt. eigenvalues --    5.04240   5.05778   5.06532   5.09907   5.11736
 Alpha virt. eigenvalues --    5.13189   5.25378   5.27362   5.29502   5.31596
 Alpha virt. eigenvalues --    5.41636   5.43004   5.76150   5.76668   5.80224
 Alpha virt. eigenvalues --    5.80534   5.82726   5.85222   8.02316   8.04718
 Alpha virt. eigenvalues --   17.28440  17.30636  17.49360  17.52132  17.57647
 Alpha virt. eigenvalues --   17.64003  23.49103  23.56404  23.71169  23.78577
 Alpha virt. eigenvalues --   23.82874  23.83499  23.84938  23.86861  23.87564
 Alpha virt. eigenvalues --   23.88688  23.89191  23.90167  23.91194  23.93307
 Alpha virt. eigenvalues --   23.94930  23.95205  23.96386  23.97893  24.01233
 Alpha virt. eigenvalues --   24.01682  24.02284  24.05787  24.12345  24.14273
 Alpha virt. eigenvalues --   24.15270  24.15319  35.56283  35.58827  49.95683
 Alpha virt. eigenvalues --   49.97659  50.02782  50.04354  50.06400  50.07783
 Alpha virt. eigenvalues --  189.19656 189.22704
          Condensed to atoms (all electrons):
 Mulliken charges:
               1
     1  C    0.270831
     2  C    0.075420
     3  C    0.246054
     4  C    0.256924
     5  C    0.240826
     6  C    0.211427
     7  C    0.255677
     8  C    0.277054
     9  C    0.210467
    10  C   -0.769826
    11  C    0.187249
    12  C    0.143230
    13  C   -0.484838
    14  C   -0.604625
    15  H    0.157601
    16  H    0.161106
    17  H    0.164968
    18  N   -0.134684
    19  N   -0.140989
    20  O   -0.286941
    21  O   -0.268332
    22  O   -0.281219
    23  O   -0.259531
    24  C   -0.167787
    25  H    0.169019
    26  H    0.177079
    27  H    0.182823
    28  C   -0.196800
    29  H    0.172420
    30  H    0.173986
    31  H    0.181696
    32  C   -0.120784
    33  C   -0.023873
    34  S   -0.660432
    35  C   -0.675657
    36  H    0.164903
    37  C    0.565192
    38  O   -0.126718
    39  C    0.989025
    40  C   -0.243450
    41  C    0.036470
    42  S   -0.230437
    43  H    0.166199
    44  H    0.161041
    45  H    0.148994
    46  C   -0.558361
    47  O   -0.126632
    48  C   -0.307679
    49  H    0.133945
    50  C   -0.241905
    51  H    0.163743
    52  H    0.146311
    53  H    0.173066
    54  H    0.146752
 Sum of Mulliken charges =  -0.00000
 Mulliken charges with hydrogens summed into heavy atoms:
               1
     1  C    0.270831
     2  C    0.075420
     3  C    0.246054
     4  C    0.256924
     5  C    0.240826
     6  C    0.376394
     7  C    0.255677
     8  C    0.277054
     9  C    0.210467
    10  C   -0.769826
    11  C    0.187249
    12  C    0.143230
    13  C   -0.323732
    14  C   -0.447024
    18  N   -0.134684
    19  N   -0.140989
    20  O   -0.286941
    21  O   -0.268332
    22  O   -0.281219
    23  O   -0.259531
    24  C    0.361134
    28  C    0.331301
    32  C   -0.120784
    33  C    0.141030
    34  S   -0.660432
    35  C   -0.675657
    37  C    0.565192
    38  O   -0.126718
    39  C    0.989025
    40  C    0.232784
    41  C    0.036470
    42  S   -0.230437
    46  C   -0.424416
    47  O   -0.126632
    48  C   -0.143936
    50  C    0.224224
 Electronic spatial extent (au):  <R**2>=          22457.3053
 Charge=              0.0000 electrons
 Dipole moment (field-independent basis, Debye):
    X=              5.8596    Y=             -0.8400    Z=              0.2501  Tot=              5.9248
 Quadrupole moment (field-independent basis, Debye-Ang):
   XX=           -215.4876   YY=           -209.0835   ZZ=           -221.7643
   XY=             -4.9732   XZ=              0.6549   YZ=              8.6393
 Traceless Quadrupole moment (field-independent basis, Debye-Ang):
   XX=             -0.0425   YY=              6.3616   ZZ=             -6.3192
   XY=             -4.9732   XZ=              0.6549   YZ=              8.6393
 Octapole moment (field-independent basis, Debye-Ang**2):
  XXX=            412.6142  YYY=            -19.2681  ZZZ=             -2.3504  XYY=            147.0101
  XXY=            -88.9372  XXZ=            -18.4692  XZZ=             -7.9695  YZZ=              0.4566
  YYZ=             -1.2441  XYZ=             30.3514
 Hexadecapole moment (field-independent basis, Debye-Ang**3):
 XXXX=         -20704.1321 YYYY=          -7904.2677 ZZZZ=           -484.9806 XXXY=           -557.4303
 XXXZ=             -4.4277 YYYX=            201.3772 YYYZ=             93.0880 ZZZX=              0.8599
 ZZZY=             -0.2780 XXYY=          -5011.4826 XXZZ=          -3761.1339 YYZZ=          -1437.3164
 XXYZ=            175.1483 YYXZ=             12.7420 ZZXY=             15.2789
 N-N= 4.086779900142D+03 E-N=-1.371358303630D+04  KE= 2.352056163095D+03
 Unable to Open any file for archive entry.
 1\1\GINC-CX3-7-3\FOpt\RB3LYP\6-311+G(d,p)\C26H18N2O6S2\NS5018\29-Nov-2
 020\0\\# opt=modredundant b3lyp/6-311+g(d,p)\\NDI_10.pdb\\0,1\C,-2.511
 5355596,-2.915191922,-0.5776490116\C,-2.240469542,-1.4681988718,-0.367
 1970688\C,-3.2812834638,-0.5859796106,0.0013060469\C,-4.5933013972,-1.
 0670676843,0.1742223386\C,-4.9020559514,-2.5079681279,-0.0274369266\C,
 -0.96804959,-0.9989802632,-0.5250042804\C,-2.9725103591,0.7935876885,0
 .1597094374\C,-1.6330467842,1.2805457693,-0.0042731667\C,-0.582324021,
 0.3662269045,-0.3240806007\C,-1.4616675524,2.7555422544,-0.0098355018\
 C,-3.8518503499,3.1117056584,0.6112964219\C,-4.0518324263,1.6542077652
 ,0.487259258\C,-5.3366296878,1.1603535786,0.674183792\C,-5.6165740493,
 -0.198047887,0.521147307\H,-6.617960034,-0.5862664989,0.6538947881\H,-
 6.1176717251,1.8650051684,0.9301298596\H,-0.2200249863,-1.7395183536,-
 0.7740847329\N,-2.5707173668,3.5640902846,0.302377387\N,-3.8339918807,
 -3.3372988177,-0.4112950023\O,-1.6397927741,-3.7156749611,-0.864314439
 1\O,-6.0226357113,-2.9565846823,0.1248449556\O,-4.7444410008,3.8774821
 859,0.9348242826\O,-0.4130557067,3.3287262859,-0.2628605738\C,-2.32607
 25625,5.0133959189,0.3127823263\H,-1.5571541679,5.2561294134,1.0467590
 417\H,-1.9770306602,5.3354929371,-0.6681222588\H,-3.2606895772,5.50283
 54325,0.5674747423\C,-4.0938452775,-4.7686056595,-0.6204495573\H,-3.78
 98787912,-5.0519351222,-1.6281375573\H,-3.5155566461,-5.3577098626,0.0
 921134675\H,-5.1563811125,-4.9391009296,-0.4794657104\C,0.8621066583,0
 .5834778076,-0.3360345163\C,1.6633669615,1.6239611257,0.1082144101\S,1
 .8880855242,-0.6649219231,-1.0662231013\C,3.0359573045,1.4130919463,-0
 .0897412276\H,1.2641252753,2.5104470689,0.5622102595\C,3.3540463369,0.
 2145601395,-0.7336069765\O,4.0383885123,2.2629538518,0.2518306751\C,4.
 6539334835,-0.2675281293,-1.0973668695\C,3.7004758587,3.4307068175,0.9
 989940871\C,4.9687751995,-1.4676601484,-1.7308757778\S,6.1347020048,0.
 6306769043,-0.7800177042\H,4.6409321979,3.9459882268,1.1851735672\H,3.
 0309396167,4.081901621,0.4293362623\H,3.2331293561,3.1627908665,1.9516
 812122\C,6.3590569034,-1.6598108741,-1.9534309182\O,3.971973463,-2.322
 5636989,-2.0653472916\C,7.1000236199,-0.6071137473,-1.49096149\H,6.789
 7853095,-2.5284381216,-2.4293355836\C,4.3131245379,-3.5296025511,-2.74
 36550939\H,8.1724478119,-0.4913485921,-1.5295245685\H,4.9647343178,-4.
 155841316,-2.1263798629\H,3.3723041085,-4.04760263,-2.918789922\H,4.79
 86163531,-3.3173226351,-3.7012686336\\Version=ES64L-G16RevC.01\State=1
 -A\HF=-2359.3356324\RMSD=3.326e-09\RMSF=1.415e-03\Dipole=2.2820014,-0.
 369139,-0.2996179\Quadrupole=-0.209504,1.6012254,-1.3917214,-2.5621311
 ,-0.4333702,8.2681283\PG=C01 [X(C26H18N2O6S2)]\\@
 The archive entry for this job was punched.


 THOSE WHO ASPIRE NOT TO GUESS AND DIVINE,
 BUT TO DISCOVER AND KNOW, WHO PROPOSE NOT TO DEVISE 
 MIMIC AND FABULOUS WORLDS OF THEIR OWN, BUT TO 
 EXAMINE AND DISSECT THE NATURE OF THIS VERY WORLD 
 ITSELF, MUST GO TO THE FACTS THEMSELVES FOR EVERYTHING.

                               -- FRANCIS BACON, 1620
 Job cpu time:       2 days  3 hours 21 minutes  4.2 seconds.
 Elapsed time:       0 days  6 hours 28 minutes 20.3 seconds.
 File lengths (MBytes):  RWF=    496 Int=      0 D2E=      0 Chk=     61 Scr=      1
 Normal termination of Gaussian 16 at Sun Nov 29 15:27:43 2020.
