 Entering Gaussian System, Link 0=g16
 Input=NDI_-170.gjf
 Output=NDI_-170.log
 Initial command:
 /apps/gaussian/g16-c01-avx/g16/l1.exe "/tmp/pbs.2625174[2].pbs/Gau-2212948.inp" -scrdir="/tmp/pbs.2625174[2].pbs/"
 Entering Link 1 = /apps/gaussian/g16-c01-avx/g16/l1.exe PID=   2212952.
  
 Copyright (c) 1988-2019, Gaussian, Inc.  All Rights Reserved.
  
 This is part of the Gaussian(R) 16 program.  It is based on
 the Gaussian(R) 09 system (copyright 2009, Gaussian, Inc.),
 the Gaussian(R) 03 system (copyright 2003, Gaussian, Inc.),
 the Gaussian(R) 98 system (copyright 1998, Gaussian, Inc.),
 the Gaussian(R) 94 system (copyright 1995, Gaussian, Inc.),
 the Gaussian 92(TM) system (copyright 1992, Gaussian, Inc.),
 the Gaussian 90(TM) system (copyright 1990, Gaussian, Inc.),
 the Gaussian 88(TM) system (copyright 1988, Gaussian, Inc.),
 the Gaussian 86(TM) system (copyright 1986, Carnegie Mellon
 University), and the Gaussian 82(TM) system (copyright 1983,
 Carnegie Mellon University). Gaussian is a federally registered
 trademark of Gaussian, Inc.
  
 This software contains proprietary and confidential information,
 including trade secrets, belonging to Gaussian, Inc.
  
 This software is provided under written license and may be
 used, copied, transmitted, or stored only in accord with that
 written license.
  
 The following legend is applicable only to US Government
 contracts under FAR:
  
                    RESTRICTED RIGHTS LEGEND
  
 Use, reproduction and disclosure by the US Government is
 subject to restrictions as set forth in subparagraphs (a)
 and (c) of the Commercial Computer Software - Restricted
 Rights clause in FAR 52.227-19.
  
 Gaussian, Inc.
 340 Quinnipiac St., Bldg. 40, Wallingford CT 06492
  
  
 ---------------------------------------------------------------
 Warning -- This program may not be used in any manner that
 competes with the business of Gaussian, Inc. or will provide
 assistance to any competitor of Gaussian, Inc.  The licensee
 of this program is prohibited from giving any competitor of
 Gaussian, Inc. access to this program.  By using this program,
 the user acknowledges that Gaussian, Inc. is engaged in the
 business of creating and licensing software in the field of
 computational chemistry and represents and warrants to the
 licensee that it is not a competitor of Gaussian, Inc. and that
 it will not use this program in any manner prohibited above.
 ---------------------------------------------------------------
  

 Cite this work as:
 Gaussian 16, Revision C.01,
 M. J. Frisch, G. W. Trucks, H. B. Schlegel, G. E. Scuseria, 
 M. A. Robb, J. R. Cheeseman, G. Scalmani, V. Barone, 
 G. A. Petersson, H. Nakatsuji, X. Li, M. Caricato, A. V. Marenich, 
 J. Bloino, B. G. Janesko, R. Gomperts, B. Mennucci, H. P. Hratchian, 
 J. V. Ortiz, A. F. Izmaylov, J. L. Sonnenberg, D. Williams-Young, 
 F. Ding, F. Lipparini, F. Egidi, J. Goings, B. Peng, A. Petrone, 
 T. Henderson, D. Ranasinghe, V. G. Zakrzewski, J. Gao, N. Rega, 
 G. Zheng, W. Liang, M. Hada, M. Ehara, K. Toyota, R. Fukuda, 
 J. Hasegawa, M. Ishida, T. Nakajima, Y. Honda, O. Kitao, H. Nakai, 
 T. Vreven, K. Throssell, J. A. Montgomery, Jr., J. E. Peralta, 
 F. Ogliaro, M. J. Bearpark, J. J. Heyd, E. N. Brothers, K. N. Kudin, 
 V. N. Staroverov, T. A. Keith, R. Kobayashi, J. Normand, 
 K. Raghavachari, A. P. Rendell, J. C. Burant, S. S. Iyengar, 
 J. Tomasi, M. Cossi, J. M. Millam, M. Klene, C. Adamo, R. Cammi, 
 J. W. Ochterski, R. L. Martin, K. Morokuma, O. Farkas, 
 J. B. Foresman, and D. J. Fox, Gaussian, Inc., Wallingford CT, 2019.
 
 ******************************************
 Gaussian 16:  ES64L-G16RevC.01  3-Jul-2019
                29-Nov-2020 
 ******************************************
 %mem=10GB
 %nprocshared=8
 Will use up to    8 processors via shared memory.
 -------------------------------------
 # opt=modredundant b3lyp/6-311+g(d,p)
 -------------------------------------
 1/18=120,19=15,26=3,38=1/1,3;
 2/9=110,12=2,17=6,18=5,40=1/2;
 3/5=4,6=6,7=111,11=2,25=1,30=1,71=1,74=-5/1,2,3;
 4//1;
 5/5=2,38=5/2;
 6/7=2,8=2,9=2,10=2,28=1/1;
 7//1,2,3,16;
 1/18=20,19=15,26=3/3(2);
 2/9=110/2;
 99//99;
 2/9=110/2;
 3/5=4,6=6,7=111,11=2,25=1,30=1,71=1,74=-5/1,2,3;
 4/5=5,16=3,69=1/1;
 5/5=2,38=5/2;
 7//1,2,3,16;
 1/18=20,19=15,26=3/3(-5);
 2/9=110/2;
 6/7=2,8=2,9=2,10=2,19=2,28=1/1;
 99/9=1/99;
 ------------
 NDI_-170.pdb
 ------------
 Symbolic Z-matrix:
 Charge =  0 Multiplicity = 1
 C                    -2.563    -2.994    -0.409 
 C                    -2.257    -1.551    -0.224 
 C                    -3.301    -0.607    -0.083 
 C                    -4.65     -1.024    -0.115 
 C                    -4.992    -2.459    -0.304 
 C                    -0.949    -1.137    -0.215 
 C                    -2.962     0.764     0.102 
 C                    -1.595     1.188     0.123 
 C                    -0.561     0.232    -0.072 
 C                    -1.328     2.616     0.446 
 C                    -3.777     3.115     0.508 
 C                    -4.035     1.679     0.268 
 C                    -5.356     1.252     0.23 
 C                    -5.672    -0.098     0.036 
 H                    -6.699    -0.442     0.008 
 H                    -6.133     1.997     0.361 
 H                    -0.19     -1.895    -0.369 
 N                    -2.432     3.476     0.608 
 N                    -3.916    -3.353    -0.438 
 O                    -1.695    -3.847    -0.532 
 O                    -6.149    -2.85     -0.34 
 O                    -4.676     3.938     0.629 
 O                    -0.212     3.097     0.596 
 C                    -2.111     4.875     0.912 
 H                    -1.54      4.931     1.84 
 H                    -1.5       5.299     0.111 
 H                    -3.05      5.414     1.003 
 C                    -4.206    -4.779    -0.625 
 H                    -3.759    -5.126    -1.559 
 H                    -3.775    -5.355     0.196 
 H                    -5.286    -4.897    -0.649 
 C                     0.876     0.482    -0.178 
 C                     1.914    -0.353    -0.544 
 S                     1.511     2.034     0.368 
 C                     3.187     0.234    -0.398 
 H                     1.757    -1.353    -0.914 
 C                     3.166     1.548     0.082 
 O                     4.383    -0.349    -0.674 
 C                     4.284     2.422     0.295 
 C                     4.362    -1.632    -1.294 
 C                     4.264     3.723     0.795 
 S                     5.947     1.96     -0.06 
 H                     5.402    -1.882    -1.502 
 H                     3.933    -2.388    -0.625 
 H                     3.792    -1.61     -2.231 
 C                     5.548     4.331     0.889 
 O                     3.075     4.285     1.135 
 C                     6.543     3.494     0.462 
 H                     5.725     5.334     1.254 
 C                     3.089     5.602     1.675 
 H                     7.604     3.698     0.428 
 H                     3.495     6.323     0.955 
 H                     2.05      5.85      1.888 
 H                     3.672     5.645     2.602 
 
 The following ModRedundant input section has been read:
 D       8       9      32      33 F                                           
 D      33      35      38      40 F                                           
 D      46      41      47      50 F                                           
 D      10      18      24      25 F                                           
 D       1      19      28      30 F                                           
 D       9       8      10      23 F                                           
 D      20       1       2       6 F                                           
 

 GradGradGradGradGradGradGradGradGradGradGradGradGradGradGradGradGradGrad
 Berny optimization.
 Initialization pass.
                           ----------------------------
                           !    Initial Parameters    !
                           ! (Angstroms and Degrees)  !
 --------------------------                            --------------------------
 ! Name  Definition              Value          Derivative Info.                !
 --------------------------------------------------------------------------------
 ! R1    R(1,2)                  1.4866         estimate D2E/DX2                !
 ! R2    R(1,19)                 1.4001         estimate D2E/DX2                !
 ! R3    R(1,20)                 1.2232         estimate D2E/DX2                !
 ! R4    R(2,3)                  1.4146         estimate D2E/DX2                !
 ! R5    R(2,6)                  1.372          estimate D2E/DX2                !
 ! R6    R(3,4)                  1.4123         estimate D2E/DX2                !
 ! R7    R(3,7)                  1.4244         estimate D2E/DX2                !
 ! R8    R(4,5)                  1.4872         estimate D2E/DX2                !
 ! R9    R(4,14)                 1.3874         estimate D2E/DX2                !
 ! R10   R(5,19)                 1.4053         estimate D2E/DX2                !
 ! R11   R(5,21)                 1.2218         estimate D2E/DX2                !
 ! R12   R(6,9)                  1.4301         estimate D2E/DX2                !
 ! R13   R(6,17)                 1.0837         estimate D2E/DX2                !
 ! R14   R(7,8)                  1.4314         estimate D2E/DX2                !
 ! R15   R(7,12)                 1.4199         estimate D2E/DX2                !
 ! R16   R(8,9)                  1.4217         estimate D2E/DX2                !
 ! R17   R(8,10)                 1.4882         estimate D2E/DX2                !
 ! R18   R(9,32)                 1.4624         estimate D2E/DX2                !
 ! R19   R(10,18)                1.4088         estimate D2E/DX2                !
 ! R20   R(10,23)                1.2245         estimate D2E/DX2                !
 ! R21   R(11,12)                1.4786         estimate D2E/DX2                !
 ! R22   R(11,18)                1.3962         estimate D2E/DX2                !
 ! R23   R(11,22)                1.2248         estimate D2E/DX2                !
 ! R24   R(12,13)                1.3888         estimate D2E/DX2                !
 ! R25   R(13,14)                1.4            estimate D2E/DX2                !
 ! R26   R(13,16)                1.0844         estimate D2E/DX2                !
 ! R27   R(14,15)                1.0834         estimate D2E/DX2                !
 ! R28   R(18,24)                1.4672         estimate D2E/DX2                !
 ! R29   R(19,28)                1.4672         estimate D2E/DX2                !
 ! R30   R(24,25)                1.091          estimate D2E/DX2                !
 ! R31   R(24,26)                1.093          estimate D2E/DX2                !
 ! R32   R(24,27)                1.0865         estimate D2E/DX2                !
 ! R33   R(28,29)                1.0921         estimate D2E/DX2                !
 ! R34   R(28,30)                1.0916         estimate D2E/DX2                !
 ! R35   R(28,31)                1.0867         estimate D2E/DX2                !
 ! R36   R(32,33)                1.3815         estimate D2E/DX2                !
 ! R37   R(32,34)                1.7635         estimate D2E/DX2                !
 ! R38   R(33,35)                1.4094         estimate D2E/DX2                !
 ! R39   R(33,36)                1.0778         estimate D2E/DX2                !
 ! R40   R(34,37)                1.7484         estimate D2E/DX2                !
 ! R41   R(35,37)                1.3991         estimate D2E/DX2                !
 ! R42   R(35,38)                1.3589         estimate D2E/DX2                !
 ! R43   R(37,39)                1.435          estimate D2E/DX2                !
 ! R44   R(38,40)                1.4251         estimate D2E/DX2                !
 ! R45   R(39,41)                1.3939         estimate D2E/DX2                !
 ! R46   R(39,42)                1.7621         estimate D2E/DX2                !
 ! R47   R(40,43)                1.0897         estimate D2E/DX2                !
 ! R48   R(40,44)                1.0969         estimate D2E/DX2                !
 ! R49   R(40,45)                1.097          estimate D2E/DX2                !
 ! R50   R(41,46)                1.4238         estimate D2E/DX2                !
 ! R51   R(41,47)                1.3584         estimate D2E/DX2                !
 ! R52   R(42,48)                1.7265         estimate D2E/DX2                !
 ! R53   R(46,48)                1.3685         estimate D2E/DX2                !
 ! R54   R(46,49)                1.0819         estimate D2E/DX2                !
 ! R55   R(47,50)                1.4235         estimate D2E/DX2                !
 ! R56   R(48,51)                1.081          estimate D2E/DX2                !
 ! R57   R(50,52)                1.0968         estimate D2E/DX2                !
 ! R58   R(50,53)                1.0892         estimate D2E/DX2                !
 ! R59   R(50,54)                1.0959         estimate D2E/DX2                !
 ! A1    A(2,1,19)             116.767          estimate D2E/DX2                !
 ! A2    A(2,1,20)             122.9113         estimate D2E/DX2                !
 ! A3    A(19,1,20)            120.3217         estimate D2E/DX2                !
 ! A4    A(1,2,3)              120.5473         estimate D2E/DX2                !
 ! A5    A(1,2,6)              119.3369         estimate D2E/DX2                !
 ! A6    A(3,2,6)              120.1056         estimate D2E/DX2                !
 ! A7    A(2,3,4)              120.3743         estimate D2E/DX2                !
 ! A8    A(2,3,7)              118.662          estimate D2E/DX2                !
 ! A9    A(4,3,7)              120.9617         estimate D2E/DX2                !
 ! A10   A(3,4,5)              120.4909         estimate D2E/DX2                !
 ! A11   A(3,4,14)             120.2702         estimate D2E/DX2                !
 ! A12   A(5,4,14)             119.2382         estimate D2E/DX2                !
 ! A13   A(4,5,19)             116.7341         estimate D2E/DX2                !
 ! A14   A(4,5,21)             122.024          estimate D2E/DX2                !
 ! A15   A(19,5,21)            121.2418         estimate D2E/DX2                !
 ! A16   A(2,6,9)              123.2421         estimate D2E/DX2                !
 ! A17   A(2,6,17)             117.1119         estimate D2E/DX2                !
 ! A18   A(9,6,17)             119.589          estimate D2E/DX2                !
 ! A19   A(3,7,8)              120.9519         estimate D2E/DX2                !
 ! A20   A(3,7,12)             117.1037         estimate D2E/DX2                !
 ! A21   A(8,7,12)             121.944          estimate D2E/DX2                !
 ! A22   A(7,8,9)              119.5639         estimate D2E/DX2                !
 ! A23   A(7,8,10)             117.3064         estimate D2E/DX2                !
 ! A24   A(9,8,10)             122.9922         estimate D2E/DX2                !
 ! A25   A(6,9,8)              117.3944         estimate D2E/DX2                !
 ! A26   A(6,9,32)             115.0236         estimate D2E/DX2                !
 ! A27   A(8,9,32)             127.5648         estimate D2E/DX2                !
 ! A28   A(8,10,18)            118.042          estimate D2E/DX2                !
 ! A29   A(8,10,23)            124.5436         estimate D2E/DX2                !
 ! A30   A(18,10,23)           117.4097         estimate D2E/DX2                !
 ! A31   A(12,11,18)           115.5202         estimate D2E/DX2                !
 ! A32   A(12,11,22)           122.7205         estimate D2E/DX2                !
 ! A33   A(18,11,22)           121.7534         estimate D2E/DX2                !
 ! A34   A(7,12,11)            120.8614         estimate D2E/DX2                !
 ! A35   A(7,12,13)            121.162          estimate D2E/DX2                !
 ! A36   A(11,12,13)           117.9699         estimate D2E/DX2                !
 ! A37   A(12,13,14)           120.9948         estimate D2E/DX2                !
 ! A38   A(12,13,16)           117.8401         estimate D2E/DX2                !
 ! A39   A(14,13,16)           121.1642         estimate D2E/DX2                !
 ! A40   A(4,14,13)            119.5003         estimate D2E/DX2                !
 ! A41   A(4,14,15)            118.9169         estimate D2E/DX2                !
 ! A42   A(13,14,15)           121.5811         estimate D2E/DX2                !
 ! A43   A(10,18,11)           126.0753         estimate D2E/DX2                !
 ! A44   A(10,18,24)           115.7508         estimate D2E/DX2                !
 ! A45   A(11,18,24)           118.1737         estimate D2E/DX2                !
 ! A46   A(1,19,5)             125.0856         estimate D2E/DX2                !
 ! A47   A(1,19,28)            116.2868         estimate D2E/DX2                !
 ! A48   A(5,19,28)            118.6276         estimate D2E/DX2                !
 ! A49   A(18,24,25)           109.8574         estimate D2E/DX2                !
 ! A50   A(18,24,26)           109.8979         estimate D2E/DX2                !
 ! A51   A(18,24,27)           107.5355         estimate D2E/DX2                !
 ! A52   A(25,24,26)           108.1108         estimate D2E/DX2                !
 ! A53   A(25,24,27)           110.8301         estimate D2E/DX2                !
 ! A54   A(26,24,27)           110.6124         estimate D2E/DX2                !
 ! A55   A(19,28,29)           109.6906         estimate D2E/DX2                !
 ! A56   A(19,28,30)           109.8136         estimate D2E/DX2                !
 ! A57   A(19,28,31)           107.7461         estimate D2E/DX2                !
 ! A58   A(29,28,30)           108.2991         estimate D2E/DX2                !
 ! A59   A(29,28,31)           110.6959         estimate D2E/DX2                !
 ! A60   A(30,28,31)           110.5924         estimate D2E/DX2                !
 ! A61   A(9,32,33)            130.8557         estimate D2E/DX2                !
 ! A62   A(9,32,34)            118.8039         estimate D2E/DX2                !
 ! A63   A(33,32,34)           110.0835         estimate D2E/DX2                !
 ! A64   A(32,33,35)           113.5442         estimate D2E/DX2                !
 ! A65   A(32,33,36)           122.8403         estimate D2E/DX2                !
 ! A66   A(35,33,36)           123.613          estimate D2E/DX2                !
 ! A67   A(32,34,37)            92.6116         estimate D2E/DX2                !
 ! A68   A(33,35,37)           114.4024         estimate D2E/DX2                !
 ! A69   A(33,35,38)           126.5299         estimate D2E/DX2                !
 ! A70   A(37,35,38)           119.0676         estimate D2E/DX2                !
 ! A71   A(34,37,35)           109.3529         estimate D2E/DX2                !
 ! A72   A(34,37,39)           122.949          estimate D2E/DX2                !
 ! A73   A(35,37,39)           127.6805         estimate D2E/DX2                !
 ! A74   A(35,38,40)           117.4937         estimate D2E/DX2                !
 ! A75   A(37,39,41)           127.6281         estimate D2E/DX2                !
 ! A76   A(37,39,42)           123.0719         estimate D2E/DX2                !
 ! A77   A(41,39,42)           109.3            estimate D2E/DX2                !
 ! A78   A(38,40,43)           105.9937         estimate D2E/DX2                !
 ! A79   A(38,40,44)           111.1567         estimate D2E/DX2                !
 ! A80   A(38,40,45)           111.1746         estimate D2E/DX2                !
 ! A81   A(43,40,44)           109.3647         estimate D2E/DX2                !
 ! A82   A(43,40,45)           109.7236         estimate D2E/DX2                !
 ! A83   A(44,40,45)           109.3638         estimate D2E/DX2                !
 ! A84   A(39,41,46)           114.1614         estimate D2E/DX2                !
 ! A85   A(39,41,47)           119.2417         estimate D2E/DX2                !
 ! A86   A(46,41,47)           126.5966         estimate D2E/DX2                !
 ! A87   A(39,42,48)            91.8296         estimate D2E/DX2                !
 ! A88   A(41,46,48)           111.9562         estimate D2E/DX2                !
 ! A89   A(41,46,49)           124.4501         estimate D2E/DX2                !
 ! A90   A(48,46,49)           123.5936         estimate D2E/DX2                !
 ! A91   A(41,47,50)           117.9777         estimate D2E/DX2                !
 ! A92   A(42,48,46)           112.7527         estimate D2E/DX2                !
 ! A93   A(42,48,51)           119.8013         estimate D2E/DX2                !
 ! A94   A(46,48,51)           127.4458         estimate D2E/DX2                !
 ! A95   A(47,50,52)           111.2718         estimate D2E/DX2                !
 ! A96   A(47,50,53)           105.9893         estimate D2E/DX2                !
 ! A97   A(47,50,54)           111.2483         estimate D2E/DX2                !
 ! A98   A(52,50,53)           109.3772         estimate D2E/DX2                !
 ! A99   A(52,50,54)           109.4231         estimate D2E/DX2                !
 ! A100  A(53,50,54)           109.4569         estimate D2E/DX2                !
 ! D1    D(19,1,2,3)             0.1578         estimate D2E/DX2                !
 ! D2    D(19,1,2,6)          -178.6792         estimate D2E/DX2                !
 ! D3    D(20,1,2,3)          -179.8231         estimate D2E/DX2                !
 ! D4    D(20,1,2,6)             1.3399         Frozen                          !
 ! D5    D(2,1,19,5)            -0.124          estimate D2E/DX2                !
 ! D6    D(2,1,19,28)          179.8267         estimate D2E/DX2                !
 ! D7    D(20,1,19,5)          179.8575         estimate D2E/DX2                !
 ! D8    D(20,1,19,28)          -0.1919         estimate D2E/DX2                !
 ! D9    D(1,2,3,4)              0.0571         estimate D2E/DX2                !
 ! D10   D(1,2,3,7)            179.5453         estimate D2E/DX2                !
 ! D11   D(6,2,3,4)            178.8851         estimate D2E/DX2                !
 ! D12   D(6,2,3,7)             -1.6266         estimate D2E/DX2                !
 ! D13   D(1,2,6,9)            178.625          estimate D2E/DX2                !
 ! D14   D(1,2,6,17)             1.3881         estimate D2E/DX2                !
 ! D15   D(3,2,6,9)             -0.2173         estimate D2E/DX2                !
 ! D16   D(3,2,6,17)          -177.4541         estimate D2E/DX2                !
 ! D17   D(2,3,4,5)             -0.3074         estimate D2E/DX2                !
 ! D18   D(2,3,4,14)           179.3968         estimate D2E/DX2                !
 ! D19   D(7,3,4,5)           -179.7837         estimate D2E/DX2                !
 ! D20   D(7,3,4,14)            -0.0795         estimate D2E/DX2                !
 ! D21   D(2,3,7,8)              1.0523         estimate D2E/DX2                !
 ! D22   D(2,3,7,12)          -178.712          estimate D2E/DX2                !
 ! D23   D(4,3,7,8)           -179.4626         estimate D2E/DX2                !
 ! D24   D(4,3,7,12)             0.7731         estimate D2E/DX2                !
 ! D25   D(3,4,5,19)             0.3343         estimate D2E/DX2                !
 ! D26   D(3,4,5,21)          -179.7799         estimate D2E/DX2                !
 ! D27   D(14,4,5,19)         -179.3729         estimate D2E/DX2                !
 ! D28   D(14,4,5,21)            0.5129         estimate D2E/DX2                !
 ! D29   D(3,4,14,13)           -0.4559         estimate D2E/DX2                !
 ! D30   D(3,4,14,15)         -179.9937         estimate D2E/DX2                !
 ! D31   D(5,4,14,13)          179.252          estimate D2E/DX2                !
 ! D32   D(5,4,14,15)           -0.2858         estimate D2E/DX2                !
 ! D33   D(4,5,19,1)            -0.1141         estimate D2E/DX2                !
 ! D34   D(4,5,19,28)          179.9364         estimate D2E/DX2                !
 ! D35   D(21,5,19,1)          179.9992         estimate D2E/DX2                !
 ! D36   D(21,5,19,28)           0.0496         estimate D2E/DX2                !
 ! D37   D(2,6,9,8)              2.5984         estimate D2E/DX2                !
 ! D38   D(2,6,9,32)          -176.0103         estimate D2E/DX2                !
 ! D39   D(17,6,9,8)           179.77           estimate D2E/DX2                !
 ! D40   D(17,6,9,32)            1.1613         estimate D2E/DX2                !
 ! D41   D(3,7,8,9)              1.3551         estimate D2E/DX2                !
 ! D42   D(3,7,8,10)          -174.5099         estimate D2E/DX2                !
 ! D43   D(12,7,8,9)          -178.8921         estimate D2E/DX2                !
 ! D44   D(12,7,8,10)            5.2428         estimate D2E/DX2                !
 ! D45   D(3,7,12,11)          178.0768         estimate D2E/DX2                !
 ! D46   D(3,7,12,13)           -0.9621         estimate D2E/DX2                !
 ! D47   D(8,7,12,11)           -1.685          estimate D2E/DX2                !
 ! D48   D(8,7,12,13)          179.2761         estimate D2E/DX2                !
 ! D49   D(7,8,9,6)             -3.0809         estimate D2E/DX2                !
 ! D50   D(7,8,9,32)           175.3285         estimate D2E/DX2                !
 ! D51   D(10,8,9,6)           172.5381         estimate D2E/DX2                !
 ! D52   D(10,8,9,32)           -9.0525         estimate D2E/DX2                !
 ! D53   D(7,8,10,18)           -4.7549         estimate D2E/DX2                !
 ! D54   D(7,8,10,23)          174.4235         estimate D2E/DX2                !
 ! D55   D(9,8,10,18)          179.5335         estimate D2E/DX2                !
 ! D56   D(9,8,10,23)           -1.2882         Frozen                          !
 ! D57   D(6,9,32,33)            8.4459         estimate D2E/DX2                !
 ! D58   D(6,9,32,34)         -165.0954         estimate D2E/DX2                !
 ! D59   D(8,9,32,33)         -169.9956         Frozen                          !
 ! D60   D(8,9,32,34)           16.4631         estimate D2E/DX2                !
 ! D61   D(8,10,18,11)           0.7189         estimate D2E/DX2                !
 ! D62   D(8,10,18,24)        -179.4089         estimate D2E/DX2                !
 ! D63   D(23,10,18,11)       -178.5188         estimate D2E/DX2                !
 ! D64   D(23,10,18,24)          1.3535         estimate D2E/DX2                !
 ! D65   D(18,11,12,7)          -2.3856         estimate D2E/DX2                !
 ! D66   D(18,11,12,13)        176.6833         estimate D2E/DX2                !
 ! D67   D(22,11,12,7)         178.4862         estimate D2E/DX2                !
 ! D68   D(22,11,12,13)         -2.445          estimate D2E/DX2                !
 ! D69   D(12,11,18,10)          2.8444         estimate D2E/DX2                !
 ! D70   D(12,11,18,24)       -177.0251         estimate D2E/DX2                !
 ! D71   D(22,11,18,10)       -178.0181         estimate D2E/DX2                !
 ! D72   D(22,11,18,24)          2.1124         estimate D2E/DX2                !
 ! D73   D(7,12,13,14)           0.461          estimate D2E/DX2                !
 ! D74   D(7,12,13,16)        -179.8781         estimate D2E/DX2                !
 ! D75   D(11,12,13,14)       -178.6049         estimate D2E/DX2                !
 ! D76   D(11,12,13,16)          1.056          estimate D2E/DX2                !
 ! D77   D(12,13,14,4)           0.2708         estimate D2E/DX2                !
 ! D78   D(12,13,14,15)        179.7958         estimate D2E/DX2                !
 ! D79   D(16,13,14,4)        -179.3788         estimate D2E/DX2                !
 ! D80   D(16,13,14,15)          0.1463         estimate D2E/DX2                !
 ! D81   D(10,18,24,25)        -59.609          Frozen                          !
 ! D82   D(10,18,24,26)         59.2209         estimate D2E/DX2                !
 ! D83   D(10,18,24,27)        179.6858         estimate D2E/DX2                !
 ! D84   D(11,18,24,25)        120.2739         estimate D2E/DX2                !
 ! D85   D(11,18,24,26)       -120.8962         estimate D2E/DX2                !
 ! D86   D(11,18,24,27)         -0.4313         estimate D2E/DX2                !
 ! D87   D(1,19,28,29)         -58.1407         estimate D2E/DX2                !
 ! D88   D(1,19,28,30)          60.7668         Frozen                          !
 ! D89   D(1,19,28,31)        -178.7139         estimate D2E/DX2                !
 ! D90   D(5,19,28,29)         121.8132         estimate D2E/DX2                !
 ! D91   D(5,19,28,30)        -119.2792         estimate D2E/DX2                !
 ! D92   D(5,19,28,31)           1.2401         estimate D2E/DX2                !
 ! D93   D(9,32,33,35)        -174.2423         estimate D2E/DX2                !
 ! D94   D(9,32,33,36)           6.3199         estimate D2E/DX2                !
 ! D95   D(34,32,33,35)         -0.2666         estimate D2E/DX2                !
 ! D96   D(34,32,33,36)       -179.7044         estimate D2E/DX2                !
 ! D97   D(9,32,34,37)         175.3535         estimate D2E/DX2                !
 ! D98   D(33,32,34,37)          0.551          estimate D2E/DX2                !
 ! D99   D(32,33,35,37)         -0.2675         estimate D2E/DX2                !
 ! D100  D(32,33,35,38)        179.7182         estimate D2E/DX2                !
 ! D101  D(36,33,35,37)        179.1653         estimate D2E/DX2                !
 ! D102  D(36,33,35,38)         -0.849          estimate D2E/DX2                !
 ! D103  D(32,34,37,35)         -0.6865         estimate D2E/DX2                !
 ! D104  D(32,34,37,39)        177.8974         estimate D2E/DX2                !
 ! D105  D(33,35,37,34)          0.6704         estimate D2E/DX2                !
 ! D106  D(33,35,37,39)       -177.8281         estimate D2E/DX2                !
 ! D107  D(38,35,37,34)       -179.3165         estimate D2E/DX2                !
 ! D108  D(38,35,37,39)          2.185          estimate D2E/DX2                !
 ! D109  D(33,35,38,40)          6.5588         Frozen                          !
 ! D110  D(37,35,38,40)       -173.4561         estimate D2E/DX2                !
 ! D111  D(34,37,39,41)          2.8944         estimate D2E/DX2                !
 ! D112  D(34,37,39,42)       -177.1928         estimate D2E/DX2                !
 ! D113  D(35,37,39,41)       -178.7939         estimate D2E/DX2                !
 ! D114  D(35,37,39,42)          1.1189         estimate D2E/DX2                !
 ! D115  D(35,38,40,43)        175.4567         estimate D2E/DX2                !
 ! D116  D(35,38,40,44)        -65.8065         estimate D2E/DX2                !
 ! D117  D(35,38,40,45)         56.2789         estimate D2E/DX2                !
 ! D118  D(37,39,41,46)        179.9666         estimate D2E/DX2                !
 ! D119  D(37,39,41,47)         -0.1885         estimate D2E/DX2                !
 ! D120  D(42,39,41,46)          0.044          estimate D2E/DX2                !
 ! D121  D(42,39,41,47)        179.8889         estimate D2E/DX2                !
 ! D122  D(37,39,42,48)       -179.9624         estimate D2E/DX2                !
 ! D123  D(41,39,42,48)         -0.0356         estimate D2E/DX2                !
 ! D124  D(39,41,46,48)         -0.0308         estimate D2E/DX2                !
 ! D125  D(39,41,46,49)       -179.9817         estimate D2E/DX2                !
 ! D126  D(47,41,46,48)       -179.8622         estimate D2E/DX2                !
 ! D127  D(47,41,46,49)          0.1869         estimate D2E/DX2                !
 ! D128  D(39,41,47,50)        178.4134         estimate D2E/DX2                !
 ! D129  D(46,41,47,50)         -1.7629         Frozen                          !
 ! D130  D(39,42,48,46)          0.0194         estimate D2E/DX2                !
 ! D131  D(39,42,48,51)        179.8882         estimate D2E/DX2                !
 ! D132  D(41,46,48,42)          0.0021         estimate D2E/DX2                !
 ! D133  D(41,46,48,51)       -179.8545         estimate D2E/DX2                !
 ! D134  D(49,46,48,42)        179.9535         estimate D2E/DX2                !
 ! D135  D(49,46,48,51)          0.0969         estimate D2E/DX2                !
 ! D136  D(41,47,50,52)         61.9859         estimate D2E/DX2                !
 ! D137  D(41,47,50,53)       -179.2028         estimate D2E/DX2                !
 ! D138  D(41,47,50,54)        -60.3083         estimate D2E/DX2                !
 --------------------------------------------------------------------------------
 Trust Radius=3.00D-01 FncErr=1.00D-07 GrdErr=1.00D-06 EigMax=2.50D+02 EigMin=1.00D-04
 Number of steps in this run=    307 maximum allowed number of steps=    324.
 GradGradGradGradGradGradGradGradGradGradGradGradGradGradGradGradGradGrad

 Stoichiometry    C26H18N2O6S2
 Framework group  C1[X(C26H18N2O6S2)]
 Deg. of freedom   156
 Full point group                 C1      NOp   1
 Largest Abelian subgroup         C1      NOp   1
 Largest concise Abelian subgroup C1      NOp   1
                         Standard orientation:                         
 ---------------------------------------------------------------------
 Center     Atomic      Atomic             Coordinates (Angstroms)
 Number     Number       Type             X           Y           Z
 ---------------------------------------------------------------------
      1          6           0       -3.848283   -2.543364    0.241937
      2          6           0       -2.957510   -1.359419    0.119842
      3          6           0       -3.501942   -0.058947    0.004433
      4          6           0       -4.901310    0.132052    0.004905
      5          6           0       -5.821594   -1.030616    0.119758
      6          6           0       -1.597789   -1.540867    0.095796
      7          6           0       -2.611357    1.047691   -0.100438
      8          6           0       -1.193319    0.852929   -0.112369
      9          6           0       -0.665827   -0.465650   -0.047410
     10          6           0       -0.336896    2.069952   -0.098391
     11          6           0       -2.345670    3.550017   -0.255486
     12          6           0       -3.192895    2.340182   -0.186412
     13          6           0       -4.571372    2.509325   -0.188361
     14          6           0       -5.432793    1.409604   -0.095843
     15          1           0       -6.509429    1.530830   -0.093220
     16          1           0       -4.957447    3.520261   -0.258142
     17          1           0       -1.234689   -2.560709    0.145209
     18          7           0       -0.969759    3.326086   -0.177592
     19          7           0       -5.226863   -2.298907    0.232457
     20          8           0       -3.424437   -3.685923    0.347186
     21          8           0       -7.036194   -0.898058    0.119126
     22          8           0       -2.810280    4.678691   -0.357486
     23          8           0        0.884189    2.058664   -0.008158
     24          6           0       -0.077500    4.490781   -0.173396
     25          1           0        0.512720    4.502173    0.744139
     26          1           0        0.611579    4.434558   -1.019981
     27          1           0       -0.698747    5.379353   -0.244224
     28          6           0       -6.096123   -3.475007    0.349588
     29          1           0       -5.885246   -4.171018   -0.465074
     30          1           0       -5.902834   -3.985286    1.295015
     31          1           0       -7.126086   -3.131462    0.304284
     32          6           0        0.736205   -0.870712   -0.141940
     33          6           0        1.308900   -2.121413   -0.269976
     34         16           0        1.989971    0.349743    0.078523
     35          6           0        2.716474   -2.105944   -0.199911
     36          1           0        0.728749   -3.017449   -0.418616
     37          6           0        3.272353   -0.834603   -0.020671
     38          8           0        3.542594   -3.181200   -0.288412
     39          6           0        4.662947   -0.486605    0.045009
     40          6           0        2.954200   -4.437991   -0.612759
     41          6           0        5.215352    0.777197    0.246634
     42         16           0        5.958977   -1.668123   -0.126343
     43          1           0        3.781725   -5.139530   -0.714787
     44          1           0        2.284330   -4.779394    0.185900
     45          1           0        2.397034   -4.382994   -1.556101
     46          6           0        6.638938    0.795281    0.261902
     47          8           0        4.390178    1.844896    0.402426
     48          6           0        7.168582   -0.452395    0.072944
     49          1           0        7.238216    1.684491    0.405895
     50          6           0        4.982218    3.117231    0.641040
     51          1           0        8.214221   -0.724749    0.042044
     52          1           0        5.613900    3.426353   -0.200683
     53          1           0        4.155028    3.817673    0.748424
     54          1           0        5.577830    3.111915    1.560978
 ---------------------------------------------------------------------
 Rotational constants (GHZ):           0.1746330           0.0586146           0.0441762
 Standard basis: 6-311+G(d,p) (5D, 7F)
 There are   952 symmetry adapted cartesian basis functions of A   symmetry.
 There are   916 symmetry adapted basis functions of A   symmetry.
   916 basis functions,  1468 primitive gaussians,   952 cartesian basis functions
   134 alpha electrons      134 beta electrons
       nuclear repulsion energy      4128.7243660335 Hartrees.
 NAtoms=   54 NActive=   54 NUniq=   54 SFac= 1.00D+00 NAtFMM=   60 NAOKFM=F Big=F
 Integral buffers will be    131072 words long.
 Raffenetti 2 integral format.
 Two-electron integral symmetry is turned on.
 One-electron integrals computed using PRISM.
 NBasis=   916 RedAO= T EigKep=  1.16D-06  NBF=   916
 NBsUse=   901 1.00D-06 EigRej=  6.26D-07 NBFU=   901
 ExpMin= 4.05D-02 ExpMax= 9.34D+04 ExpMxC= 3.17D+03 IAcc=3 IRadAn=         5 AccDes= 0.00D+00
 Harris functional with IExCor=  402 and IRadAn=       5 diagonalized for initial guess.
 HarFok:  IExCor=  402 AccDes= 0.00D+00 IRadAn=         5 IDoV= 1 UseB2=F ITyADJ=14
 ICtDFT=  3500011 ScaDFX=  1.000000  1.000000  1.000000  1.000000
 FoFCou: FMM=F IPFlag=           0 FMFlag=      100000 FMFlg1=           0
         NFxFlg=           0 DoJE=T BraDBF=F KetDBF=T FulRan=T
         wScrn=  0.000000 ICntrl=       500 IOpCl=  0 I1Cent=   200000004 NGrid=           0
         NMat0=    1 NMatS0=      1 NMatT0=    0 NMatD0=    1 NMtDS0=    0 NMtDT0=    0
 Petite list used in FoFCou.
 Requested convergence on RMS density matrix=1.00D-08 within 128 cycles.
 Requested convergence on MAX density matrix=1.00D-06.
 Requested convergence on             energy=1.00D-06.
 No special actions if energy rises.
 SCF Done:  E(RB3LYP) =  -2359.29548561     A.U. after   18 cycles
            NFock= 18  Conv=0.61D-08     -V/T= 2.0030

 **********************************************************************

            Population analysis using the SCF Density.

 **********************************************************************

 Orbital symmetries:
       Occupied  (A) (A) (A) (A) (A) (A) (A) (A) (A) (A) (A) (A)
                 (A) (A) (A) (A) (A) (A) (A) (A) (A) (A) (A) (A)
                 (A) (A) (A) (A) (A) (A) (A) (A) (A) (A) (A) (A)
                 (A) (A) (A) (A) (A) (A) (A) (A) (A) (A) (A) (A)
                 (A) (A) (A) (A) (A) (A) (A) (A) (A) (A) (A) (A)
                 (A) (A) (A) (A) (A) (A) (A) (A) (A) (A) (A) (A)
                 (A) (A) (A) (A) (A) (A) (A) (A) (A) (A) (A) (A)
                 (A) (A) (A) (A) (A) (A) (A) (A) (A) (A) (A) (A)
                 (A) (A) (A) (A) (A) (A) (A) (A) (A) (A) (A) (A)
                 (A) (A) (A) (A) (A) (A) (A) (A) (A) (A) (A) (A)
                 (A) (A) (A) (A) (A) (A) (A) (A) (A) (A) (A) (A)
                 (A) (A)
       Virtual   (A) (A) (A) (A) (A) (A) (A) (A) (A) (A) (A) (A)
                 (A) (A) (A) (A) (A) (A) (A) (A) (A) (A) (A) (A)
                 (A) (A) (A) (A) (A) (A) (A) (A) (A) (A) (A) (A)
                 (A) (A) (A) (A) (A) (A) (A) (A) (A) (A) (A) (A)
                 (A) (A) (A) (A) (A) (A) (A) (A) (A) (A) (A) (A)
                 (A) (A) (A) (A) (A) (A) (A) (A) (A) (A) (A) (A)
                 (A) (A) (A) (A) (A) (A) (A) (A) (A) (A) (A) (A)
                 (A) (A) (A) (A) (A) (A) (A) (A) (A) (A) (A) (A)
                 (A) (A) (A) (A) (A) (A) (A) (A) (A) (A) (A) (A)
                 (A) (A) (A) (A) (A) (A) (A) (A) (A) (A) (A) (A)
                 (A) (A) (A) (A) (A) (A) (A) (A) (A) (A) (A) (A)
                 (A) (A) (A) (A) (A) (A) (A) (A) (A) (A) (A) (A)
                 (A) (A) (A) (A) (A) (A) (A) (A) (A) (A) (A) (A)
                 (A) (A) (A) (A) (A) (A) (A) (A) (A) (A) (A) (A)
                 (A) (A) (A) (A) (A) (A) (A) (A) (A) (A) (A) (A)
                 (A) (A) (A) (A) (A) (A) (A) (A) (A) (A) (A) (A)
                 (A) (A) (A) (A) (A) (A) (A) (A) (A) (A) (A) (A)
                 (A) (A) (A) (A) (A) (A) (A) (A) (A) (A) (A) (A)
                 (A) (A) (A) (A) (A) (A) (A) (A) (A) (A) (A) (A)
                 (A) (A) (A) (A) (A) (A) (A) (A) (A) (A) (A) (A)
                 (A) (A) (A) (A) (A) (A) (A) (A) (A) (A) (A) (A)
                 (A) (A) (A) (A) (A) (A) (A) (A) (A) (A) (A) (A)
                 (A) (A) (A) (A) (A) (A) (A) (A) (A) (A) (A) (A)
                 (A) (A) (A) (A) (A) (A) (A) (A) (A) (A) (A) (A)
                 (A) (A) (A) (A) (A) (A) (A) (A) (A) (A) (A) (A)
                 (A) (A) (A) (A) (A) (A) (A) (A) (A) (A) (A) (A)
                 (A) (A) (A) (A) (A) (A) (A) (A) (A) (A) (A) (A)
                 (A) (A) (A) (A) (A) (A) (A) (A) (A) (A) (A) (A)
                 (A) (A) (A) (A) (A) (A) (A) (A) (A) (A) (A) (A)
                 (A) (A) (A) (A) (A) (A) (A) (A) (A) (A) (A) (A)
                 (A) (A) (A) (A) (A) (A) (A) (A) (A) (A) (A) (A)
                 (A) (A) (A) (A) (A) (A) (A) (A) (A) (A) (A) (A)
                 (A) (A) (A) (A) (A) (A) (A) (A) (A) (A) (A) (A)
                 (A) (A) (A) (A) (A) (A) (A) (A) (A) (A) (A) (A)
                 (A) (A) (A) (A) (A) (A) (A) (A) (A) (A) (A) (A)
                 (A) (A) (A) (A) (A) (A) (A) (A) (A) (A) (A) (A)
                 (A) (A) (A) (A) (A) (A) (A) (A) (A) (A) (A) (A)
                 (A) (A) (A) (A) (A) (A) (A) (A) (A) (A) (A) (A)
                 (A) (A) (A) (A) (A) (A) (A) (A) (A) (A) (A) (A)
                 (A) (A) (A) (A) (A) (A) (A) (A) (A) (A) (A) (A)
                 (A) (A) (A) (A) (A) (A) (A) (A) (A) (A) (A) (A)
                 (A) (A) (A) (A) (A) (A) (A) (A) (A) (A) (A) (A)
                 (A) (A) (A) (A) (A) (A) (A) (A) (A) (A) (A) (A)
                 (A) (A) (A) (A) (A) (A) (A) (A) (A) (A) (A) (A)
                 (A) (A) (A) (A) (A) (A) (A) (A) (A) (A) (A) (A)
                 (A) (A) (A) (A) (A) (A) (A) (A) (A) (A) (A) (A)
                 (A) (A) (A) (A) (A) (A) (A) (A) (A) (A) (A) (A)
                 (A) (A) (A) (A) (A) (A) (A) (A) (A) (A) (A) (A)
                 (A) (A) (A) (A) (A) (A) (A) (A) (A) (A) (A) (A)
                 (A) (A) (A) (A) (A) (A) (A) (A) (A) (A) (A) (A)
                 (A) (A) (A) (A) (A) (A) (A) (A) (A) (A) (A) (A)
                 (A) (A) (A) (A) (A) (A) (A) (A) (A) (A) (A) (A)
                 (A) (A) (A) (A) (A) (A) (A) (A) (A) (A) (A) (A)
                 (A) (A) (A) (A) (A) (A) (A) (A) (A) (A) (A) (A)
                 (A) (A) (A) (A) (A) (A) (A) (A) (A) (A) (A) (A)
                 (A) (A) (A) (A) (A) (A) (A) (A) (A) (A) (A) (A)
                 (A) (A) (A) (A) (A) (A) (A) (A) (A) (A) (A) (A)
                 (A) (A) (A) (A) (A) (A) (A) (A) (A) (A) (A) (A)
                 (A) (A) (A) (A) (A) (A) (A) (A) (A) (A) (A) (A)
                 (A) (A) (A) (A) (A) (A) (A) (A) (A) (A) (A) (A)
                 (A) (A) (A) (A) (A) (A) (A) (A) (A) (A) (A) (A)
                 (A) (A) (A) (A) (A) (A) (A) (A) (A) (A) (A) (A)
                 (A) (A) (A) (A) (A) (A) (A) (A) (A) (A) (A) (A)
                 (A) (A) (A) (A) (A) (A) (A) (A) (A) (A) (A)
 The electronic state is 1-A.
 Alpha  occ. eigenvalues --  -88.88176 -88.86982 -19.16841 -19.16840 -19.13370
 Alpha  occ. eigenvalues --  -19.12398 -19.12332 -19.11567 -14.38622 -14.38572
 Alpha  occ. eigenvalues --  -10.31405 -10.30974 -10.30926 -10.30267 -10.24749
 Alpha  occ. eigenvalues --  -10.24432 -10.24078 -10.23672 -10.23637 -10.22916
 Alpha  occ. eigenvalues --  -10.22572 -10.22363 -10.22296 -10.22257 -10.22058
 Alpha  occ. eigenvalues --  -10.21692 -10.21628 -10.21394 -10.21060 -10.21038
 Alpha  occ. eigenvalues --  -10.20988 -10.20800 -10.20653 -10.20326 -10.19080
 Alpha  occ. eigenvalues --  -10.18909  -7.96727  -7.95433  -5.93032  -5.92648
 Alpha  occ. eigenvalues --   -5.92301  -5.91769  -5.91328  -5.90937  -1.09824
 Alpha  occ. eigenvalues --   -1.08437  -1.08379  -1.08364  -1.06537  -1.06496
 Alpha  occ. eigenvalues --   -0.96297  -0.96119  -0.92209  -0.89780  -0.88478
 Alpha  occ. eigenvalues --   -0.86335  -0.84102  -0.80221  -0.78310  -0.77381
 Alpha  occ. eigenvalues --   -0.76279  -0.75219  -0.75153  -0.72979  -0.72596
 Alpha  occ. eigenvalues --   -0.71832  -0.70327  -0.68719  -0.67206  -0.65914
 Alpha  occ. eigenvalues --   -0.65403  -0.65011  -0.60652  -0.59741  -0.58719
 Alpha  occ. eigenvalues --   -0.57563  -0.56766  -0.56305  -0.55436  -0.54589
 Alpha  occ. eigenvalues --   -0.53734  -0.51816  -0.50936  -0.50228  -0.49781
 Alpha  occ. eigenvalues --   -0.49469  -0.49172  -0.48572  -0.48535  -0.48277
 Alpha  occ. eigenvalues --   -0.48179  -0.47854  -0.46697  -0.46215  -0.46124
 Alpha  occ. eigenvalues --   -0.45486  -0.45058  -0.44390  -0.44220  -0.43762
 Alpha  occ. eigenvalues --   -0.43098  -0.42755  -0.42107  -0.41915  -0.41746
 Alpha  occ. eigenvalues --   -0.41472  -0.41276  -0.41220  -0.40726  -0.40055
 Alpha  occ. eigenvalues --   -0.39644  -0.38948  -0.38625  -0.37452  -0.36888
 Alpha  occ. eigenvalues --   -0.36319  -0.35642  -0.34216  -0.33957  -0.33635
 Alpha  occ. eigenvalues --   -0.33384  -0.32251  -0.30569  -0.30043  -0.29481
 Alpha  occ. eigenvalues --   -0.29258  -0.29251  -0.28571  -0.27238  -0.26184
 Alpha  occ. eigenvalues --   -0.25109  -0.24549  -0.23591  -0.19292
 Alpha virt. eigenvalues --   -0.12874  -0.07380  -0.06695  -0.04698  -0.03641
 Alpha virt. eigenvalues --   -0.00904  -0.00476  -0.00385  -0.00058   0.00534
 Alpha virt. eigenvalues --    0.00949   0.00965   0.01257   0.01964   0.01976
 Alpha virt. eigenvalues --    0.02212   0.02530   0.02796   0.03055   0.03468
 Alpha virt. eigenvalues --    0.03580   0.03783   0.03988   0.04581   0.04775
 Alpha virt. eigenvalues --    0.04863   0.05024   0.05442   0.05657   0.06093
 Alpha virt. eigenvalues --    0.06124   0.06500   0.06831   0.06943   0.07043
 Alpha virt. eigenvalues --    0.07623   0.07651   0.07918   0.08397   0.08456
 Alpha virt. eigenvalues --    0.08669   0.08952   0.09197   0.09392   0.09704
 Alpha virt. eigenvalues --    0.09886   0.10098   0.10201   0.10548   0.10727
 Alpha virt. eigenvalues --    0.10970   0.11444   0.11590   0.12034   0.12491
 Alpha virt. eigenvalues --    0.12737   0.12762   0.13139   0.13283   0.13539
 Alpha virt. eigenvalues --    0.13652   0.13786   0.14038   0.14334   0.14426
 Alpha virt. eigenvalues --    0.14750   0.14867   0.14980   0.15251   0.15438
 Alpha virt. eigenvalues --    0.15572   0.15848   0.16109   0.16245   0.16658
 Alpha virt. eigenvalues --    0.16912   0.17139   0.17398   0.17452   0.17765
 Alpha virt. eigenvalues --    0.17884   0.18060   0.18273   0.18509   0.18812
 Alpha virt. eigenvalues --    0.19045   0.19283   0.19360   0.19561   0.19748
 Alpha virt. eigenvalues --    0.19930   0.20054   0.20151   0.20574   0.20588
 Alpha virt. eigenvalues --    0.20838   0.21043   0.21146   0.21356   0.21470
 Alpha virt. eigenvalues --    0.21640   0.21834   0.22380   0.22545   0.22622
 Alpha virt. eigenvalues --    0.22811   0.22915   0.23252   0.23699   0.23823
 Alpha virt. eigenvalues --    0.23847   0.24201   0.24425   0.24518   0.24635
 Alpha virt. eigenvalues --    0.24885   0.25035   0.25096   0.25144   0.25523
 Alpha virt. eigenvalues --    0.25682   0.25928   0.26230   0.26347   0.26546
 Alpha virt. eigenvalues --    0.26780   0.26909   0.27083   0.27176   0.27487
 Alpha virt. eigenvalues --    0.27608   0.27820   0.28072   0.28394   0.28671
 Alpha virt. eigenvalues --    0.28857   0.28948   0.29193   0.29282   0.29555
 Alpha virt. eigenvalues --    0.29706   0.30065   0.30711   0.30946   0.31157
 Alpha virt. eigenvalues --    0.31401   0.31551   0.31938   0.32174   0.32480
 Alpha virt. eigenvalues --    0.32569   0.32665   0.32849   0.33170   0.33751
 Alpha virt. eigenvalues --    0.34135   0.34158   0.34395   0.34730   0.34905
 Alpha virt. eigenvalues --    0.35350   0.35702   0.35976   0.36365   0.36606
 Alpha virt. eigenvalues --    0.37055   0.37173   0.37760   0.37994   0.38172
 Alpha virt. eigenvalues --    0.38677   0.39174   0.39526   0.40106   0.40216
 Alpha virt. eigenvalues --    0.40844   0.41725   0.41910   0.42433   0.42871
 Alpha virt. eigenvalues --    0.43367   0.43615   0.43889   0.44088   0.44401
 Alpha virt. eigenvalues --    0.44854   0.45062   0.45618   0.45790   0.45900
 Alpha virt. eigenvalues --    0.46231   0.46582   0.46787   0.46881   0.47732
 Alpha virt. eigenvalues --    0.48345   0.48472   0.48949   0.49272   0.49846
 Alpha virt. eigenvalues --    0.49989   0.50396   0.51152   0.51845   0.52468
 Alpha virt. eigenvalues --    0.52705   0.53098   0.53616   0.53721   0.54079
 Alpha virt. eigenvalues --    0.54620   0.54881   0.55372   0.55481   0.55825
 Alpha virt. eigenvalues --    0.56228   0.56505   0.56833   0.57097   0.57542
 Alpha virt. eigenvalues --    0.58049   0.58476   0.58772   0.58960   0.59406
 Alpha virt. eigenvalues --    0.59739   0.59946   0.60709   0.61201   0.61541
 Alpha virt. eigenvalues --    0.61711   0.62124   0.62483   0.63104   0.63255
 Alpha virt. eigenvalues --    0.63608   0.63894   0.64234   0.64657   0.64922
 Alpha virt. eigenvalues --    0.65050   0.65345   0.65779   0.66118   0.66224
 Alpha virt. eigenvalues --    0.66730   0.66837   0.67400   0.67678   0.68295
 Alpha virt. eigenvalues --    0.68711   0.69399   0.69587   0.69748   0.70192
 Alpha virt. eigenvalues --    0.70493   0.71128   0.71444   0.71799   0.71996
 Alpha virt. eigenvalues --    0.72278   0.72858   0.73275   0.73326   0.74335
 Alpha virt. eigenvalues --    0.74498   0.74984   0.75054   0.75362   0.76066
 Alpha virt. eigenvalues --    0.76295   0.76319   0.76918   0.77295   0.77717
 Alpha virt. eigenvalues --    0.78042   0.78456   0.79148   0.79822   0.80125
 Alpha virt. eigenvalues --    0.80567   0.81406   0.81956   0.82582   0.83243
 Alpha virt. eigenvalues --    0.83969   0.84377   0.85201   0.85404   0.86542
 Alpha virt. eigenvalues --    0.87169   0.87381   0.88426   0.88538   0.88676
 Alpha virt. eigenvalues --    0.89302   0.89647   0.90734   0.91326   0.92291
 Alpha virt. eigenvalues --    0.92530   0.92641   0.93093   0.93409   0.93636
 Alpha virt. eigenvalues --    0.94238   0.94401   0.94480   0.95093   0.95864
 Alpha virt. eigenvalues --    0.96198   0.97157   0.97319   0.97641   0.98384
 Alpha virt. eigenvalues --    0.98844   0.99054   0.99481   1.00182   1.00361
 Alpha virt. eigenvalues --    1.01067   1.01437   1.01792   1.02473   1.02788
 Alpha virt. eigenvalues --    1.03197   1.03714   1.04387   1.04604   1.04916
 Alpha virt. eigenvalues --    1.05224   1.05784   1.06151   1.06417   1.06704
 Alpha virt. eigenvalues --    1.07213   1.08182   1.08557   1.09118   1.09548
 Alpha virt. eigenvalues --    1.09703   1.10118   1.10603   1.11031   1.11585
 Alpha virt. eigenvalues --    1.11866   1.13824   1.14417   1.15168   1.15308
 Alpha virt. eigenvalues --    1.15771   1.16948   1.17901   1.18212   1.18493
 Alpha virt. eigenvalues --    1.19392   1.19884   1.20388   1.21269   1.21625
 Alpha virt. eigenvalues --    1.22743   1.23155   1.24355   1.25014   1.25506
 Alpha virt. eigenvalues --    1.25891   1.26550   1.27006   1.27470   1.27884
 Alpha virt. eigenvalues --    1.28665   1.30068   1.30579   1.30889   1.31483
 Alpha virt. eigenvalues --    1.32859   1.33678   1.34692   1.35221   1.35499
 Alpha virt. eigenvalues --    1.36553   1.37360   1.37583   1.38333   1.40760
 Alpha virt. eigenvalues --    1.41332   1.41858   1.42410   1.42562   1.42767
 Alpha virt. eigenvalues --    1.43034   1.43461   1.43610   1.43861   1.44541
 Alpha virt. eigenvalues --    1.45139   1.45278   1.45637   1.45937   1.46312
 Alpha virt. eigenvalues --    1.47104   1.48056   1.48308   1.49027   1.49778
 Alpha virt. eigenvalues --    1.50526   1.51101   1.51376   1.52383   1.52931
 Alpha virt. eigenvalues --    1.53517   1.54082   1.54117   1.54504   1.55016
 Alpha virt. eigenvalues --    1.55210   1.55627   1.56031   1.56415   1.57512
 Alpha virt. eigenvalues --    1.58532   1.58921   1.60011   1.61003   1.61294
 Alpha virt. eigenvalues --    1.62625   1.63042   1.63480   1.64025   1.65504
 Alpha virt. eigenvalues --    1.66204   1.66524   1.66828   1.67430   1.67573
 Alpha virt. eigenvalues --    1.68465   1.68780   1.68976   1.69413   1.69903
 Alpha virt. eigenvalues --    1.70134   1.70662   1.71059   1.71627   1.71779
 Alpha virt. eigenvalues --    1.72697   1.73822   1.74466   1.74806   1.75779
 Alpha virt. eigenvalues --    1.76593   1.77107   1.77225   1.78068   1.78919
 Alpha virt. eigenvalues --    1.79342   1.79976   1.80331   1.81445   1.82632
 Alpha virt. eigenvalues --    1.83618   1.84500   1.85081   1.86492   1.86752
 Alpha virt. eigenvalues --    1.87022   1.87397   1.87752   1.88157   1.88950
 Alpha virt. eigenvalues --    1.89295   1.89953   1.90584   1.91120   1.91901
 Alpha virt. eigenvalues --    1.92405   1.93120   1.94069   1.94815   1.95631
 Alpha virt. eigenvalues --    1.96073   1.96605   1.97539   1.98246   1.99746
 Alpha virt. eigenvalues --    2.00851   2.01008   2.01899   2.02139   2.02503
 Alpha virt. eigenvalues --    2.03074   2.03635   2.03858   2.04113   2.04646
 Alpha virt. eigenvalues --    2.06243   2.06418   2.06878   2.08296   2.08434
 Alpha virt. eigenvalues --    2.09152   2.09683   2.10921   2.11815   2.12424
 Alpha virt. eigenvalues --    2.13434   2.14333   2.14963   2.15098   2.15337
 Alpha virt. eigenvalues --    2.15994   2.17092   2.17754   2.19003   2.19979
 Alpha virt. eigenvalues --    2.20260   2.20416   2.20865   2.22323   2.23160
 Alpha virt. eigenvalues --    2.25081   2.25959   2.26430   2.28679   2.28944
 Alpha virt. eigenvalues --    2.32307   2.33111   2.34411   2.35107   2.36355
 Alpha virt. eigenvalues --    2.37807   2.39557   2.39964   2.41114   2.42900
 Alpha virt. eigenvalues --    2.43053   2.43546   2.43983   2.45814   2.46194
 Alpha virt. eigenvalues --    2.46483   2.46798   2.47435   2.48170   2.49884
 Alpha virt. eigenvalues --    2.50326   2.51938   2.52266   2.52372   2.52830
 Alpha virt. eigenvalues --    2.52838   2.53235   2.53397   2.55008   2.56242
 Alpha virt. eigenvalues --    2.57068   2.58818   2.58957   2.59304   2.59694
 Alpha virt. eigenvalues --    2.62366   2.63606   2.63921   2.65227   2.65963
 Alpha virt. eigenvalues --    2.66688   2.67673   2.68072   2.68308   2.68568
 Alpha virt. eigenvalues --    2.69647   2.69875   2.70249   2.71110   2.71457
 Alpha virt. eigenvalues --    2.72981   2.73141   2.74090   2.74669   2.75065
 Alpha virt. eigenvalues --    2.75914   2.76666   2.78012   2.79067   2.80001
 Alpha virt. eigenvalues --    2.80725   2.81532   2.82030   2.83952   2.84217
 Alpha virt. eigenvalues --    2.84673   2.84845   2.85344   2.85696   2.86680
 Alpha virt. eigenvalues --    2.87234   2.87796   2.88554   2.88743   2.89631
 Alpha virt. eigenvalues --    2.91649   2.91796   2.92981   2.93586   2.94403
 Alpha virt. eigenvalues --    2.94921   2.96286   2.96774   2.97245   2.99435
 Alpha virt. eigenvalues --    3.00388   3.01159   3.02212   3.03713   3.04355
 Alpha virt. eigenvalues --    3.05418   3.05759   3.09065   3.09185   3.10461
 Alpha virt. eigenvalues --    3.11498   3.12675   3.14438   3.14711   3.15496
 Alpha virt. eigenvalues --    3.17328   3.18280   3.18553   3.20636   3.22227
 Alpha virt. eigenvalues --    3.23218   3.23522   3.23966   3.24789   3.27439
 Alpha virt. eigenvalues --    3.28522   3.31009   3.32028   3.32471   3.33009
 Alpha virt. eigenvalues --    3.33983   3.34474   3.34907   3.35328   3.38014
 Alpha virt. eigenvalues --    3.39036   3.40483   3.41959   3.42475   3.43666
 Alpha virt. eigenvalues --    3.44573   3.45723   3.47006   3.48866   3.49986
 Alpha virt. eigenvalues --    3.51477   3.54225   3.55628   3.57979   3.59666
 Alpha virt. eigenvalues --    3.60253   3.61581   3.64948   3.66405   3.66693
 Alpha virt. eigenvalues --    3.69854   3.71423   3.72144   3.72328   3.75970
 Alpha virt. eigenvalues --    3.76175   3.76787   3.80428   3.83088   3.84884
 Alpha virt. eigenvalues --    3.85461   3.86393   3.89343   3.90964   3.92914
 Alpha virt. eigenvalues --    3.93089   3.93949   3.97504   4.01576   4.04279
 Alpha virt. eigenvalues --    4.05297   4.08636   4.10924   4.13204   4.14873
 Alpha virt. eigenvalues --    4.21026   4.24251   4.25731   4.27588   4.35617
 Alpha virt. eigenvalues --    4.40811   4.41238   4.53624   4.71342   4.84410
 Alpha virt. eigenvalues --    4.86134   4.87532   4.90369   5.01856   5.02569
 Alpha virt. eigenvalues --    5.03895   5.05381   5.05542   5.06188   5.11346
 Alpha virt. eigenvalues --    5.13621   5.25062   5.27271   5.29694   5.36779
 Alpha virt. eigenvalues --    5.43089   5.43990   5.75980   5.76687   5.80395
 Alpha virt. eigenvalues --    5.81017   5.82029   5.84804   8.03311   8.12287
 Alpha virt. eigenvalues --   17.29246  17.33384  17.50386  17.53544  17.62164
 Alpha virt. eigenvalues --   17.76368  23.49093  23.59169  23.71642  23.78662
 Alpha virt. eigenvalues --   23.82177  23.82836  23.84976  23.86543  23.86839
 Alpha virt. eigenvalues --   23.88258  23.89856  23.90128  23.91816  23.93024
 Alpha virt. eigenvalues --   23.94543  23.95392  23.96038  23.98443  24.00690
 Alpha virt. eigenvalues --   24.02341  24.03343  24.05235  24.12154  24.13154
 Alpha virt. eigenvalues --   24.14288  24.14404  35.56407  35.59608  49.96409
 Alpha virt. eigenvalues --   49.98045  50.02052  50.04404  50.05622  50.07169
 Alpha virt. eigenvalues --  189.20775 189.30713
          Condensed to atoms (all electrons):
 Mulliken charges:
               1
     1  C    0.380645
     2  C   -0.114879
     3  C    0.194230
     4  C    0.176284
     5  C    0.328371
     6  C   -0.331145
     7  C    0.084188
     8  C    0.173002
     9  C    0.665826
    10  C   -0.160410
    11  C    0.099685
    12  C    0.172471
    13  C   -0.505987
    14  C   -0.666654
    15  H    0.158809
    16  H    0.160752
    17  H    0.158907
    18  N   -0.159330
    19  N   -0.134398
    20  O   -0.285901
    21  O   -0.271042
    22  O   -0.270850
    23  O   -0.032636
    24  C   -0.191278
    25  H    0.174463
    26  H    0.177147
    27  H    0.190755
    28  C   -0.201703
    29  H    0.173898
    30  H    0.174028
    31  H    0.183323
    32  C   -0.209540
    33  C   -0.358670
    34  S    0.408083
    35  C   -0.781112
    36  H    0.129677
    37  C    0.064413
    38  O   -0.121821
    39  C    0.874899
    40  C   -0.242214
    41  C   -0.083150
    42  S   -0.282653
    43  H    0.167577
    44  H    0.147379
    45  H    0.148153
    46  C   -0.457801
    47  O   -0.083730
    48  C   -0.318876
    49  H    0.131951
    50  C   -0.248646
    51  H    0.160694
    52  H    0.143591
    53  H    0.167541
    54  H    0.143683
 Sum of Mulliken charges =  -0.00000
 Mulliken charges with hydrogens summed into heavy atoms:
               1
     1  C    0.380645
     2  C   -0.114879
     3  C    0.194230
     4  C    0.176284
     5  C    0.328371
     6  C   -0.172238
     7  C    0.084188
     8  C    0.173002
     9  C    0.665826
    10  C   -0.160410
    11  C    0.099685
    12  C    0.172471
    13  C   -0.345235
    14  C   -0.507845
    18  N   -0.159330
    19  N   -0.134398
    20  O   -0.285901
    21  O   -0.271042
    22  O   -0.270850
    23  O   -0.032636
    24  C    0.351087
    28  C    0.329545
    32  C   -0.209540
    33  C   -0.228993
    34  S    0.408083
    35  C   -0.781112
    37  C    0.064413
    38  O   -0.121821
    39  C    0.874899
    40  C    0.220896
    41  C   -0.083150
    42  S   -0.282653
    46  C   -0.325851
    47  O   -0.083730
    48  C   -0.158182
    50  C    0.206169
 Electronic spatial extent (au):  <R**2>=          22180.3091
 Charge=             -0.0000 electrons
 Dipole moment (field-independent basis, Debye):
    X=              4.5058    Y=             -0.2916    Z=             -0.0931  Tot=              4.5161
 Quadrupole moment (field-independent basis, Debye-Ang):
   XX=           -216.6147   YY=           -213.0722   ZZ=           -223.0702
   XY=             14.0920   XZ=              0.7088   YZ=              6.4987
 Traceless Quadrupole moment (field-independent basis, Debye-Ang):
   XX=              0.9710   YY=              4.5135   ZZ=             -5.4845
   XY=             14.0920   XZ=              0.7088   YZ=              6.4987
 Octapole moment (field-independent basis, Debye-Ang**2):
  XXX=            360.4031  YYY=            -66.4413  ZZZ=              2.6891  XYY=            126.4883
  XXY=             31.6681  XXZ=             15.2860  XZZ=            -12.6813  YZZ=              0.9375
  YYZ=             -2.3807  XYZ=             13.4891
 Hexadecapole moment (field-independent basis, Debye-Ang**3):
 XXXX=         -21818.9805 YYYY=          -7612.1009 ZZZZ=           -357.6549 XXXY=            449.9503
 XXXZ=             80.2153 YYYX=            338.7630 YYYZ=            139.4379 ZZZX=            -12.6331
 ZZZY=             -0.9083 XXYY=          -4574.9209 XXZZ=          -3862.8340 YYZZ=          -1300.8941
 XXYZ=             77.6161 YYXZ=            -33.7443 ZZXY=             59.1560
 N-N= 4.128724366033D+03 E-N=-1.379775437071D+04  KE= 2.352163793535D+03
 Calling FoFJK, ICntrl=      2127 FMM=F ISym2X=0 I1Cent= 0 IOpClX= 0 NMat=1 NMatS=1 NMatT=0.
 ***** Axes restored to original set *****
 -------------------------------------------------------------------
 Center     Atomic                   Forces (Hartrees/Bohr)
 Number     Number              X              Y              Z
 -------------------------------------------------------------------
      1        6           0.003621419   -0.005278945    0.000162950
      2        6           0.007072264    0.000070156   -0.000922316
      3        6          -0.004294164    0.001611832    0.000098447
      4        6           0.003881352    0.001151392    0.000410812
      5        6          -0.006040735   -0.001185361   -0.000020963
      6        6          -0.003524921   -0.002432064   -0.006803738
      7        6          -0.002086450    0.000662609    0.001360689
      8        6          -0.000213456    0.010411223    0.007516934
      9        6           0.016265566   -0.005908530   -0.005395462
     10        6          -0.032490800   -0.011189617   -0.004353900
     11        6          -0.006666661    0.001307709   -0.000499553
     12        6           0.002996669    0.001152809    0.000402650
     13        6          -0.002589039   -0.003673974   -0.000650077
     14        6          -0.000382643    0.003774412    0.000549563
     15        1           0.000652439    0.000825267    0.000028243
     16        1           0.000575435   -0.001169008   -0.000289424
     17        1          -0.001165660    0.001141496    0.002512156
     18        7           0.005845009   -0.002230176   -0.001808543
     19        7           0.001651306    0.001124254   -0.000080800
     20        8          -0.005409081    0.005750002    0.000559861
     21        8           0.007627039    0.002025904    0.000143479
     22        8           0.006355626   -0.004330434   -0.000273713
     23        8          -0.053238774    0.022416934    0.005782702
     24        6           0.001076286    0.002552973   -0.000833557
     25        1          -0.000831533    0.000003344   -0.000038272
     26        1          -0.001410284   -0.000443280    0.000968055
     27        1           0.000983884   -0.000011105    0.000104316
     28        6          -0.000437525   -0.001980351   -0.000676176
     29        1          -0.000696435    0.000372585    0.000983220
     30        1          -0.000469872    0.000389626   -0.000499413
     31        1           0.000943979   -0.000350554   -0.000019085
     32        6          -0.019530904    0.022937105    0.013774663
     33        6           0.006919541   -0.006183728   -0.000921499
     34       16           0.073758847   -0.008452700   -0.003735441
     35        6           0.000849422   -0.003504654   -0.002220243
     36        1           0.001007044   -0.001782476   -0.000667835
     37        6          -0.001952065   -0.014250365   -0.001911389
     38        8          -0.001328316   -0.004002869   -0.004044153
     39        6          -0.000647324   -0.002127964    0.000438552
     40        6           0.000989302   -0.001434674   -0.000030098
     41        6          -0.001305740    0.000004835   -0.000093862
     42       16           0.000886589    0.001849658    0.000871927
     43        1          -0.000809440   -0.000145584   -0.000059934
     44        1           0.000525561    0.000945986   -0.000356758
     45        1           0.001198368    0.000461325    0.000943503
     46        6          -0.001152003    0.000150043    0.000119194
     47        8           0.003880666    0.000976237    0.000507091
     48        6           0.000071513   -0.000488960   -0.000299675
     49        1           0.000063251   -0.001194136   -0.000463656
     50        6           0.000648318    0.001642541   -0.000075965
     51        1          -0.001068068   -0.000265178   -0.000020240
     52        1          -0.000593033   -0.000858203    0.000439901
     53        1           0.000471320   -0.000480199   -0.000251458
     54        1          -0.000483088   -0.000357164   -0.000361710
 -------------------------------------------------------------------
 Cartesian Forces:  Max     0.073758847 RMS     0.008847410

 GradGradGradGradGradGradGradGradGradGradGradGradGradGradGradGradGradGrad
 Berny optimization.
 FormGI is forming the generalized inverse of G from B-inverse, IUseBI=4.
 Internal  Forces:  Max     0.226895727 RMS     0.026752546
 Search for a local minimum.
 Step number   1 out of a maximum of  307
 All quantities printed in internal units (Hartrees-Bohrs-Radians)
 Mixed Optimization -- RFO/linear search
 Second derivative matrix not updated -- first step.
 ITU=  0
     Eigenvalues ---    0.01155   0.01172   0.01239   0.01297   0.01360
     Eigenvalues ---    0.01381   0.01397   0.01410   0.01452   0.01469
     Eigenvalues ---    0.01512   0.01544   0.01567   0.01588   0.01626
     Eigenvalues ---    0.01651   0.01679   0.01694   0.01712   0.01719
     Eigenvalues ---    0.01721   0.01763   0.01799   0.01845   0.01975
     Eigenvalues ---    0.02039   0.02041   0.02077   0.02086   0.02099
     Eigenvalues ---    0.02133   0.02149   0.02162   0.02176   0.02197
     Eigenvalues ---    0.02251   0.04601   0.04620   0.07665   0.07667
     Eigenvalues ---    0.10061   0.10076   0.10632   0.10638   0.15983
     Eigenvalues ---    0.15999   0.15999   0.16000   0.16000   0.16000
     Eigenvalues ---    0.16000   0.16000   0.16000   0.16000   0.16000
     Eigenvalues ---    0.16000   0.16000   0.16000   0.16000   0.16000
     Eigenvalues ---    0.16000   0.16000   0.22530   0.22583   0.23517
     Eigenvalues ---    0.23582   0.24513   0.24747   0.24865   0.24906
     Eigenvalues ---    0.24952   0.24985   0.24986   0.24988   0.24990
     Eigenvalues ---    0.24994   0.24996   0.24997   0.24998   0.24998
     Eigenvalues ---    0.25000   0.25000   0.25000   0.25000   0.25000
     Eigenvalues ---    0.25000   0.25000   0.25000   0.25000   0.25000
     Eigenvalues ---    0.28852   0.28853   0.30094   0.32123   0.32582
     Eigenvalues ---    0.32774   0.33104   0.33787   0.34019   0.34030
     Eigenvalues ---    0.34033   0.34136   0.34353   0.34466   0.34577
     Eigenvalues ---    0.34629   0.34693   0.34852   0.34903   0.35198
     Eigenvalues ---    0.35218   0.35468   0.35553   0.35582   0.35763
     Eigenvalues ---    0.35878   0.36078   0.36083   0.36267   0.36393
     Eigenvalues ---    0.36662   0.39348   0.40194   0.40282   0.40651
     Eigenvalues ---    0.40714   0.41524   0.41700   0.41941   0.42300
     Eigenvalues ---    0.42634   0.43455   0.43831   0.44092   0.44577
     Eigenvalues ---    0.44594   0.45014   0.45405   0.46251   0.47305
     Eigenvalues ---    0.47558   0.49309   0.49624   0.53180   0.53279
     Eigenvalues ---    0.93281   0.93432   0.93989   0.945851000.00000
     Eigenvalues --- 1000.000001000.000001000.000001000.000001000.00000
     Eigenvalues --- 1000.000001000.000001000.000001000.000001000.00000
     Eigenvalues --- 1000.000001000.000001000.000001000.000001000.00000
     Eigenvalues --- 1000.000001000.000001000.000001000.000001000.00000
     Eigenvalues --- 1000.000001000.000001000.000001000.000001000.00000
     Eigenvalues --- 1000.000001000.000001000.000001000.000001000.00000
     Eigenvalues --- 1000.000001000.000001000.000001000.000001000.00000
     Eigenvalues --- 1000.000001000.000001000.000001000.000001000.00000
     Eigenvalues --- 1000.000001000.000001000.000001000.000001000.00000
     Eigenvalues --- 1000.000001000.000001000.000001000.000001000.00000
     Eigenvalues --- 1000.000001000.000001000.000001000.000001000.00000
     Eigenvalues --- 1000.000001000.000001000.000001000.000001000.00000
     Eigenvalues --- 1000.000001000.000001000.000001000.000001000.00000
     Eigenvalues --- 1000.000001000.000001000.000001000.000001000.00000
     Eigenvalues --- 1000.000001000.000001000.000001000.000001000.00000
     Eigenvalues --- 1000.000001000.000001000.000001000.000001000.00000
     Eigenvalues --- 1000.000001000.000001000.000001000.000001000.00000
     Eigenvalues --- 1000.000001000.000001000.000001000.000001000.00000
     Eigenvalues --- 1000.000001000.000001000.000001000.000001000.00000
     Eigenvalues --- 1000.000001000.000001000.000001000.000001000.00000
     Eigenvalues --- 1000.000001000.000001000.000001000.000001000.00000
     Eigenvalues --- 1000.000001000.000001000.000001000.000001000.00000
     Eigenvalues --- 1000.000001000.000001000.000001000.000001000.00000
     Eigenvalues --- 1000.000001000.000001000.000001000.000001000.00000
     Eigenvalues --- 1000.000001000.000001000.000001000.000001000.00000
     Eigenvalues --- 1000.000001000.000001000.000001000.000001000.00000
     Eigenvalues --- 1000.000001000.000001000.000001000.000001000.00000
     Eigenvalues --- 1000.000001000.000001000.000001000.000001000.00000
     Eigenvalues --- 1000.000001000.000001000.000001000.000001000.00000
     Eigenvalues --- 1000.000001000.00000
 RFO step:  Lambda=-3.46777983D-01 EMin= 1.15532237D-02
 Linear search not attempted -- first point.
 Maximum step size (   0.300) exceeded in Quadratic search.
    -- Step size scaled by   0.399
 Iteration  1 RMS(Cart)=  0.30856221 RMS(Int)=  0.00795482
 Iteration  2 RMS(Cart)=  0.14236571 RMS(Int)=  0.00125622
 Iteration  3 RMS(Cart)=  0.00438599 RMS(Int)=  0.00012676
 Iteration  4 RMS(Cart)=  0.00000087 RMS(Int)=  0.00012676
 Iteration  1 RMS(Cart)=  0.00007857 RMS(Int)=  0.00001196
 Iteration  2 RMS(Cart)=  0.00004328 RMS(Int)=  0.00001335
 Iteration  3 RMS(Cart)=  0.00002403 RMS(Int)=  0.00001511
 Iteration  4 RMS(Cart)=  0.00001341 RMS(Int)=  0.00001630
 Iteration  5 RMS(Cart)=  0.00000751 RMS(Int)=  0.00001702
 Iteration  6 RMS(Cart)=  0.00000422 RMS(Int)=  0.00001744
 Iteration  7 RMS(Cart)=  0.00000237 RMS(Int)=  0.00001768
 Iteration  8 RMS(Cart)=  0.00000134 RMS(Int)=  0.00001782
 Iteration  9 RMS(Cart)=  0.00000075 RMS(Int)=  0.00001789
 Variable       Old X    -DE/DX   Delta X   Delta X   Delta X     New X
                                 (Linear)    (Quad)   (Total)
    R1        2.80935   0.00017   0.00000  -0.00016  -0.00016   2.80919
    R2        2.64584  -0.00810   0.00000  -0.00411  -0.00409   2.64175
    R3        2.31147  -0.00790   0.00000  -0.00245  -0.00245   2.30902
    R4        2.67311  -0.02179   0.00000  -0.01258  -0.01266   2.66045
    R5        2.59267  -0.03052   0.00000  -0.01586  -0.01587   2.57680
    R6        2.66894   0.00429   0.00000   0.00222   0.00221   2.67115
    R7        2.69164   0.00738   0.00000   0.00492   0.00488   2.69652
    R8        2.81049  -0.00108   0.00000  -0.00037  -0.00037   2.81012
    R9        2.62173  -0.01182   0.00000  -0.00635  -0.00637   2.61536
   R10        2.65570  -0.00725   0.00000  -0.00352  -0.00351   2.65219
   R11        2.30889  -0.00787   0.00000  -0.00243  -0.00243   2.30646
   R12        2.70248   0.00380   0.00000   0.00145   0.00151   2.70398
   R13        2.04786  -0.00197   0.00000  -0.00112  -0.00112   2.04674
   R14        2.70495   0.05311   0.00000   0.03113   0.03120   2.73616
   R15        2.68322   0.01564   0.00000   0.00946   0.00945   2.69267
   R16        2.68655   0.10402   0.00000   0.05528   0.05535   2.74190
   R17        2.81233   0.01949   0.00000   0.01189   0.01199   2.82432
   R18        2.76359   0.05837   0.00000   0.03263   0.03263   2.79623
   R19        2.66221  -0.01230   0.00000  -0.00697  -0.00694   2.65527
   R20        2.31391  -0.03901   0.00000  -0.01214  -0.01214   2.30176
   R21        2.79415  -0.02612   0.00000  -0.01555  -0.01565   2.77850
   R22        2.63842  -0.02902   0.00000  -0.01544  -0.01551   2.62291
   R23        2.31456  -0.00760   0.00000  -0.00237  -0.00237   2.31219
   R24        2.62448  -0.00148   0.00000  -0.00067  -0.00067   2.62382
   R25        2.64561  -0.01945   0.00000  -0.01025  -0.01026   2.63535
   R26        2.04921  -0.00125   0.00000  -0.00071  -0.00071   2.04850
   R27        2.04741  -0.00088   0.00000  -0.00050  -0.00050   2.04691
   R28        2.77259   0.00201   0.00000   0.00113   0.00113   2.77373
   R29        2.77252   0.00168   0.00000   0.00095   0.00095   2.77347
   R30        2.06176  -0.00047   0.00000  -0.00027  -0.00027   2.06149
   R31        2.06551  -0.00167   0.00000  -0.00096  -0.00096   2.06455
   R32        2.05322  -0.00085   0.00000  -0.00048  -0.00048   2.05274
   R33        2.06368  -0.00124   0.00000  -0.00072  -0.00072   2.06296
   R34        2.06281  -0.00077   0.00000  -0.00044  -0.00044   2.06237
   R35        2.05355  -0.00090   0.00000  -0.00051  -0.00051   2.05304
   R36        2.61071   0.02451   0.00000   0.01198   0.01202   2.62274
   R37        3.33259   0.02295   0.00000   0.01497   0.01500   3.34760
   R38        2.66338  -0.01689   0.00000  -0.00885  -0.00885   2.65454
   R39        2.03666   0.00174   0.00000   0.00098   0.00098   2.03763
   R40        3.30406   0.00481   0.00000   0.00283   0.00279   3.30685
   R41        2.64389  -0.01768   0.00000  -0.00929  -0.00933   2.63456
   R42        2.56786   0.00302   0.00000   0.00137   0.00137   2.56923
   R43        2.71172   0.00002   0.00000   0.00001   0.00001   2.71173
   R44        2.69306  -0.00009   0.00000  -0.00005  -0.00005   2.69302
   R45        2.63412   0.00122   0.00000   0.00063   0.00063   2.63475
   R46        3.32991   0.00044   0.00000   0.00031   0.00031   3.33022
   R47        2.05916  -0.00073   0.00000  -0.00042  -0.00042   2.05875
   R48        2.07280  -0.00108   0.00000  -0.00062  -0.00062   2.07217
   R49        2.07298  -0.00142   0.00000  -0.00082  -0.00082   2.07216
   R50        2.69056  -0.00132   0.00000  -0.00070  -0.00070   2.68986
   R51        2.56694  -0.00299   0.00000  -0.00136  -0.00136   2.56559
   R52        3.26264  -0.00226   0.00000  -0.00136  -0.00136   3.26129
   R53        2.58618  -0.00134   0.00000  -0.00066  -0.00066   2.58552
   R54        2.04454  -0.00125   0.00000  -0.00071  -0.00071   2.04383
   R55        2.68998  -0.00014   0.00000  -0.00007  -0.00007   2.68991
   R56        2.04273  -0.00110   0.00000  -0.00062  -0.00062   2.04211
   R57        2.07274  -0.00107   0.00000  -0.00062  -0.00062   2.07212
   R58        2.05832  -0.00061   0.00000  -0.00035  -0.00035   2.05797
   R59        2.07101  -0.00058   0.00000  -0.00033  -0.00033   2.07068
    A1        2.03797   0.00181   0.00000   0.00051   0.00051   2.03848
    A2        2.14521  -0.00124   0.00000  -0.00048  -0.00048   2.14473
    A3        2.10001  -0.00057   0.00000  -0.00003  -0.00003   2.09998
    A4        2.10395   0.01056   0.00000   0.00806   0.00808   2.11202
    A5        2.08282  -0.01322   0.00000  -0.00673  -0.00667   2.07615
    A6        2.09624   0.00265   0.00000  -0.00134  -0.00141   2.09483
    A7        2.10093  -0.01333   0.00000  -0.00960  -0.00957   2.09136
    A8        2.07104  -0.00083   0.00000  -0.00175  -0.00185   2.06919
    A9        2.11118   0.01416   0.00000   0.01135   0.01142   2.12260
   A10        2.10296   0.00694   0.00000   0.00498   0.00496   2.10793
   A11        2.09911   0.00500   0.00000   0.00294   0.00291   2.10202
   A12        2.08110  -0.01193   0.00000  -0.00791  -0.00787   2.07323
   A13        2.03739   0.00021   0.00000   0.00039   0.00036   2.03776
   A14        2.12972   0.00050   0.00000   0.00022   0.00023   2.12995
   A15        2.11607  -0.00072   0.00000  -0.00060  -0.00059   2.11548
   A16        2.15098   0.04697   0.00000   0.03056   0.03062   2.18160
   A17        2.04399  -0.02336   0.00000  -0.01518  -0.01520   2.02879
   A18        2.08722  -0.02350   0.00000  -0.01531  -0.01534   2.07188
   A19        2.11101   0.01865   0.00000   0.01286   0.01279   2.12380
   A20        2.04385  -0.03429   0.00000  -0.02408  -0.02408   2.01977
   A21        2.12832   0.01564   0.00000   0.01123   0.01129   2.13961
   A22        2.08678  -0.03374   0.00000  -0.01977  -0.01976   2.06703
   A23        2.04738  -0.06410   0.00000  -0.04188  -0.04175   2.00564
   A24        2.14662   0.09813   0.00000   0.06188   0.06173   2.20835
   A25        2.04892  -0.03375   0.00000  -0.02065  -0.02049   2.02843
   A26        2.00754  -0.19327   0.00000  -0.13012  -0.13019   1.87735
   A27        2.22643   0.22690   0.00000   0.15072   0.15063   2.37706
   A28        2.06022   0.03652   0.00000   0.02500   0.02514   2.08536
   A29        2.17370   0.03140   0.00000   0.02068   0.02061   2.19430
   A30        2.04919  -0.06792   0.00000  -0.04565  -0.04572   2.00347
   A31        2.01621  -0.01047   0.00000  -0.00836  -0.00853   2.00768
   A32        2.14188   0.00657   0.00000   0.00507   0.00516   2.14703
   A33        2.12500   0.00390   0.00000   0.00328   0.00337   2.12837
   A34        2.10943   0.01185   0.00000   0.00844   0.00832   2.11775
   A35        2.11468   0.01749   0.00000   0.01264   0.01270   2.12737
   A36        2.05896  -0.02933   0.00000  -0.02107  -0.02101   2.03796
   A37        2.11176   0.00412   0.00000   0.00282   0.00278   2.11454
   A38        2.05670  -0.00160   0.00000  -0.00104  -0.00102   2.05567
   A39        2.11471  -0.00252   0.00000  -0.00178  -0.00176   2.11296
   A40        2.08567  -0.00644   0.00000  -0.00564  -0.00571   2.07997
   A41        2.07549   0.00381   0.00000   0.00328   0.00332   2.07881
   A42        2.12199   0.00264   0.00000   0.00236   0.00240   2.12439
   A43        2.20043   0.01063   0.00000   0.00557   0.00554   2.20597
   A44        2.02023  -0.00456   0.00000  -0.00228  -0.00226   2.01797
[...]
 Alpha  occ. eigenvalues --   -0.57352  -0.56758  -0.56479  -0.55357  -0.54685
 Alpha  occ. eigenvalues --   -0.53601  -0.51374  -0.50135  -0.49899  -0.49341
 Alpha  occ. eigenvalues --   -0.49227  -0.49030  -0.48708  -0.48679  -0.48295
 Alpha  occ. eigenvalues --   -0.48156  -0.47165  -0.46544  -0.46092  -0.45931
 Alpha  occ. eigenvalues --   -0.45589  -0.44925  -0.44285  -0.44024  -0.43448
 Alpha  occ. eigenvalues --   -0.43070  -0.42477  -0.42255  -0.41928  -0.41650
 Alpha  occ. eigenvalues --   -0.41589  -0.41206  -0.40975  -0.40409  -0.39720
 Alpha  occ. eigenvalues --   -0.39460  -0.39102  -0.38908  -0.37509  -0.37108
 Alpha  occ. eigenvalues --   -0.36467  -0.36185  -0.34520  -0.34224  -0.33682
 Alpha  occ. eigenvalues --   -0.33228  -0.31738  -0.30672  -0.30332  -0.29598
 Alpha  occ. eigenvalues --   -0.29191  -0.28599  -0.28512  -0.27704  -0.27233
 Alpha  occ. eigenvalues --   -0.25912  -0.24971  -0.24507  -0.19660
 Alpha virt. eigenvalues --   -0.12690  -0.07730  -0.06222  -0.04242  -0.03704
 Alpha virt. eigenvalues --   -0.00839  -0.00479  -0.00348  -0.00046   0.00406
 Alpha virt. eigenvalues --    0.00967   0.01113   0.01504   0.01954   0.02000
 Alpha virt. eigenvalues --    0.02253   0.02367   0.02770   0.02845   0.03319
 Alpha virt. eigenvalues --    0.03582   0.03732   0.04052   0.04283   0.04476
 Alpha virt. eigenvalues --    0.04625   0.04834   0.05205   0.05670   0.06038
 Alpha virt. eigenvalues --    0.06115   0.06284   0.06631   0.06699   0.07128
 Alpha virt. eigenvalues --    0.07291   0.07444   0.07793   0.07939   0.08081
 Alpha virt. eigenvalues --    0.08432   0.08687   0.08940   0.09192   0.09622
 Alpha virt. eigenvalues --    0.09906   0.09961   0.10320   0.10415   0.10689
 Alpha virt. eigenvalues --    0.10969   0.11162   0.11627   0.11902   0.12020
 Alpha virt. eigenvalues --    0.12366   0.12828   0.13035   0.13159   0.13413
 Alpha virt. eigenvalues --    0.13562   0.13766   0.14148   0.14354   0.14499
 Alpha virt. eigenvalues --    0.14750   0.14851   0.14963   0.15310   0.15386
 Alpha virt. eigenvalues --    0.15694   0.15721   0.16075   0.16512   0.16529
 Alpha virt. eigenvalues --    0.16586   0.17128   0.17195   0.17342   0.17685
 Alpha virt. eigenvalues --    0.17915   0.18046   0.18233   0.18488   0.18662
 Alpha virt. eigenvalues --    0.18779   0.19085   0.19311   0.19502   0.19660
 Alpha virt. eigenvalues --    0.19910   0.20081   0.20125   0.20367   0.20658
 Alpha virt. eigenvalues --    0.20770   0.20939   0.21126   0.21337   0.21573
 Alpha virt. eigenvalues --    0.21593   0.21989   0.22300   0.22594   0.22793
 Alpha virt. eigenvalues --    0.23083   0.23123   0.23205   0.23464   0.23559
 Alpha virt. eigenvalues --    0.23859   0.24035   0.24174   0.24412   0.24668
 Alpha virt. eigenvalues --    0.24795   0.24951   0.25135   0.25397   0.25695
 Alpha virt. eigenvalues --    0.25764   0.26057   0.26333   0.26411   0.26457
 Alpha virt. eigenvalues --    0.26603   0.26867   0.26910   0.27212   0.27321
 Alpha virt. eigenvalues --    0.27556   0.27676   0.28118   0.28434   0.28493
 Alpha virt. eigenvalues --    0.28811   0.29023   0.29240   0.29633   0.29645
 Alpha virt. eigenvalues --    0.30039   0.30145   0.30374   0.30571   0.30932
 Alpha virt. eigenvalues --    0.31363   0.31508   0.31721   0.32070   0.32188
 Alpha virt. eigenvalues --    0.32459   0.32763   0.32861   0.33237   0.33623
 Alpha virt. eigenvalues --    0.33953   0.34213   0.34270   0.34595   0.35050
 Alpha virt. eigenvalues --    0.35298   0.35707   0.35826   0.35834   0.36201
 Alpha virt. eigenvalues --    0.36380   0.37364   0.37468   0.37899   0.38200
 Alpha virt. eigenvalues --    0.38546   0.38711   0.38911   0.39220   0.39843
 Alpha virt. eigenvalues --    0.40157   0.40536   0.41060   0.41343   0.42090
 Alpha virt. eigenvalues --    0.42456   0.42763   0.43242   0.43570   0.43617
 Alpha virt. eigenvalues --    0.43866   0.43951   0.44506   0.44776   0.45403
 Alpha virt. eigenvalues --    0.45697   0.45918   0.46379   0.46482   0.47228
 Alpha virt. eigenvalues --    0.47742   0.48103   0.48629   0.48889   0.49537
 Alpha virt. eigenvalues --    0.49787   0.49957   0.50640   0.50926   0.51767
 Alpha virt. eigenvalues --    0.52494   0.53167   0.53399   0.53711   0.54146
 Alpha virt. eigenvalues --    0.54669   0.54914   0.55121   0.55167   0.55629
 Alpha virt. eigenvalues --    0.56060   0.56480   0.56623   0.56889   0.57076
 Alpha virt. eigenvalues --    0.57366   0.58205   0.58490   0.59247   0.59445
 Alpha virt. eigenvalues --    0.60026   0.60437   0.60773   0.61119   0.61471
 Alpha virt. eigenvalues --    0.61845   0.61949   0.62417   0.62961   0.63420
 Alpha virt. eigenvalues --    0.63712   0.64234   0.64553   0.64760   0.64877
 Alpha virt. eigenvalues --    0.65397   0.65659   0.65802   0.66208   0.66349
 Alpha virt. eigenvalues --    0.66717   0.66950   0.67357   0.67616   0.68563
 Alpha virt. eigenvalues --    0.68783   0.69200   0.69914   0.70227   0.70349
 Alpha virt. eigenvalues --    0.70761   0.71294   0.71764   0.72222   0.72295
 Alpha virt. eigenvalues --    0.72477   0.73070   0.73336   0.73688   0.74059
 Alpha virt. eigenvalues --    0.74225   0.74742   0.75064   0.75372   0.75576
 Alpha virt. eigenvalues --    0.75990   0.76543   0.77044   0.77151   0.77361
 Alpha virt. eigenvalues --    0.77906   0.78334   0.78632   0.79273   0.79628
 Alpha virt. eigenvalues --    0.79822   0.80133   0.80988   0.81713   0.82485
 Alpha virt. eigenvalues --    0.83127   0.83780   0.84188   0.85095   0.85596
 Alpha virt. eigenvalues --    0.86270   0.86954   0.87954   0.88118   0.88947
 Alpha virt. eigenvalues --    0.89498   0.89785   0.90555   0.90946   0.91780
 Alpha virt. eigenvalues --    0.92166   0.92531   0.92863   0.92943   0.93687
 Alpha virt. eigenvalues --    0.94266   0.94507   0.94964   0.95305   0.95366
 Alpha virt. eigenvalues --    0.95789   0.96389   0.96468   0.97027   0.97112
 Alpha virt. eigenvalues --    0.98214   0.98650   0.99037   1.00069   1.00209
 Alpha virt. eigenvalues --    1.00870   1.01227   1.01645   1.01923   1.02061
 Alpha virt. eigenvalues --    1.02392   1.03029   1.03424   1.03835   1.04742
 Alpha virt. eigenvalues --    1.04801   1.05368   1.05772   1.06164   1.06580
 Alpha virt. eigenvalues --    1.07064   1.07587   1.07761   1.07985   1.08857
 Alpha virt. eigenvalues --    1.09024   1.09612   1.10062   1.10128   1.11184
 Alpha virt. eigenvalues --    1.11566   1.12463   1.13305   1.14069   1.15065
 Alpha virt. eigenvalues --    1.15510   1.16346   1.17061   1.17470   1.18594
 Alpha virt. eigenvalues --    1.18750   1.19366   1.20042   1.20411   1.21142
 Alpha virt. eigenvalues --    1.21997   1.22979   1.23466   1.24656   1.25112
 Alpha virt. eigenvalues --    1.25274   1.25990   1.27047   1.27240   1.28022
 Alpha virt. eigenvalues --    1.28448   1.28616   1.29929   1.30459   1.31752
 Alpha virt. eigenvalues --    1.32399   1.32899   1.33177   1.34693   1.34966
 Alpha virt. eigenvalues --    1.35573   1.36323   1.37134   1.38253   1.39872
 Alpha virt. eigenvalues --    1.40770   1.41299   1.41511   1.41975   1.42212
 Alpha virt. eigenvalues --    1.42877   1.43199   1.43605   1.44365   1.44643
 Alpha virt. eigenvalues --    1.44783   1.45488   1.45886   1.46038   1.46201
 Alpha virt. eigenvalues --    1.46437   1.47217   1.47378   1.48838   1.49950
 Alpha virt. eigenvalues --    1.50466   1.51033   1.51322   1.51517   1.52744
 Alpha virt. eigenvalues --    1.53073   1.53537   1.54079   1.54257   1.54862
 Alpha virt. eigenvalues --    1.55153   1.55385   1.55682   1.56005   1.57233
 Alpha virt. eigenvalues --    1.57912   1.58574   1.59643   1.61004   1.61300
 Alpha virt. eigenvalues --    1.62182   1.62723   1.63157   1.63737   1.64309
 Alpha virt. eigenvalues --    1.65675   1.66027   1.66310   1.66801   1.67178
 Alpha virt. eigenvalues --    1.67947   1.68502   1.69128   1.69405   1.69515
 Alpha virt. eigenvalues --    1.70007   1.70497   1.70825   1.71381   1.72107
 Alpha virt. eigenvalues --    1.72213   1.73747   1.74557   1.75271   1.75573
 Alpha virt. eigenvalues --    1.75899   1.76569   1.77061   1.78100   1.79002
 Alpha virt. eigenvalues --    1.79313   1.79830   1.80535   1.81010   1.81893
 Alpha virt. eigenvalues --    1.82957   1.84205   1.85189   1.86080   1.87055
 Alpha virt. eigenvalues --    1.87169   1.87531   1.87579   1.87983   1.88280
 Alpha virt. eigenvalues --    1.89273   1.90108   1.90662   1.91369   1.91431
 Alpha virt. eigenvalues --    1.92002   1.93132   1.93982   1.94837   1.95310
 Alpha virt. eigenvalues --    1.96234   1.96658   1.97996   1.98947   1.99330
 Alpha virt. eigenvalues --    1.99642   2.00128   2.01136   2.01788   2.02358
 Alpha virt. eigenvalues --    2.02750   2.03364   2.03742   2.04249   2.04686
 Alpha virt. eigenvalues --    2.05538   2.06112   2.07021   2.08236   2.08436
 Alpha virt. eigenvalues --    2.09251   2.10061   2.10996   2.11341   2.11839
 Alpha virt. eigenvalues --    2.12275   2.13639   2.14367   2.14989   2.15469
 Alpha virt. eigenvalues --    2.16224   2.17425   2.17507   2.19163   2.19314
 Alpha virt. eigenvalues --    2.19924   2.20512   2.20981   2.21364   2.22523
 Alpha virt. eigenvalues --    2.23730   2.26018   2.26683   2.26951   2.28962
 Alpha virt. eigenvalues --    2.32962   2.33344   2.33792   2.35582   2.36505
 Alpha virt. eigenvalues --    2.37571   2.39841   2.40547   2.40982   2.42524
 Alpha virt. eigenvalues --    2.42830   2.43266   2.44292   2.44864   2.46211
 Alpha virt. eigenvalues --    2.47024   2.47131   2.47647   2.48678   2.49693
 Alpha virt. eigenvalues --    2.50786   2.51845   2.52133   2.52386   2.52551
 Alpha virt. eigenvalues --    2.52749   2.53624   2.53806   2.54460   2.55860
 Alpha virt. eigenvalues --    2.56724   2.57374   2.59016   2.59229   2.60327
 Alpha virt. eigenvalues --    2.62864   2.63592   2.64055   2.65540   2.66362
 Alpha virt. eigenvalues --    2.67100   2.67426   2.67634   2.67886   2.68404
 Alpha virt. eigenvalues --    2.69406   2.70343   2.71020   2.71156   2.71832
 Alpha virt. eigenvalues --    2.72652   2.73256   2.73764   2.73996   2.75036
 Alpha virt. eigenvalues --    2.76391   2.76624   2.77474   2.78360   2.80651
 Alpha virt. eigenvalues --    2.80924   2.81761   2.82725   2.83123   2.83341
 Alpha virt. eigenvalues --    2.84567   2.84920   2.85595   2.86293   2.87194
 Alpha virt. eigenvalues --    2.87809   2.88155   2.88917   2.89479   2.89808
 Alpha virt. eigenvalues --    2.91313   2.92681   2.92985   2.93409   2.94746
 Alpha virt. eigenvalues --    2.95110   2.95685   2.96314   2.97745   2.98366
 Alpha virt. eigenvalues --    3.00331   3.01962   3.02725   3.03177   3.04028
 Alpha virt. eigenvalues --    3.06142   3.06674   3.07810   3.09329   3.10630
 Alpha virt. eigenvalues --    3.11832   3.12888   3.14133   3.15091   3.15651
 Alpha virt. eigenvalues --    3.16415   3.17845   3.18930   3.20512   3.21316
 Alpha virt. eigenvalues --    3.23270   3.23569   3.23788   3.25167   3.27872
 Alpha virt. eigenvalues --    3.28920   3.30064   3.31568   3.32136   3.34541
 Alpha virt. eigenvalues --    3.34714   3.35212   3.35739   3.35861   3.38270
 Alpha virt. eigenvalues --    3.38822   3.40325   3.40908   3.42988   3.43481
 Alpha virt. eigenvalues --    3.45241   3.45771   3.46735   3.49781   3.50229
 Alpha virt. eigenvalues --    3.51411   3.54464   3.55985   3.58543   3.60565
 Alpha virt. eigenvalues --    3.61282   3.62984   3.65619   3.66443   3.67165
 Alpha virt. eigenvalues --    3.69947   3.71355   3.72655   3.73532   3.75381
 Alpha virt. eigenvalues --    3.76386   3.76660   3.81173   3.82862   3.84488
 Alpha virt. eigenvalues --    3.85773   3.86752   3.89887   3.91361   3.93326
 Alpha virt. eigenvalues --    3.93427   3.94937   3.97212   4.01842   4.03140
 Alpha virt. eigenvalues --    4.04954   4.08194   4.10172   4.13389   4.14261
 Alpha virt. eigenvalues --    4.20012   4.24362   4.25705   4.28004   4.35967
 Alpha virt. eigenvalues --    4.39805   4.41532   4.53181   4.69600   4.85043
 Alpha virt. eigenvalues --    4.86275   4.87589   4.90819   5.01173   5.02289
 Alpha virt. eigenvalues --    5.04164   5.05665   5.06361   5.08118   5.11805
 Alpha virt. eigenvalues --    5.14132   5.25258   5.27433   5.29494   5.31291
 Alpha virt. eigenvalues --    5.41816   5.42814   5.76170   5.76686   5.80417
 Alpha virt. eigenvalues --    5.80945   5.82614   5.85535   8.02469   8.05904
 Alpha virt. eigenvalues --   17.28735  17.32364  17.49660  17.52352  17.58290
 Alpha virt. eigenvalues --   17.63184  23.48806  23.56526  23.71153  23.79198
 Alpha virt. eigenvalues --   23.82439  23.83214  23.85725  23.87262  23.87650
 Alpha virt. eigenvalues --   23.88578  23.89355  23.90110  23.91089  23.93360
 Alpha virt. eigenvalues --   23.95004  23.95582  23.96725  23.98510  24.00272
 Alpha virt. eigenvalues --   24.02075  24.02391  24.05728  24.09735  24.14457
 Alpha virt. eigenvalues --   24.15223  24.15393  35.56401  35.59578  49.95957
 Alpha virt. eigenvalues --   49.97572  50.02623  50.04433  50.06334  50.08045
 Alpha virt. eigenvalues --  189.19786 189.23587
          Condensed to atoms (all electrons):
 Mulliken charges:
               1
     1  C    0.309468
     2  C   -0.045387
     3  C    0.180337
     4  C    0.138134
     5  C    0.279771
     6  C   -0.005482
     7  C    0.119090
     8  C    0.167745
     9  C    0.440117
    10  C   -0.124881
    11  C    0.237608
    12  C    0.098268
    13  C   -0.481819
    14  C   -0.609058
    15  H    0.157258
    16  H    0.160618
    17  H    0.158800
    18  N   -0.162793
    19  N   -0.143979
    20  O   -0.287927
    21  O   -0.266259
    22  O   -0.280172
    23  O   -0.219656
    24  C   -0.190882
    25  H    0.174143
    26  H    0.175760
    27  H    0.183388
    28  C   -0.197548
    29  H    0.172707
    30  H    0.173688
    31  H    0.182818
    32  C   -0.190403
    33  C   -0.410491
    34  S   -0.570372
    35  C   -0.316254
    36  H    0.131581
    37  C    0.653706
    38  O   -0.134980
    39  C    0.820850
    40  C   -0.227483
    41  C   -0.044128
    42  S   -0.251914
    43  H    0.168142
    44  H    0.149502
    45  H    0.150489
    46  C   -0.532453
    47  O   -0.113712
    48  C   -0.290320
    49  H    0.132779
    50  C   -0.243704
    51  H    0.162655
    52  H    0.146476
    53  H    0.170433
    54  H    0.145724
 Sum of Mulliken charges =  -0.00000
 Mulliken charges with hydrogens summed into heavy atoms:
               1
     1  C    0.309468
     2  C   -0.045387
     3  C    0.180337
     4  C    0.138134
     5  C    0.279771
     6  C    0.153318
     7  C    0.119090
     8  C    0.167745
     9  C    0.440117
    10  C   -0.124881
    11  C    0.237608
    12  C    0.098268
    13  C   -0.321201
    14  C   -0.451799
    18  N   -0.162793
    19  N   -0.143979
    20  O   -0.287927
    21  O   -0.266259
    22  O   -0.280172
    23  O   -0.219656
    24  C    0.342408
    28  C    0.331665
    32  C   -0.190403
    33  C   -0.278911
    34  S   -0.570372
    35  C   -0.316254
    37  C    0.653706
    38  O   -0.134980
    39  C    0.820850
    40  C    0.240651
    41  C   -0.044128
    42  S   -0.251914
    46  C   -0.399674
    47  O   -0.113712
    48  C   -0.127665
    50  C    0.218928
 Electronic spatial extent (au):  <R**2>=          22477.4032
 Charge=             -0.0000 electrons
 Dipole moment (field-independent basis, Debye):
    X=              5.4430    Y=             -0.7914    Z=              0.1234  Tot=              5.5016
 Quadrupole moment (field-independent basis, Debye-Ang):
   XX=           -211.0546   YY=           -214.8170   ZZ=           -220.7172
   XY=             12.8917   XZ=              7.4346   YZ=              8.8634
 Traceless Quadrupole moment (field-independent basis, Debye-Ang):
   XX=              4.4750   YY=              0.7126   ZZ=             -5.1876
   XY=             12.8917   XZ=              7.4346   YZ=              8.8634
 Octapole moment (field-independent basis, Debye-Ang**2):
  XXX=            409.1643  YYY=            -54.9248  ZZZ=             -2.4941  XYY=            123.2155
  XXY=             31.2709  XXZ=             31.8623  XZZ=             -1.3353  YZZ=             -0.7380
  YYZ=            -11.9453  XYZ=             32.1418
 Hexadecapole moment (field-independent basis, Debye-Ang**3):
 XXXX=         -21404.4437 YYYY=          -7695.0821 ZZZZ=           -644.6356 XXXY=            287.8507
 XXXZ=            460.9545 YYYX=            481.9622 YYYZ=             86.0304 ZZZX=            -21.5127
 ZZZY=              3.0754 XXYY=          -4703.0755 XXZZ=          -3861.5268 YYZZ=          -1326.6166
 XXYZ=            179.5645 YYXZ=            -24.2078 ZZXY=             53.9159
 N-N= 4.096060974923D+03 E-N=-1.373230051600D+04  KE= 2.352053478349D+03
 Unable to Open any file for archive entry.
 1\1\GINC-CX3-6-6\FOpt\RB3LYP\6-311+G(d,p)\C26H18N2O6S2\NS5018\29-Nov-2
 020\0\\# opt=modredundant b3lyp/6-311+g(d,p)\\NDI_-170.pdb\\0,1\C,-2.3
 211046397,-2.8632935094,-0.3630119686\C,-2.1695315894,-1.3885826436,-0
 .247680485\C,-3.2917188311,-0.5694489504,0.0101717388\C,-4.5728318585,
 -1.1347934033,0.1517176735\C,-4.764768241,-2.6040269916,0.0272068084\C
 ,-0.9285710184,-0.8349248395,-0.385403548\C,-3.0880370668,0.8327039526
 ,0.1138746738\C,-1.7814316773,1.4026090592,-0.0259724025\C,-0.65392820
 4,0.5686405974,-0.2786349278\C,-1.6922470598,2.876551229,0.0040836746\
 C,-4.1331923102,3.103708537,0.4396969802\C,-4.2348222786,1.6319217141,
 0.3550086936\C,-5.491696827,1.0577992721,0.4991139011\C,-5.6697603861,
 -0.3232299642,0.4005724189\H,-6.6478422386,-0.7741219112,0.5067090983\
 H,-6.3314887498,1.715730727,0.6834769126\H,-0.1193264107,-1.5316117883
 ,-0.531764769\N,-2.8588568128,3.626877212,0.2256828758\N,-3.6161648783
 ,-3.3733643043,-0.2336523375\O,-1.3789185863,-3.6120841141,-0.55307317
 98\O,-5.8572442852,-3.1264038759,0.1427690675\O,-5.0929646171,3.821062
 9727,0.666808602\O,-0.6491890546,3.4904118539,-0.1612427186\C,-2.69043
 49639,5.0867711347,0.2492973688\H,-1.9941306177,5.366986277,1.04001737
 81\H,-2.2824608984,5.4261690117,-0.7027054311\H,-3.6660503126,5.527758
 5455,0.4274458094\C,-3.7590798308,-4.8310605827,-0.3559902647\H,-3.381
 1060333,-5.1560434464,-1.325373322\H,-3.1790290554,-5.3260592145,0.423
 499744\H,-4.8124383719,-5.0727142198,-0.2562797513\C,0.7739459262,0.89
 29771289,-0.3693768695\C,1.7325268951,-0.018693342,-0.8258377727\S,1.5
 944952896,2.2840683614,0.3246579845\C,3.055774029,0.3760019056,-0.6131
 821938\H,1.485590614,-0.937843793,-1.3316041937\C,3.1772467643,1.59839
 16355,0.053466784\O,4.1773963796,-0.3045106466,-0.9714874401\C,4.39134
 64721,2.2666771739,0.424867836\C,4.0240448484,-1.4817834187,-1.7590500
 68\C,4.5254812041,3.4887514373,1.0806505078\S,5.9911440389,1.605645615
 1,0.0960987993\H,5.0322996271,-1.8318552401,-1.9725590141\H,3.47981133
 87,-2.2568609445,-1.209716731\H,3.5063730468,-1.2611500693,-2.69815963
 7\C,5.8720187848,3.882100042,1.3093501176\O,3.4146383798,4.1812613258,
 1.4287427678\C,6.7617469439,2.959688986,0.8317268976\H,6.1683648667,4.
 7968190961,1.8013062286\C,3.5753705827,5.4139049862,2.1254455998\H,7.8
 394484915,3.0038061395,0.8723688451\H,4.1258049901,6.1397642616,1.5186
 2527\H,2.5685518084,5.7841166982,2.3082416724\H,4.0889463836,5.2617843
 241,3.0800562959\\Version=ES64L-G16RevC.01\State=1-A\HF=-2359.3344324\
 RMSD=4.499e-09\RMSF=5.746e-04\Dipole=2.1008691,0.5139364,0.0854425\Qua
 drupole=-3.6087043,4.0684948,-0.4597905,7.4007988,4.1806875,9.5819137\
 PG=C01 [X(C26H18N2O6S2)]\\@
 The archive entry for this job was punched.


 THERE IS NO CURE FOR BIRTH AND DEATH SAVE TO ENJOY THE INTERVAL.

                               -- GEORGE SANTAYANA
 Job cpu time:       1 days 13 hours 23 minutes  6.1 seconds.
 Elapsed time:       0 days  4 hours 42 minutes 48.2 seconds.
 File lengths (MBytes):  RWF=    496 Int=      0 D2E=      0 Chk=     61 Scr=      1
 Normal termination of Gaussian 16 at Sun Nov 29 13:57:16 2020.
