 Entering Gaussian System, Link 0=g16
 Input=OBT_0.gjf
 Output=OBT_0.log
 Initial command:
 /apps/gaussian/g16-c01-avx/g16/l1.exe "/tmp/pbs.1729750[18].pbs/Gau-2252.inp" -scrdir="/tmp/pbs.1729750[18].pbs/"
 Entering Link 1 = /apps/gaussian/g16-c01-avx/g16/l1.exe PID=      2253.
  
 Copyright (c) 1988-2019, Gaussian, Inc.  All Rights Reserved.
  
 This is part of the Gaussian(R) 16 program.  It is based on
 the Gaussian(R) 09 system (copyright 2009, Gaussian, Inc.),
 the Gaussian(R) 03 system (copyright 2003, Gaussian, Inc.),
 the Gaussian(R) 98 system (copyright 1998, Gaussian, Inc.),
 the Gaussian(R) 94 system (copyright 1995, Gaussian, Inc.),
 the Gaussian 92(TM) system (copyright 1992, Gaussian, Inc.),
 the Gaussian 90(TM) system (copyright 1990, Gaussian, Inc.),
 the Gaussian 88(TM) system (copyright 1988, Gaussian, Inc.),
 the Gaussian 86(TM) system (copyright 1986, Carnegie Mellon
 University), and the Gaussian 82(TM) system (copyright 1983,
 Carnegie Mellon University). Gaussian is a federally registered
 trademark of Gaussian, Inc.
  
 This software contains proprietary and confidential information,
 including trade secrets, belonging to Gaussian, Inc.
  
 This software is provided under written license and may be
 used, copied, transmitted, or stored only in accord with that
 written license.
  
 The following legend is applicable only to US Government
 contracts under FAR:
  
                    RESTRICTED RIGHTS LEGEND
  
 Use, reproduction and disclosure by the US Government is
 subject to restrictions as set forth in subparagraphs (a)
 and (c) of the Commercial Computer Software - Restricted
 Rights clause in FAR 52.227-19.
  
 Gaussian, Inc.
 340 Quinnipiac St., Bldg. 40, Wallingford CT 06492
  
  
 ---------------------------------------------------------------
 Warning -- This program may not be used in any manner that
 competes with the business of Gaussian, Inc. or will provide
 assistance to any competitor of Gaussian, Inc.  The licensee
 of this program is prohibited from giving any competitor of
 Gaussian, Inc. access to this program.  By using this program,
 the user acknowledges that Gaussian, Inc. is engaged in the
 business of creating and licensing software in the field of
 computational chemistry and represents and warrants to the
 licensee that it is not a competitor of Gaussian, Inc. and that
 it will not use this program in any manner prohibited above.
 ---------------------------------------------------------------
  

 Cite this work as:
 Gaussian 16, Revision C.01,
 M. J. Frisch, G. W. Trucks, H. B. Schlegel, G. E. Scuseria, 
 M. A. Robb, J. R. Cheeseman, G. Scalmani, V. Barone, 
 G. A. Petersson, H. Nakatsuji, X. Li, M. Caricato, A. V. Marenich, 
 J. Bloino, B. G. Janesko, R. Gomperts, B. Mennucci, H. P. Hratchian, 
 J. V. Ortiz, A. F. Izmaylov, J. L. Sonnenberg, D. Williams-Young, 
 F. Ding, F. Lipparini, F. Egidi, J. Goings, B. Peng, A. Petrone, 
 T. Henderson, D. Ranasinghe, V. G. Zakrzewski, J. Gao, N. Rega, 
 G. Zheng, W. Liang, M. Hada, M. Ehara, K. Toyota, R. Fukuda, 
 J. Hasegawa, M. Ishida, T. Nakajima, Y. Honda, O. Kitao, H. Nakai, 
 T. Vreven, K. Throssell, J. A. Montgomery, Jr., J. E. Peralta, 
 F. Ogliaro, M. J. Bearpark, J. J. Heyd, E. N. Brothers, K. N. Kudin, 
 V. N. Staroverov, T. A. Keith, R. Kobayashi, J. Normand, 
 K. Raghavachari, A. P. Rendell, J. C. Burant, S. S. Iyengar, 
 J. Tomasi, M. Cossi, J. M. Millam, M. Klene, C. Adamo, R. Cammi, 
 J. W. Ochterski, R. L. Martin, K. Morokuma, O. Farkas, 
 J. B. Foresman, and D. J. Fox, Gaussian, Inc., Wallingford CT, 2019.
 
 ******************************************
 Gaussian 16:  ES64L-G16RevC.01  3-Jul-2019
                17-Jun-2020 
 ******************************************
 %mem=10GB
 %nprocshared=4
 Will use up to    4 processors via shared memory.
 -------------------------------------
 # opt=modredundant b3lyp/6-311+g(d,p)
 -------------------------------------
 1/18=120,19=15,26=3,38=1/1,3;
 2/9=110,12=2,17=6,18=5,40=1/2;
 3/5=4,6=6,7=111,11=2,25=1,30=1,71=1,74=-5/1,2,3;
 4//1;
 5/5=2,38=5/2;
 6/7=2,8=2,9=2,10=2,28=1/1;
 7//1,2,3,16;
 1/18=20,19=15,26=3/3(2);
 2/9=110/2;
 99//99;
 2/9=110/2;
 3/5=4,6=6,7=111,11=2,25=1,30=1,71=1,74=-5/1,2,3;
 4/5=5,16=3,69=1/1;
 5/5=2,38=5/2;
 7//1,2,3,16;
 1/18=20,19=15,26=3/3(-5);
 2/9=110/2;
 6/7=2,8=2,9=2,10=2,19=2,28=1/1;
 99/9=1/99;
 ---------
 OBT_0.pdb
 ---------
 Symbolic Z-matrix:
 Charge =  0 Multiplicity = 1
 C                    -0.159    -2.157     0.002 
 C                     1.062    -2.818     0.003 
 C                     0.959    -4.237     0.004 
 C                    -0.341    -4.658     0.002 
 S                    -1.46     -3.344     0.002 
 O                     2.218    -2.096     0.004 
 H                     1.803    -4.912     0.004 
 C                    -0.4      -0.737     0.002 
 C                    -1.62     -0.073     0.001 
 C                    -1.52      1.339     0.001 
 C                    -0.217     1.789     0.001 
 S                     0.903     0.445     0.001 
 O                    -2.775    -0.795     0.001 
 H                    -2.372     2.003     0.001 
 C                     3.456    -2.805     0.004 
 H                     3.537    -3.436    -0.887 
 H                     3.536    -3.436     0.896 
 C                    -4.014    -0.088     0.001 
 H                    -4.095     0.543    -0.891 
 H                    -4.096     0.544     0.892 
 C                     0.26      3.151     0.001 
 C                     1.56      3.607     0.002 
 C                     1.631     5.022     0.001 
 C                     0.398     5.662    -0.001 
 C                     0.474     7.081    -0.002 
 C                     1.772     7.506     0. 
 S                    -0.899     4.496    -0.002 
 S                     2.926     6.191     0.003 
 H                     2.418     2.948     0.004 
 H                    -0.374     7.752    -0.003 
 H                    -0.707    -5.673     0.002 
 H                     2.136     8.522     0. 
 H                    -4.729    -0.676     0.034 
 H                     4.353    -2.431     0.009 
 
 The following ModRedundant input section has been read:
 D       5       1       8       9 F                                           
 

 GradGradGradGradGradGradGradGradGradGradGradGradGradGradGradGradGradGrad
 Berny optimization.
 Initialization pass.
                           ----------------------------
                           !    Initial Parameters    !
                           ! (Angstroms and Degrees)  !
 --------------------------                            --------------------------
 ! Name  Definition              Value          Derivative Info.                !
 --------------------------------------------------------------------------------
 ! R1    R(1,2)                  1.3884         estimate D2E/DX2                !
 ! R2    R(1,5)                  1.7611         estimate D2E/DX2                !
 ! R3    R(1,8)                  1.4403         estimate D2E/DX2                !
 ! R4    R(2,3)                  1.4227         estimate D2E/DX2                !
 ! R5    R(2,6)                  1.3629         estimate D2E/DX2                !
 ! R6    R(3,4)                  1.3665         estimate D2E/DX2                !
 ! R7    R(3,7)                  1.0807         estimate D2E/DX2                !
 ! R8    R(4,5)                  1.7259         estimate D2E/DX2                !
 ! R9    R(4,31)                 1.079          estimate D2E/DX2                !
 ! R10   R(6,15)                 1.4266         estimate D2E/DX2                !
 ! R11   R(8,9)                  1.389          estimate D2E/DX2                !
 ! R12   R(8,12)                 1.7592         estimate D2E/DX2                !
 ! R13   R(9,10)                 1.4155         estimate D2E/DX2                !
 ! R14   R(9,13)                 1.3621         estimate D2E/DX2                !
 ! R15   R(10,11)                1.3785         estimate D2E/DX2                !
 ! R16   R(10,14)                1.0802         estimate D2E/DX2                !
 ! R17   R(11,12)                1.7495         estimate D2E/DX2                !
 ! R18   R(11,21)                1.4431         estimate D2E/DX2                !
 ! R19   R(13,18)                1.4265         estimate D2E/DX2                !
 ! R20   R(15,16)                1.0948         estimate D2E/DX2                !
 ! R21   R(15,17)                1.0955         estimate D2E/DX2                !
 ! R22   R(15,34)                0.9719         estimate D2E/DX2                !
 ! R23   R(18,19)                1.0956         estimate D2E/DX2                !
 ! R24   R(18,20)                1.0955         estimate D2E/DX2                !
 ! R25   R(18,33)                0.9263         estimate D2E/DX2                !
 ! R26   R(21,22)                1.3777         estimate D2E/DX2                !
 ! R27   R(21,27)                1.7755         estimate D2E/DX2                !
 ! R28   R(22,23)                1.4168         estimate D2E/DX2                !
 ! R29   R(22,29)                1.0819         estimate D2E/DX2                !
 ! R30   R(23,24)                1.3892         estimate D2E/DX2                !
 ! R31   R(23,28)                1.7446         estimate D2E/DX2                !
 ! R32   R(24,25)                1.421          estimate D2E/DX2                !
 ! R33   R(24,27)                1.7441         estimate D2E/DX2                !
 ! R34   R(25,26)                1.3658         estimate D2E/DX2                !
 ! R35   R(25,30)                1.0814         estimate D2E/DX2                !
 ! R36   R(26,28)                1.7496         estimate D2E/DX2                !
 ! R37   R(26,32)                1.0792         estimate D2E/DX2                !
 ! A1    A(2,1,5)              109.1941         estimate D2E/DX2                !
 ! A2    A(2,1,8)              128.0617         estimate D2E/DX2                !
 ! A3    A(5,1,8)              122.7442         estimate D2E/DX2                !
 ! A4    A(1,2,3)              114.2777         estimate D2E/DX2                !
 ! A5    A(1,2,6)              119.5831         estimate D2E/DX2                !
 ! A6    A(3,2,6)              126.1391         estimate D2E/DX2                !
 ! A7    A(2,3,4)              112.0959         estimate D2E/DX2                !
 ! A8    A(2,3,7)              124.4999         estimate D2E/DX2                !
 ! A9    A(4,3,7)              123.4041         estimate D2E/DX2                !
 ! A10   A(3,4,5)              112.4733         estimate D2E/DX2                !
 ! A11   A(3,4,31)             127.7732         estimate D2E/DX2                !
 ! A12   A(5,4,31)             119.7535         estimate D2E/DX2                !
 ! A13   A(1,5,4)               91.9589         estimate D2E/DX2                !
 ! A14   A(2,6,15)             118.2128         estimate D2E/DX2                !
 ! A15   A(1,8,9)              128.1901         estimate D2E/DX2                !
 ! A16   A(1,8,12)             122.58           estimate D2E/DX2                !
 ! A17   A(9,8,12)             109.2298         estimate D2E/DX2                !
 ! A18   A(8,9,10)             114.5068         estimate D2E/DX2                !
 ! A19   A(8,9,13)             119.4324         estimate D2E/DX2                !
 ! A20   A(10,9,13)            126.0609         estimate D2E/DX2                !
 ! A21   A(9,10,11)            113.1037         estimate D2E/DX2                !
 ! A22   A(9,10,14)            123.8798         estimate D2E/DX2                !
 ! A23   A(11,10,14)           123.0165         estimate D2E/DX2                !
 ! A24   A(10,11,12)           110.7529         estimate D2E/DX2                !
 ! A25   A(10,11,21)           128.354          estimate D2E/DX2                !
 ! A26   A(12,11,21)           120.8931         estimate D2E/DX2                !
 ! A27   A(8,12,11)             92.4068         estimate D2E/DX2                !
 ! A28   A(9,13,18)            118.2801         estimate D2E/DX2                !
 ! A29   A(6,15,16)            110.5261         estimate D2E/DX2                !
 ! A30   A(6,15,17)            110.4632         estimate D2E/DX2                !
 ! A31   A(6,15,34)            127.5663         estimate D2E/DX2                !
 ! A32   A(16,15,17)           108.9818         estimate D2E/DX2                !
 ! A33   A(16,15,34)            99.0734         estimate D2E/DX2                !
 ! A34   A(17,15,34)            98.6305         estimate D2E/DX2                !
 ! A35   A(13,18,19)           110.4658         estimate D2E/DX2                !
 ! A36   A(13,18,20)           110.5452         estimate D2E/DX2                !
 ! A37   A(13,18,33)           110.843          estimate D2E/DX2                !
 ! A38   A(19,18,20)           108.9288         estimate D2E/DX2                !
 ! A39   A(19,18,33)           109.7261         estimate D2E/DX2                !
 ! A40   A(20,18,33)           106.2282         estimate D2E/DX2                !
 ! A41   A(11,21,22)           128.6306         estimate D2E/DX2                !
 ! A42   A(11,21,27)           119.9469         estimate D2E/DX2                !
 ! A43   A(22,21,27)           111.4225         estimate D2E/DX2                !
 ! A44   A(21,22,23)           112.2018         estimate D2E/DX2                !
 ! A45   A(21,22,29)           123.1441         estimate D2E/DX2                !
 ! A46   A(23,22,29)           124.6541         estimate D2E/DX2                !
 ! A47   A(22,23,24)           114.5595         estimate D2E/DX2                !
 ! A48   A(22,23,28)           134.945          estimate D2E/DX2                !
 ! A49   A(24,23,28)           110.4954         estimate D2E/DX2                !
 ! A50   A(23,24,25)           114.3662         estimate D2E/DX2                !
 ! A51   A(23,24,27)           110.6126         estimate D2E/DX2                !
 ! A52   A(25,24,27)           135.0212         estimate D2E/DX2                !
 ! A53   A(24,25,26)           111.1955         estimate D2E/DX2                !
 ! A54   A(24,25,30)           125.2879         estimate D2E/DX2                !
 ! A55   A(26,25,30)           123.5166         estimate D2E/DX2                !
 ! A56   A(25,26,28)           113.1394         estimate D2E/DX2                !
 ! A57   A(25,26,32)           127.8407         estimate D2E/DX2                !
 ! A58   A(28,26,32)           119.0199         estimate D2E/DX2                !
 ! A59   A(21,27,24)            91.2036         estimate D2E/DX2                !
 ! A60   A(23,28,26)            90.8034         estimate D2E/DX2                !
 ! D1    D(5,1,2,3)             -0.0112         estimate D2E/DX2                !
 ! D2    D(5,1,2,6)           -179.9607         estimate D2E/DX2                !
 ! D3    D(8,1,2,3)            179.9421         estimate D2E/DX2                !
 ! D4    D(8,1,2,6)             -0.0074         estimate D2E/DX2                !
 ! D5    D(2,1,5,4)             -0.0437         estimate D2E/DX2                !
 ! D6    D(8,1,5,4)            180.0            estimate D2E/DX2                !
 ! D7    D(2,1,8,9)            179.9999         estimate D2E/DX2                !
 ! D8    D(2,1,8,12)             0.0911         estimate D2E/DX2                !
 ! D9    D(5,1,8,9)             -0.0525         Frozen                          !
 ! D10   D(5,1,8,12)          -179.9613         estimate D2E/DX2                !
 ! D11   D(1,2,3,4)              0.0798         estimate D2E/DX2                !
 ! D12   D(1,2,3,7)            179.9452         estimate D2E/DX2                !
 ! D13   D(6,2,3,4)           -179.9746         estimate D2E/DX2                !
 ! D14   D(6,2,3,7)             -0.1091         estimate D2E/DX2                !
 ! D15   D(1,2,6,15)          -179.9539         estimate D2E/DX2                !
 ! D16   D(3,2,6,15)             0.1031         estimate D2E/DX2                !
 ! D17   D(2,3,4,5)             -0.1122         estimate D2E/DX2                !
 ! D18   D(2,3,4,31)           179.9875         estimate D2E/DX2                !
 ! D19   D(7,3,4,5)           -179.9794         estimate D2E/DX2                !
 ! D20   D(7,3,4,31)             0.1203         estimate D2E/DX2                !
 ! D21   D(3,4,5,1)              0.0908         estimate D2E/DX2                !
 ! D22   D(31,4,5,1)           180.0            estimate D2E/DX2                !
 ! D23   D(2,6,15,16)           60.2965         estimate D2E/DX2                !
 ! D24   D(2,6,15,17)          -60.3954         estimate D2E/DX2                !
 ! D25   D(2,6,15,34)         -179.6758         estimate D2E/DX2                !
 ! D26   D(1,8,9,10)          -179.9864         estimate D2E/DX2                !
 ! D27   D(1,8,9,13)             0.0557         estimate D2E/DX2                !
 ! D28   D(12,8,9,10)           -0.0677         estimate D2E/DX2                !
 ! D29   D(12,8,9,13)          179.9744         estimate D2E/DX2                !
 ! D30   D(1,8,12,11)          179.9806         estimate D2E/DX2                !
 ! D31   D(9,8,12,11)            0.0564         estimate D2E/DX2                !
 ! D32   D(8,9,10,11)            0.0453         estimate D2E/DX2                !
 ! D33   D(8,9,10,14)         -179.9547         estimate D2E/DX2                !
 ! D34   D(13,9,10,11)         180.0            estimate D2E/DX2                !
 ! D35   D(13,9,10,14)           0.0            estimate D2E/DX2                !
 ! D36   D(8,9,13,18)          179.9526         estimate D2E/DX2                !
 ! D37   D(10,9,13,18)           0.0            estimate D2E/DX2                !
 ! D38   D(9,10,11,12)           0.0            estimate D2E/DX2                !
 ! D39   D(9,10,11,21)         180.0            estimate D2E/DX2                !
 ! D40   D(14,10,11,12)        180.0            estimate D2E/DX2                !
 ! D41   D(14,10,11,21)          0.0            estimate D2E/DX2                !
 ! D42   D(10,11,12,8)          -0.0326         estimate D2E/DX2                !
 ! D43   D(21,11,12,8)         179.9674         estimate D2E/DX2                !
 ! D44   D(10,11,21,22)        179.9468         estimate D2E/DX2                !
 ! D45   D(10,11,21,27)         -0.1117         estimate D2E/DX2                !
 ! D46   D(12,11,21,22)         -0.0532         estimate D2E/DX2                !
 ! D47   D(12,11,21,27)        179.8883         estimate D2E/DX2                !
 ! D48   D(9,13,18,19)          60.3427         estimate D2E/DX2                !
 ! D49   D(9,13,18,20)         -60.2969         estimate D2E/DX2                !
 ! D50   D(9,13,18,33)        -177.8154         estimate D2E/DX2                !
 ! D51   D(11,21,22,23)        179.9726         estimate D2E/DX2                !
 ! D52   D(11,21,22,29)         -0.0661         estimate D2E/DX2                !
 ! D53   D(27,21,22,23)          0.027          estimate D2E/DX2                !
 ! D54   D(27,21,22,29)        179.9883         estimate D2E/DX2                !
 ! D55   D(11,21,27,24)       -179.9791         estimate D2E/DX2                !
 ! D56   D(22,21,27,24)         -0.0282         estimate D2E/DX2                !
 ! D57   D(21,22,23,24)         -0.0108         estimate D2E/DX2                !
 ! D58   D(21,22,23,28)        179.9283         estimate D2E/DX2                !
 ! D59   D(29,22,23,24)       -179.9714         estimate D2E/DX2                !
 ! D60   D(29,22,23,28)         -0.0324         estimate D2E/DX2                !
 ! D61   D(22,23,24,25)       -179.9999         estimate D2E/DX2                !
 ! D62   D(22,23,24,27)         -0.0108         estimate D2E/DX2                !
 ! D63   D(28,23,24,25)          0.0462         estimate D2E/DX2                !
 ! D64   D(28,23,24,27)       -179.9648         estimate D2E/DX2                !
 ! D65   D(22,23,28,26)       -179.9765         estimate D2E/DX2                !
 ! D66   D(24,23,28,26)         -0.0357         estimate D2E/DX2                !
 ! D67   D(23,24,25,26)         -0.0333         estimate D2E/DX2                !
 ! D68   D(23,24,25,30)       -179.9641         estimate D2E/DX2                !
 ! D69   D(27,24,25,26)        179.9812         estimate D2E/DX2                !
 ! D70   D(27,24,25,30)          0.0504         estimate D2E/DX2                !
 ! D71   D(23,24,27,21)          0.0218         estimate D2E/DX2                !
 ! D72   D(25,24,27,21)       -179.9924         estimate D2E/DX2                !
 ! D73   D(24,25,26,28)          0.0048         estimate D2E/DX2                !
 ! D74   D(24,25,26,32)       -179.9894         estimate D2E/DX2                !
 ! D75   D(30,25,26,28)        179.937          estimate D2E/DX2                !
 ! D76   D(30,25,26,32)         -0.0572         estimate D2E/DX2                !
 ! D77   D(25,26,28,23)          0.0178         estimate D2E/DX2                !
 ! D78   D(32,26,28,23)       -179.9874         estimate D2E/DX2                !
 --------------------------------------------------------------------------------
 Trust Radius=3.00D-01 FncErr=1.00D-07 GrdErr=1.00D-06 EigMax=2.50D+02 EigMin=1.00D-04
 Number of steps in this run=    185 maximum allowed number of steps=    204.
 GradGradGradGradGradGradGradGradGradGradGradGradGradGradGradGradGradGrad

                          Input orientation:                          
 ---------------------------------------------------------------------
 Center     Atomic      Atomic             Coordinates (Angstroms)
 Number     Number       Type             X           Y           Z
 ---------------------------------------------------------------------
      1          6           0       -0.159000   -2.157000    0.002000
      2          6           0        1.062000   -2.818000    0.003000
      3          6           0        0.959000   -4.237000    0.004000
      4          6           0       -0.341000   -4.658000    0.002000
      5         16           0       -1.460000   -3.344000    0.002000
      6          8           0        2.218000   -2.096000    0.004000
      7          1           0        1.803000   -4.912000    0.004000
      8          6           0       -0.400000   -0.737000    0.002000
      9          6           0       -1.620000   -0.073000    0.001000
     10          6           0       -1.520000    1.339000    0.001000
     11          6           0       -0.217000    1.789000    0.001000
     12         16           0        0.903000    0.445000    0.001000
     13          8           0       -2.775000   -0.795000    0.001000
     14          1           0       -2.372000    2.003000    0.001000
     15          6           0        3.456000   -2.805000    0.004000
     16          1           0        3.537000   -3.436000   -0.887000
     17          1           0        3.536000   -3.436000    0.896000
     18          6           0       -4.014000   -0.088000    0.001000
     19          1           0       -4.095000    0.543000   -0.891000
     20          1           0       -4.096000    0.544000    0.892000
     21          6           0        0.260000    3.151000    0.001000
     22          6           0        1.560000    3.607000    0.002000
     23          6           0        1.631000    5.022000    0.001000
     24          6           0        0.398000    5.662000   -0.001000
     25          6           0        0.474000    7.081000   -0.002000
     26          6           0        1.772000    7.506000    0.000000
     27         16           0       -0.899000    4.496000   -0.002000
     28         16           0        2.926000    6.191000    0.003000
     29          1           0        2.418000    2.948000    0.004000
     30          1           0       -0.374000    7.752000   -0.003000
     31          1           0       -0.707000   -5.673000    0.002000
     32          1           0        2.136000    8.522000    0.000000
     33          1           0       -4.729000   -0.676000    0.034000
     34          1           0        4.353000   -2.431000    0.009000
 ---------------------------------------------------------------------
                    Distance matrix (angstroms):
                    1          2          3          4          5
     1  C    0.000000
     2  C    1.388439   0.000000
     3  C    2.361425   1.422734   0.000000
     4  C    2.507613   2.313873   1.366472   0.000000
     5  S    1.761127   2.576269   2.578568   1.725908   0.000000
     6  O    2.377783   1.362946   2.483740   3.621095   3.883966
     7  H    3.382229   2.221242   1.080722   2.158994   3.620193
     8  C    1.440306   2.543227   3.754582   3.921444   2.814258
     9  C    2.545109   3.837728   4.897974   4.760049   3.274911
    10  C    3.751578   4.893606   6.102231   6.111796   4.683384
    11  C    3.946426   4.781244   6.139679   6.448192   5.281358
    12  S    2.810382   3.266872   4.682336   5.252442   4.465455
    13  O    2.949322   4.337638   5.078398   4.565865   2.868210
    14  H    4.712003   5.918986   7.073413   6.963755   5.424219
    15  C    3.672619   2.394036   2.878478   4.225023   4.945461
    16  H    4.010808   2.701786   2.842810   4.162029   5.076297
    17  H    4.010998   2.701860   2.842216   4.162169   5.076191
    18  C    4.375133   5.763565   6.476491   5.863090   4.138170
    19  H    4.855877   6.220145   7.013725   6.476138   4.780109
    20  H    4.856693   6.220798   7.014238   6.477108   4.780914
    21  C    5.324512   6.022638   7.420994   7.832093   6.718886
    22  C    6.014870   6.444271   7.866991   8.480803   7.578707
    23  C    7.398793   7.860621   9.283355   9.878825   8.918758
    24  C    7.838815   8.505957   9.914885  10.346426   9.195663
    25  C    9.259662   9.916449  11.328388  11.767258  10.602877
    26  C    9.854052  10.348386  11.771110  12.346160  11.321145
    27  S    6.694029   7.572327   8.928465   9.170992   7.860047
    28  S    8.899794   9.199814  10.611893  11.330229  10.495391
    29  H    5.718563   5.923301   7.331637   8.090941   7.391086
    30  H    9.911333  10.667100  12.062879  12.410045  11.149020
    31  H    3.558449   3.358629   2.199467   1.078972   2.447703
    32  H   10.922823  11.390746  12.813174  13.410739  12.398918
    33  H    4.804090   6.174529   6.710810   5.925529   4.219669
    34  H    4.520317   3.313682   3.844593   5.195499   5.884266
                    6          7          8          9         10
     6  O    0.000000
     7  H    2.846415   0.000000
     8  C    2.949713   4.720576   0.000000
     9  C    4.338523   5.927298   1.388991   0.000000
    10  C    5.076601   7.079360   2.358851   1.415537   0.000000
    11  C    4.585026   6.998843   2.532620   2.331406   1.378517
    12  S    2.861104   5.432077   1.759242   2.575627   2.582666
    13  O    5.159715   6.156930   2.375708   1.362097   2.475678
    14  H    6.153853   8.077615   3.375853   2.208004   1.080185
    15  C    1.426648   2.678032   4.375542   5.764513   6.475594
    16  H    2.080683   2.445243   4.855398   6.220367   7.011592
    17  H    2.080478   2.444899   4.855505   6.220541   7.011761
    18  C    6.547511   7.557015   3.671811   2.394047   2.873389
    19  H    6.900675   8.083592   4.011094   2.701989   2.838997
    20  H    6.901068   8.084224   4.011668   2.702803   2.839310
    21  C    5.600427   8.209313   3.943621   3.732101   2.540028
    22  C    5.740834   8.522465   4.765704   4.863620   3.824948
    23  C    7.142164   9.935489   6.106639   6.043842   4.846988
    24  C    7.968625  10.666936   6.448567   6.079684   4.729382
    25  C    9.341247  12.066413   7.866703   7.454164   6.078372
    26  C    9.612353  12.418039   8.524356   8.303427   6.990648
    27  S    7.291789   9.788325   5.256739   4.625539   3.217499
    28  S    8.317189  11.159648   7.685015   7.739756   6.580944
    29  H    5.047964   7.884023   4.639003   5.043004   4.254026
    30  H   10.183399  12.849758   8.489041   7.923582   6.514591
    31  H    4.620666   2.622828   4.945538   5.673938   7.058974
    32  H   10.618317  13.438127   9.600020   9.379849   8.059890
    33  H    7.090706   7.785346   4.329548   3.167109   3.789326
    34  H    2.161128   3.557792   5.045859   6.421601   6.978903
                   11         12         13         14         15
    11  C    0.000000
    12  S    1.749496   0.000000
    13  O    3.635990   3.881402   0.000000
    14  H    2.165599   3.626705   2.826873   0.000000
    15  C    5.881817   4.132834   6.547173   7.555293   0.000000
    16  H    6.494743   4.773747   6.899621   8.080071   1.094807
    17  H    6.495126   4.774503   6.899611   8.080112   1.095548
    18  C    4.235604   4.945804   1.426524   2.658655   7.948773
    19  H    4.169780   5.077920   2.080459   2.428167   8.308293
    20  H    4.170197   5.078748   2.081308   2.427908   8.308854
    21  C    1.443112   2.781346   4.978166   2.871468   6.759317
    22  C    2.542214   3.229535   6.178174   4.246580   6.686446
    23  C    3.723895   4.634535   7.297282   5.013818   8.036950
    24  C    3.921525   5.241385   7.194497   4.589247   9.002304
    25  C    5.336924   6.649853   8.519823   5.821152  10.325955
    26  C    6.053116   7.114273   9.464767   6.888813  10.447612
    27  S    2.791591   4.433713   5.613739   2.895650   8.501215
    28  S    5.408887   6.091720   9.016962   6.753381   9.011599
    29  H    2.878631   2.925789   6.401352   4.882329   5.845892
    30  H    5.965068   7.417749   8.877839   6.086298  11.230280
    31  H    7.478071   6.326296   5.298255   7.854502   5.055294
    32  H    7.132314   8.170570  10.532066   7.925871  11.403655
    33  H    5.141542   5.742574   1.957898   3.568414   8.457409
    34  H    6.220399   4.491541   7.313340   8.055187   0.971859
                   16         17         18         19         20
    16  H    0.000000
    17  H    1.783000   0.000000
    18  C    8.307542   8.307384   0.000000
    19  H    8.606967   8.789651   1.095621   0.000000
    20  H    8.790218   8.607429   1.095458   1.783001   0.000000
    21  C    7.410522   7.410922   5.362667   5.153965   5.154131
    22  C    7.369037   7.369373   6.687488   6.493425   6.493412
    23  C    8.715454   8.715952   7.614337   7.324219   7.324267
    24  C    9.664984   9.665674   7.247637   6.869011   6.869309
    25  C   10.989653  10.990429   8.457938   8.025679   8.025989
    26  C   11.118874  11.119437   9.547075   9.148712   9.148690
    27  S    9.131152   9.131936   5.542228   5.160518   5.161235
    28  S    9.687340   9.687553   9.358923   9.055031   9.054690
    29  H    6.542285   6.542251   7.112519   7.000301   6.999997
    30  H   11.884811  11.885607   8.643796   8.161131   8.161469
    31  H    4.879142   4.879186   6.490645   7.135450   7.136421
    32  H   12.072420  12.072969  10.580860  10.162858  10.162774
    33  H    8.763139   8.756190   0.926314   1.656364   1.620263
    34  H    1.574388   1.569803   8.688867   9.001299   9.000884
                   21         22         23         24         25
    21  C    0.000000
    22  C    1.377656   0.000000
    23  C    2.319543   1.416781   0.000000
    24  C    2.514790   2.360779   1.389206   0.000000
    25  C    3.935823   3.639792   2.361808   1.421034   0.000000
    26  C    4.610008   3.904760   2.487999   2.299611   1.365809
    27  S    1.775476   2.614769   2.584102   1.744066   2.927004
    28  S    4.043409   2.922843   1.744589   2.582758   2.608530
    29  H    2.167529   1.081873   2.218300   3.383226   4.567369
    30  H    4.644478   4.573992   3.387173   2.228023   1.081363
    31  H    8.876827   9.552889  10.947569  11.388734  12.808563
    32  H    5.689202   4.948637   3.536245   3.346677   2.199711
    33  H    6.287856   7.608984   8.539197   8.152153   9.340426
    34  H    6.921809   6.652694   7.934517   9.007706  10.272532
                   26         27         28         29         30
    26  C    0.000000
    27  S    4.024220   0.000000
    28  S    1.749557   4.183739   0.000000
    29  H    4.603553   3.660441   3.282547   0.000000
    30  H    2.160056   3.298054   3.650583   5.556413   0.000000
    31  H   13.410126  10.170813  12.407787   9.169911  13.429130
    32  H    1.079237   5.041816   2.461233   5.581130   2.625454
    33  H   10.450324   6.435820  10.283758   8.013357   9.486758
    34  H   10.266723   8.692926   8.739293   5.716458  11.226672
                   31         32         33         34
    31  H    0.000000
    32  H   14.476902   0.000000
    33  H    6.414633  11.477482   0.000000
    34  H    6.009510  11.175123   9.250047   0.000000
 Stoichiometry    C16H12O2S4
 Framework group  C1[X(C16H12O2S4)]
 Deg. of freedom    96
 Full point group                 C1      NOp   1
 Largest Abelian subgroup         C1      NOp   1
 Largest concise Abelian subgroup C1      NOp   1
                         Standard orientation:                         
 ---------------------------------------------------------------------
 Center     Atomic      Atomic             Coordinates (Angstroms)
 Number     Number       Type             X           Y           Z
 ---------------------------------------------------------------------
      1          6           0       -3.285464   -0.141928   -0.000547
      2          6           0       -3.747529   -1.451225   -0.000211
      3          6           0       -5.165191   -1.571247    0.000347
      4          6           0       -5.784177   -0.353011   -0.001325
      5         16           0       -4.661195    0.957587   -0.000478
      6          8           0       -2.853745   -2.480191    0.000615
      7          1           0       -5.700001   -2.510363   -0.000186
      8          6           0       -1.920573    0.318023    0.000019
      9          6           0       -1.455388    1.626801   -0.000316
     10          6           0       -0.045110    1.748691    0.000124
     11          6           0        0.602989    0.532025   -0.000195
     12         16           0       -0.549468   -0.784249   -0.001053
     13          8           0       -2.349016    2.654778   -0.000143
     14          1           0        0.477585    2.693990    0.000656
     15          6           0       -3.360564   -3.813780   -0.000072
     16          1           0       -3.970906   -3.992030   -0.891314
     17          1           0       -3.971556   -3.991772    0.891686
     18          6           0       -1.844329    3.989042    0.000543
     19          1           0       -1.233494    4.168023   -0.891214
     20          1           0       -1.233156    4.168436    0.891786
     21          6           0        2.022799    0.273734    0.000092
     22          6           0        2.676355   -0.939032    0.000776
     23          6           0        4.085065   -0.788029    0.000228
     24          6           0        4.524514    0.529839   -0.001110
     25          6           0        5.937956    0.676529   -0.001659
     26          6           0        6.560580   -0.539106    0.000015
     27         16           0        3.170150    1.628686   -0.002035
     28         16           0        5.442079   -1.884431    0.002155
     29          1           0        2.159536   -1.889477    0.002244
     30          1           0        6.468190    1.618972   -0.002126
     31          1           0       -6.843903   -0.150128   -0.001536
     32          1           0        7.620982   -0.739857    0.000227
     33          1           0       -2.536851    4.603354    0.033603
     34          1           0       -2.850981   -4.641313    0.004730
 ---------------------------------------------------------------------
 Rotational constants (GHZ):           0.4518687           0.0968152           0.0798129
 Standard basis: 6-311+G(d,p) (5D, 7F)
 There are   610 symmetry adapted cartesian basis functions of A   symmetry.
 There are   588 symmetry adapted basis functions of A   symmetry.
   588 basis functions,   944 primitive gaussians,   610 cartesian basis functions
    94 alpha electrons       94 beta electrons
       nuclear repulsion energy      2228.4748731898 Hartrees.
 NAtoms=   34 NActive=   34 NUniq=   34 SFac= 1.00D+00 NAtFMM=   60 NAOKFM=F Big=F
 Integral buffers will be    131072 words long.
 Raffenetti 2 integral format.
 Two-electron integral symmetry is turned on.
 One-electron integrals computed using PRISM.
 NBasis=   588 RedAO= T EigKep=  2.03D-06  NBF=   588
 NBsUse=   582 1.00D-06 EigRej=  7.58D-07 NBFU=   582
 ExpMin= 4.05D-02 ExpMax= 9.34D+04 ExpMxC= 3.17D+03 IAcc=3 IRadAn=         5 AccDes= 0.00D+00
 Harris functional with IExCor=  402 and IRadAn=       5 diagonalized for initial guess.
 HarFok:  IExCor=  402 AccDes= 0.00D+00 IRadAn=         5 IDoV= 1 UseB2=F ITyADJ=14
 ICtDFT=  3500011 ScaDFX=  1.000000  1.000000  1.000000  1.000000
 FoFCou: FMM=F IPFlag=           0 FMFlag=      100000 FMFlg1=           0
         NFxFlg=           0 DoJE=T BraDBF=F KetDBF=T FulRan=T
         wScrn=  0.000000 ICntrl=       500 IOpCl=  0 I1Cent=   200000004 NGrid=           0
         NMat0=    1 NMatS0=      1 NMatT0=    0 NMatD0=    1 NMtDS0=    0 NMtDT0=    0
 Petite list used in FoFCou.
 Requested convergence on RMS density matrix=1.00D-08 within 128 cycles.
 Requested convergence on MAX density matrix=1.00D-06.
 Requested convergence on             energy=1.00D-06.
 No special actions if energy rises.
 SCF Done:  E(RB3LYP) =  -2360.32013618     A.U. after   16 cycles
            NFock= 16  Conv=0.28D-08     -V/T= 2.0021

 **********************************************************************

            Population analysis using the SCF Density.

 **********************************************************************

 Orbital symmetries:
       Occupied  (A) (A) (A) (A) (A) (A) (A) (A) (A) (A) (A) (A)
                 (A) (A) (A) (A) (A) (A) (A) (A) (A) (A) (A) (A)
                 (A) (A) (A) (A) (A) (A) (A) (A) (A) (A) (A) (A)
                 (A) (A) (A) (A) (A) (A) (A) (A) (A) (A) (A) (A)
                 (A) (A) (A) (A) (A) (A) (A) (A) (A) (A) (A) (A)
                 (A) (A) (A) (A) (A) (A) (A) (A) (A) (A) (A) (A)
                 (A) (A) (A) (A) (A) (A) (A) (A) (A) (A) (A) (A)
                 (A) (A) (A) (A) (A) (A) (A) (A) (A) (A)
       Virtual   (A) (A) (A) (A) (A) (A) (A) (A) (A) (A) (A) (A)
                 (A) (A) (A) (A) (A) (A) (A) (A) (A) (A) (A) (A)
                 (A) (A) (A) (A) (A) (A) (A) (A) (A) (A) (A) (A)
                 (A) (A) (A) (A) (A) (A) (A) (A) (A) (A) (A) (A)
                 (A) (A) (A) (A) (A) (A) (A) (A) (A) (A) (A) (A)
                 (A) (A) (A) (A) (A) (A) (A) (A) (A) (A) (A) (A)
                 (A) (A) (A) (A) (A) (A) (A) (A) (A) (A) (A) (A)
                 (A) (A) (A) (A) (A) (A) (A) (A) (A) (A) (A) (A)
                 (A) (A) (A) (A) (A) (A) (A) (A) (A) (A) (A) (A)
                 (A) (A) (A) (A) (A) (A) (A) (A) (A) (A) (A) (A)
                 (A) (A) (A) (A) (A) (A) (A) (A) (A) (A) (A) (A)
                 (A) (A) (A) (A) (A) (A) (A) (A) (A) (A) (A) (A)
                 (A) (A) (A) (A) (A) (A) (A) (A) (A) (A) (A) (A)
                 (A) (A) (A) (A) (A) (A) (A) (A) (A) (A) (A) (A)
                 (A) (A) (A) (A) (A) (A) (A) (A) (A) (A) (A) (A)
                 (A) (A) (A) (A) (A) (A) (A) (A) (A) (A) (A) (A)
                 (A) (A) (A) (A) (A) (A) (A) (A) (A) (A) (A) (A)
                 (A) (A) (A) (A) (A) (A) (A) (A) (A) (A) (A) (A)
                 (A) (A) (A) (A) (A) (A) (A) (A) (A) (A) (A) (A)
                 (A) (A) (A) (A) (A) (A) (A) (A) (A) (A) (A) (A)
                 (A) (A) (A) (A) (A) (A) (A) (A) (A) (A) (A) (A)
                 (A) (A) (A) (A) (A) (A) (A) (A) (A) (A) (A) (A)
                 (A) (A) (A) (A) (A) (A) (A) (A) (A) (A) (A) (A)
                 (A) (A) (A) (A) (A) (A) (A) (A) (A) (A) (A) (A)
                 (A) (A) (A) (A) (A) (A) (A) (A) (A) (A) (A) (A)
                 (A) (A) (A) (A) (A) (A) (A) (A) (A) (A) (A) (A)
                 (A) (A) (A) (A) (A) (A) (A) (A) (A) (A) (A) (A)
                 (A) (A) (A) (A) (A) (A) (A) (A) (A) (A) (A) (A)
                 (A) (A) (A) (A) (A) (A) (A) (A) (A) (A) (A) (A)
                 (A) (A) (A) (A) (A) (A) (A) (A) (A) (A) (A) (A)
                 (A) (A) (A) (A) (A) (A) (A) (A) (A) (A) (A) (A)
                 (A) (A) (A) (A) (A) (A) (A) (A) (A) (A) (A) (A)
                 (A) (A) (A) (A) (A) (A) (A) (A) (A) (A) (A) (A)
                 (A) (A) (A) (A) (A) (A) (A) (A) (A) (A) (A) (A)
                 (A) (A) (A) (A) (A) (A) (A) (A) (A) (A) (A) (A)
                 (A) (A) (A) (A) (A) (A) (A) (A) (A) (A) (A) (A)
                 (A) (A) (A) (A) (A) (A) (A) (A) (A) (A) (A) (A)
                 (A) (A) (A) (A) (A) (A) (A) (A) (A) (A) (A) (A)
                 (A) (A) (A) (A) (A) (A) (A) (A) (A) (A) (A) (A)
                 (A) (A) (A) (A) (A) (A) (A) (A) (A) (A) (A) (A)
                 (A) (A) (A) (A) (A) (A) (A) (A)
 The electronic state is 1-A.
 Alpha  occ. eigenvalues --  -88.88179 -88.88044 -88.87523 -88.87512 -19.16668
 Alpha  occ. eigenvalues --  -19.16245 -10.23983 -10.23910 -10.22283 -10.22281
 Alpha  occ. eigenvalues --  -10.21684 -10.21569 -10.21134 -10.20977 -10.20948
 Alpha  occ. eigenvalues --  -10.20862 -10.20734 -10.19984 -10.19116 -10.18889
 Alpha  occ. eigenvalues --  -10.18205 -10.18070  -7.96752  -7.96628  -7.96076
 Alpha  occ. eigenvalues --   -7.96073  -5.93064  -5.92956  -5.92700  -5.92596
 Alpha  occ. eigenvalues --   -5.92401  -5.92387  -5.92300  -5.92137  -5.92014
 Alpha  occ. eigenvalues --   -5.91999  -5.91641  -5.91600  -1.07779  -1.07661
 Alpha  occ. eigenvalues --   -0.91430  -0.89413  -0.87821  -0.84671  -0.78436
 Alpha  occ. eigenvalues --   -0.77004  -0.76540  -0.75103  -0.73328  -0.72454
 Alpha  occ. eigenvalues --   -0.71150  -0.70488  -0.67961  -0.62493  -0.59748
 Alpha  occ. eigenvalues --   -0.58000  -0.57177  -0.56090  -0.54134  -0.53991
 Alpha  occ. eigenvalues --   -0.53474  -0.49689  -0.48954  -0.48917  -0.48047
 Alpha  occ. eigenvalues --   -0.47804  -0.47447  -0.45770  -0.44458  -0.42938
 Alpha  occ. eigenvalues --   -0.42243  -0.42058  -0.41211  -0.40855  -0.40294
 Alpha  occ. eigenvalues --   -0.39295  -0.38663  -0.38332  -0.37018  -0.36217
 Alpha  occ. eigenvalues --   -0.35549  -0.35492  -0.34029  -0.33418  -0.33154
 Alpha  occ. eigenvalues --   -0.32508  -0.32480  -0.29142  -0.28102  -0.24603
 Alpha  occ. eigenvalues --   -0.24139  -0.23490  -0.22601  -0.17831
 Alpha virt. eigenvalues --   -0.06834  -0.02495  -0.00469  -0.00412  -0.00285
 Alpha virt. eigenvalues --   -0.00001   0.00315   0.00719   0.01383   0.01673
 Alpha virt. eigenvalues --    0.02064   0.02468   0.02708   0.02856   0.03114
 Alpha virt. eigenvalues --    0.03172   0.03866   0.04617   0.04715   0.04911
 Alpha virt. eigenvalues --    0.05018   0.05254   0.05438   0.05740   0.06097
 Alpha virt. eigenvalues --    0.06242   0.07004   0.07190   0.07434   0.07752
 Alpha virt. eigenvalues --    0.07814   0.07937   0.08500   0.08911   0.09284
 Alpha virt. eigenvalues --    0.09300   0.09517   0.10352   0.10751   0.11234
 Alpha virt. eigenvalues --    0.11268   0.11882   0.12152   0.12199   0.12627
 Alpha virt. eigenvalues --    0.12974   0.13186   0.13650   0.13869   0.14145
 Alpha virt. eigenvalues --    0.14222   0.14577   0.14769   0.14806   0.15204
 Alpha virt. eigenvalues --    0.15371   0.16004   0.16213   0.16774   0.16924
 Alpha virt. eigenvalues --    0.17337   0.17478   0.17813   0.18531   0.18781
 Alpha virt. eigenvalues --    0.18918   0.19215   0.19363   0.19399   0.19828
 Alpha virt. eigenvalues --    0.20110   0.20478   0.20648   0.20667   0.20891
 Alpha virt. eigenvalues --    0.21090   0.21376   0.21946   0.22218   0.22405
 Alpha virt. eigenvalues --    0.22844   0.23071   0.23163   0.23330   0.23685
 Alpha virt. eigenvalues --    0.23992   0.24233   0.24704   0.24925   0.25414
 Alpha virt. eigenvalues --    0.25673   0.26240   0.26364   0.26895   0.27457
 Alpha virt. eigenvalues --    0.27699   0.28009   0.28286   0.28718   0.28748
 Alpha virt. eigenvalues --    0.29744   0.29991   0.30447   0.30593   0.30980
 Alpha virt. eigenvalues --    0.31170   0.32529   0.32844   0.33577   0.34030
 Alpha virt. eigenvalues --    0.34639   0.34706   0.34988   0.35513   0.35712
 Alpha virt. eigenvalues --    0.35751   0.36818   0.37468   0.37503   0.37986
 Alpha virt. eigenvalues --    0.39049   0.39535   0.39855   0.41534   0.42412
 Alpha virt. eigenvalues --    0.42724   0.43310   0.43794   0.44241   0.44970
 Alpha virt. eigenvalues --    0.45326   0.45405   0.46242   0.47002   0.47819
 Alpha virt. eigenvalues --    0.48838   0.48924   0.49568   0.50590   0.51255
 Alpha virt. eigenvalues --    0.52096   0.53957   0.54466   0.54714   0.55349
 Alpha virt. eigenvalues --    0.55652   0.55875   0.56376   0.57196   0.57587
 Alpha virt. eigenvalues --    0.58153   0.58216   0.58619   0.58769   0.59471
 Alpha virt. eigenvalues --    0.59833   0.60284   0.61846   0.61873   0.62624
 Alpha virt. eigenvalues --    0.62903   0.62933   0.63406   0.64935   0.65563
 Alpha virt. eigenvalues --    0.65923   0.66984   0.67196   0.68180   0.68349
 Alpha virt. eigenvalues --    0.69115   0.69568   0.70733   0.71113   0.71730
 Alpha virt. eigenvalues --    0.72824   0.73008   0.73379   0.74212   0.74805
 Alpha virt. eigenvalues --    0.75189   0.75723   0.75942   0.76450   0.77413
 Alpha virt. eigenvalues --    0.77916   0.78176   0.78980   0.79052   0.79439
 Alpha virt. eigenvalues --    0.79685   0.80874   0.81742   0.82252   0.82585
 Alpha virt. eigenvalues --    0.82993   0.83065   0.84678   0.85092   0.85584
 Alpha virt. eigenvalues --    0.85886   0.86631   0.87817   0.88018   0.88910
 Alpha virt. eigenvalues --    0.89452   0.90405   0.90749   0.92119   0.92462
 Alpha virt. eigenvalues --    0.93582   0.94135   0.94464   0.95164   0.96167
 Alpha virt. eigenvalues --    0.96895   0.97681   0.98051   0.98414   0.99642
 Alpha virt. eigenvalues --    1.00164   1.00720   1.01444   1.02143   1.02228
 Alpha virt. eigenvalues --    1.03230   1.03824   1.04695   1.05018   1.05612
 Alpha virt. eigenvalues --    1.05822   1.07114   1.07335   1.07801   1.07854
 Alpha virt. eigenvalues --    1.08899   1.08977   1.10160   1.10462   1.12403
 Alpha virt. eigenvalues --    1.14152   1.16511   1.17315   1.17646   1.18445
 Alpha virt. eigenvalues --    1.18723   1.21031   1.21439   1.24811   1.25541
 Alpha virt. eigenvalues --    1.27285   1.30094   1.30567   1.30983   1.34313
 Alpha virt. eigenvalues --    1.34352   1.35283   1.36073   1.36106   1.36941
 Alpha virt. eigenvalues --    1.39114   1.41724   1.43065   1.43596   1.45835
 Alpha virt. eigenvalues --    1.46831   1.48143   1.49375   1.52764   1.53986
 Alpha virt. eigenvalues --    1.54552   1.54662   1.55037   1.57284   1.57362
 Alpha virt. eigenvalues --    1.58333   1.60002   1.60353   1.60653   1.60682
 Alpha virt. eigenvalues --    1.62090   1.62807   1.63981   1.64031   1.66016
 Alpha virt. eigenvalues --    1.67533   1.67682   1.68483   1.69050   1.70051
 Alpha virt. eigenvalues --    1.70303   1.70543   1.71153   1.72153   1.72734
 Alpha virt. eigenvalues --    1.73291   1.73471   1.76000   1.76133   1.76378
 Alpha virt. eigenvalues --    1.77938   1.79007   1.79931   1.80345   1.82843
 Alpha virt. eigenvalues --    1.83774   1.84973   1.85527   1.87464   1.89165
 Alpha virt. eigenvalues --    1.89233   1.90054   1.90385   1.90617   1.94307
 Alpha virt. eigenvalues --    1.95286   1.96502   1.97548   1.98570   2.00112
 Alpha virt. eigenvalues --    2.00176   2.01005   2.01943   2.02588   2.04563
 Alpha virt. eigenvalues --    2.06379   2.06583   2.06922   2.07515   2.08667
 Alpha virt. eigenvalues --    2.10018   2.11140   2.11788   2.12193   2.12860
 Alpha virt. eigenvalues --    2.13342   2.14914   2.15429   2.16137   2.16829
 Alpha virt. eigenvalues --    2.18156   2.18479   2.20218   2.20509   2.20952
 Alpha virt. eigenvalues --    2.22013   2.23078   2.23337   2.25396   2.28148
 Alpha virt. eigenvalues --    2.35281   2.36230   2.39017   2.40520   2.41103
 Alpha virt. eigenvalues --    2.41917   2.43149   2.44185   2.46389   2.47951
 Alpha virt. eigenvalues --    2.48125   2.49766   2.50058   2.51246   2.52692
 Alpha virt. eigenvalues --    2.53880   2.55692   2.58505   2.60960   2.63396
 Alpha virt. eigenvalues --    2.66409   2.68381   2.69174   2.70254   2.70748
 Alpha virt. eigenvalues --    2.70854   2.71583   2.73439   2.73550   2.74254
 Alpha virt. eigenvalues --    2.74885   2.75898   2.77169   2.78720   2.80869
 Alpha virt. eigenvalues --    2.83527   2.85272   2.85645   2.89660   2.91117
 Alpha virt. eigenvalues --    2.91887   2.92096   2.94109   2.95414   2.97034
 Alpha virt. eigenvalues --    2.98161   2.99451   3.00170   3.02136   3.05016
 Alpha virt. eigenvalues --    3.05901   3.07015   3.11462   3.12102   3.13046
 Alpha virt. eigenvalues --    3.14781   3.16445   3.19486   3.20637   3.23223
 Alpha virt. eigenvalues --    3.23875   3.23978   3.27252   3.29395   3.30377
 Alpha virt. eigenvalues --    3.32123   3.34839   3.39435   3.40438   3.42011
 Alpha virt. eigenvalues --    3.45614   3.47171   3.48091   3.50912   3.56810
 Alpha virt. eigenvalues --    3.57178   3.65844   3.78266   3.79588   3.81074
 Alpha virt. eigenvalues --    3.88112   3.88206   3.96893   4.00942   4.04895
 Alpha virt. eigenvalues --    4.10066   4.10510   4.15493   4.18495   4.21559
 Alpha virt. eigenvalues --    4.26078   4.37116   4.54241   4.69830   5.01854
 Alpha virt. eigenvalues --    5.02547   5.42063   5.43097   5.78708   5.82804
 Alpha virt. eigenvalues --    7.98977   8.01904   8.03236   8.04404  17.27966
 Alpha virt. eigenvalues --   17.29403  17.29675  17.30907  17.46020  17.50325
 Alpha virt. eigenvalues --   17.52481  17.53136  17.54756  17.57273  17.60974
 Alpha virt. eigenvalues --   17.63423  23.48985  23.58061  23.70832  23.78559
 Alpha virt. eigenvalues --   23.83384  23.86482  23.90165  24.02279  24.03298
 Alpha virt. eigenvalues --   24.04070  24.05530  24.06374  24.11027  24.13253
 Alpha virt. eigenvalues --   24.15363  24.16073  49.96186  49.98401 189.15780
 Alpha virt. eigenvalues --  189.19474 189.20472 189.21958
          Condensed to atoms (all electrons):
               1          2          3          4          5          6
     1  C    7.752193   0.652822  -1.896834  -0.112455  -0.767875  -0.166719
     2  C    0.652822   8.495960  -2.831926   0.097218  -0.247079   0.168074
     3  C   -1.896834  -2.831926  13.038285  -0.557397   0.334046  -0.179553
     4  C   -0.112455   0.097218  -0.557397   6.139597  -0.009098   0.047939
     5  S   -0.767875  -0.247079   0.334046  -0.009098  17.497217   0.044021
     6  O   -0.166719   0.168074  -0.179553   0.047939   0.044021   8.241433
     7  H    0.001766  -0.150582   0.485261   0.020179   0.014406  -0.013162
     8  C    0.150421   0.350670  -1.289566   0.295036  -0.127506  -0.104883
     9  C    0.406592   0.273117   0.056655  -0.077808  -0.325394  -0.007995
    10  C   -0.013700   0.033316  -0.064760  -0.000560  -0.203257  -0.000986
    11  C   -0.083483  -0.087840  -0.083578   0.036706   0.031495   0.003252
    12  S   -0.379078  -0.352595  -0.355122   0.118677   0.051115   0.068570
    13  O   -0.099602  -0.019760  -0.008231   0.012765  -0.025206  -0.001045
    14  H   -0.005798   0.001594   0.000044   0.000008  -0.002577   0.000018
    15  C    0.065868  -0.075189  -0.159422  -0.039665   0.049629   0.157591
    16  H   -0.006985  -0.047849   0.057466   0.001566   0.000649  -0.052372
    17  H   -0.007402  -0.048724   0.059029   0.000915   0.000707  -0.052869
    18  C    0.013032  -0.004950   0.005611   0.002657  -0.008461  -0.000795
    19  H    0.000242   0.000986   0.000269  -0.000387  -0.001759  -0.000000
    20  H    0.000847   0.001117   0.000307  -0.000438  -0.002116  -0.000000
    21  C   -0.318826  -0.131986  -0.060134   0.000233  -0.022696   0.012757
    22  C    0.003922  -0.031839  -0.002479   0.002305   0.011427  -0.002180
    23  C    0.006979  -0.010999   0.000360  -0.000003   0.003703  -0.000196
    24  C   -0.042267  -0.008457  -0.000816   0.000106  -0.002173   0.000257
    25  C   -0.002436  -0.000573   0.000017   0.000011  -0.000045  -0.000007
    26  C   -0.000407  -0.000079  -0.000011  -0.000001  -0.000013  -0.000001
    27  S   -0.024595  -0.013563  -0.003672  -0.000207  -0.006416   0.000112
    28  S    0.001661  -0.000602  -0.000015   0.000002   0.000159  -0.000028
    29  H    0.000229   0.002011   0.000128  -0.000024   0.000041   0.000263
    30  H   -0.000001  -0.000000  -0.000000  -0.000000   0.000000   0.000000
    31  H    0.020025  -0.048172   0.077697   0.334295  -0.017859  -0.000354
    32  H    0.000000   0.000000   0.000000   0.000000   0.000000  -0.000000
    33  H    0.002998  -0.000294  -0.000174   0.000534  -0.001928  -0.000002
    34  H   -0.000640   0.039868  -0.017125  -0.002484  -0.000451  -0.028891
               7          8          9         10         11         12
     1  C    0.001766   0.150421   0.406592  -0.013700  -0.083483  -0.379078
     2  C   -0.150582   0.350670   0.273117   0.033316  -0.087840  -0.352595
     3  C    0.485261  -1.289566   0.056655  -0.064760  -0.083578  -0.355122
     4  C    0.020179   0.295036  -0.077808  -0.000560   0.036706   0.118677
     5  S    0.014406  -0.127506  -0.325394  -0.203257   0.031495   0.051115
     6  O   -0.013162  -0.104883  -0.007995  -0.000986   0.003252   0.068570
     7  H    0.528210  -0.007998   0.001337   0.000042   0.000043  -0.003278
     8  C   -0.007998   9.272296   1.661146  -0.473857  -3.061565  -0.126570
     9  C    0.001337   1.661146  11.909958   1.594865  -5.870581  -0.932874
    10  C    0.000042  -0.473857   1.594865  10.937131  -0.311019  -1.073724
    11  C    0.000043  -3.061565  -5.870581  -0.311019  14.933218   0.138930
    12  S   -0.003278  -0.126570  -0.932874  -1.073724   0.138930  18.939159
    13  O    0.000030  -0.220895   0.135776  -0.049622   0.060115   0.067332
    14  H    0.000000  -0.032369  -0.275281   0.342548   0.205284   0.025076
    15  C   -0.002330  -0.013484  -0.009215  -0.001616   0.006424  -0.013210
    16  H   -0.000402  -0.002010   0.000471   0.000002  -0.000912  -0.006241
    17  H   -0.000393  -0.001863   0.000538   0.000005  -0.000997  -0.006678
    18  C   -0.000015   0.178331   0.216159  -0.234336  -0.405339   0.033125
    19  H    0.000000   0.011224   0.002600   0.000367  -0.012433  -0.000348
    20  H    0.000000   0.016285   0.013989  -0.010647  -0.021098  -0.000302
    21  C    0.000032  -0.099329  -1.652019  -0.962327   0.501552   0.846198
    22  C   -0.000010  -0.743257  -0.564642  -1.411653  -0.557284  -0.194003
    23  C   -0.000000  -0.136010   0.231494  -0.268842  -0.294500  -0.361572
    24  C   -0.000000  -0.085505  -0.424520  -1.325566  -0.202350   0.228596
    25  C   -0.000000  -0.007002   0.035179   0.139529   0.255852  -0.029203
    26  C    0.000000   0.000668  -0.013791  -0.068587  -0.049890   0.011623
    27  S    0.000001   0.095822  -0.360698  -0.204114   0.956658   0.019802
    28  S   -0.000000  -0.009460   0.027737   0.029448  -0.032017  -0.056299
    29  H   -0.000000   0.028566   0.000801   0.001828  -0.002619   0.090365
    30  H    0.000000  -0.000002  -0.000086  -0.000918   0.000010  -0.000047
    31  H   -0.005218  -0.013665   0.004551   0.000324  -0.000284  -0.000785
    32  H   -0.000000  -0.000002   0.000006   0.000137   0.000002   0.000000
    33  H    0.000000  -0.011160   0.010040   0.018776   0.007428  -0.000161
    34  H    0.000404   0.003377   0.000108   0.000060   0.000797   0.002256
              13         14         15         16         17         18
     1  C   -0.099602  -0.005798   0.065868  -0.006985  -0.007402   0.013032
     2  C   -0.019760   0.001594  -0.075189  -0.047849  -0.048724  -0.004950
     3  C   -0.008231   0.000044  -0.159422   0.057466   0.059029   0.005611
     4  C    0.012765   0.000008  -0.039665   0.001566   0.000915   0.002657
     5  S   -0.025206  -0.002577   0.049629   0.000649   0.000707  -0.008461
     6  O   -0.001045   0.000018   0.157591  -0.052372  -0.052869  -0.000795
     7  H    0.000030   0.000000  -0.002330  -0.000402  -0.000393  -0.000015
     8  C   -0.220895  -0.032369  -0.013484  -0.002010  -0.001863   0.178331
     9  C    0.135776  -0.275281  -0.009215   0.000471   0.000538   0.216159
    10  C   -0.049622   0.342548  -0.001616   0.000002   0.000005  -0.234336
    11  C    0.060115   0.205284   0.006424  -0.000912  -0.000997  -0.405339
    12  S    0.067332   0.025076  -0.013210  -0.006241  -0.006678   0.033125
    13  O    8.277958  -0.014598  -0.000571   0.000002   0.000002   0.190972
    14  H   -0.014598   0.534154  -0.000015   0.000000   0.000000  -0.010813
    15  C   -0.000571  -0.000015   4.993863   0.427228   0.427572  -0.000637
    16  H    0.000002   0.000000   0.427228   0.583224  -0.042601  -0.000003
    17  H    0.000002   0.000000   0.427572  -0.042601   0.584936  -0.000003
    18  C    0.190972  -0.010813  -0.000637  -0.000003  -0.000003   5.033079
    19  H   -0.050577  -0.000864  -0.000001  -0.000000   0.000000   0.425214
    20  H   -0.048530  -0.000953  -0.000002   0.000000  -0.000000   0.428089
    21  C   -0.001153   0.048291  -0.000390  -0.000096  -0.000092  -0.072136
    22  C   -0.003881   0.011173   0.002400  -0.000025  -0.000032  -0.013328
    23  C   -0.000907   0.000156   0.000962  -0.000000  -0.000001   0.000070
    24  C    0.001928   0.009993   0.000306   0.000000   0.000000  -0.002070
    25  C    0.000148  -0.002862   0.000055   0.000000   0.000000   0.000994
    26  C    0.000011   0.000259  -0.000002  -0.000000  -0.000000  -0.000064
    27  S    0.006709   0.032423  -0.000319  -0.000004  -0.000004  -0.006665
    28  S   -0.000030   0.000001  -0.000004  -0.000000  -0.000000   0.000066
    29  H   -0.000010   0.000039   0.000014   0.000000   0.000000  -0.000022
    30  H    0.000000   0.000001   0.000000   0.000000   0.000000   0.000001
    31  H   -0.000033   0.000000   0.000957   0.000040   0.000040  -0.000088
    32  H   -0.000000  -0.000000   0.000000   0.000000   0.000000   0.000000
    33  H   -0.038048   0.000548  -0.000001   0.000000   0.000000   0.406071
    34  H   -0.000002   0.000000   0.395095  -0.040821  -0.041286   0.000000
              19         20         21         22         23         24
     1  C    0.000242   0.000847  -0.318826   0.003922   0.006979  -0.042267
     2  C    0.000986   0.001117  -0.131986  -0.031839  -0.010999  -0.008457
     3  C    0.000269   0.000307  -0.060134  -0.002479   0.000360  -0.000816
     4  C   -0.000387  -0.000438   0.000233   0.002305  -0.000003   0.000106
     5  S   -0.001759  -0.002116  -0.022696   0.011427   0.003703  -0.002173
     6  O   -0.000000  -0.000000   0.012757  -0.002180  -0.000196   0.000257
     7  H    0.000000   0.000000   0.000032  -0.000010  -0.000000  -0.000000
     8  C    0.011224   0.016285  -0.099329  -0.743257  -0.136010  -0.085505
     9  C    0.002600   0.013989  -1.652019  -0.564642   0.231494  -0.424520
    10  C    0.000367  -0.010647  -0.962327  -1.411653  -0.268842  -1.325566
    11  C   -0.012433  -0.021098   0.501552  -0.557284  -0.294500  -0.202350
    12  S   -0.000348  -0.000302   0.846198  -0.194003  -0.361572   0.228596
    13  O   -0.050577  -0.048530  -0.001153  -0.003881  -0.000907   0.001928
    14  H   -0.000864  -0.000953   0.048291   0.011173   0.000156   0.009993
    15  C   -0.000001  -0.000002  -0.000390   0.002400   0.000962   0.000306
    16  H   -0.000000   0.000000  -0.000096  -0.000025  -0.000000   0.000000
    17  H    0.000000  -0.000000  -0.000092  -0.000032  -0.000001   0.000000
    18  C    0.425214   0.428089  -0.072136  -0.013328   0.000070  -0.002070
    19  H    0.568483  -0.048340  -0.000164   0.000235  -0.000108  -0.000277
    20  H   -0.048340   0.575816  -0.002805  -0.000073  -0.000150  -0.000309
    21  C   -0.000164  -0.002805  13.273274  -0.584703  -2.911080  -1.291252
    22  C    0.000235  -0.000073  -0.584703   9.512351   1.450948   0.652895
    23  C   -0.000108  -0.000150  -2.911080   1.450948  12.326821  -4.049493
    24  C   -0.000277  -0.000309  -1.291252   0.652895  -4.049493  15.910660
    25  C   -0.000005  -0.000001  -0.142927  -1.163443   2.092884  -4.750690
    26  C   -0.000001  -0.000001  -0.312263   0.125637  -0.850990   1.059443
    27  S   -0.002364  -0.002651   0.417764  -1.513204  -1.318844   0.245370
    28  S   -0.000003  -0.000003  -1.227558   0.210934  -0.177692   0.051894
    29  H    0.000000   0.000000   0.172344   0.280395  -0.163685  -0.088171
    30  H   -0.000000  -0.000000  -0.018061  -0.004646  -0.072176  -0.010127
    31  H    0.000000   0.000000   0.000025   0.000001   0.000000   0.000000
    32  H    0.000000   0.000000   0.009425   0.002270   0.026299   0.043791
    33  H   -0.028843  -0.032942  -0.000081  -0.000061   0.000003  -0.000021
    34  H    0.000000   0.000000   0.000018  -0.000038  -0.000003  -0.000007
              25         26         27         28         29         30
     1  C   -0.002436  -0.000407  -0.024595   0.001661   0.000229  -0.000001
     2  C   -0.000573  -0.000079  -0.013563  -0.000602   0.002011  -0.000000
     3  C    0.000017  -0.000011  -0.003672  -0.000015   0.000128  -0.000000
     4  C    0.000011  -0.000001  -0.000207   0.000002  -0.000024  -0.000000
     5  S   -0.000045  -0.000013  -0.006416   0.000159   0.000041   0.000000
     6  O   -0.000007  -0.000001   0.000112  -0.000028   0.000263   0.000000
     7  H   -0.000000   0.000000   0.000001  -0.000000  -0.000000   0.000000
     8  C   -0.007002   0.000668   0.095822  -0.009460   0.028566  -0.000002
     9  C    0.035179  -0.013791  -0.360698   0.027737   0.000801  -0.000086
    10  C    0.139529  -0.068587  -0.204114   0.029448   0.001828  -0.000918
    11  C    0.255852  -0.049890   0.956658  -0.032017  -0.002619   0.000010
    12  S   -0.029203   0.011623   0.019802  -0.056299   0.090365  -0.000047
    13  O    0.000148   0.000011   0.006709  -0.000030  -0.000010   0.000000
    14  H   -0.002862   0.000259   0.032423   0.000001   0.000039   0.000001
    15  C    0.000055  -0.000002  -0.000319  -0.000004   0.000014   0.000000
    16  H    0.000000  -0.000000  -0.000004  -0.000000   0.000000   0.000000
    17  H    0.000000  -0.000000  -0.000004  -0.000000   0.000000   0.000000
    18  C    0.000994  -0.000064  -0.006665   0.000066  -0.000022   0.000001
    19  H   -0.000005  -0.000001  -0.002364  -0.000003   0.000000  -0.000000
    20  H   -0.000001  -0.000001  -0.002651  -0.000003   0.000000  -0.000000
    21  C   -0.142927  -0.312263   0.417764  -1.227558   0.172344  -0.018061
    22  C   -1.163443   0.125637  -1.513204   0.210934   0.280395  -0.004646
    23  C    2.092884  -0.850990  -1.318844  -0.177692  -0.163685  -0.072176
    24  C   -4.750690   1.059443   0.245370   0.051894  -0.088171  -0.010127
    25  C   10.265599  -0.263241  -0.013322  -0.468527  -0.005429   0.387921
    26  C   -0.263241   5.709550   0.035399   0.416308  -0.002396   0.033229
    27  S   -0.013322   0.035399  18.150012   0.052874   0.017987   0.020458
    28  S   -0.468527   0.416308   0.052874  17.637331   0.007493   0.012705
    29  H   -0.005429  -0.002396   0.017987   0.007493   0.528118   0.000006
    30  H    0.387921   0.033229   0.020458   0.012705   0.000006   0.523593
    31  H    0.000000   0.000000   0.000000  -0.000000   0.000000   0.000000
    32  H   -0.055310   0.373937  -0.001065  -0.040969  -0.000004  -0.004978
    33  H   -0.000004  -0.000000   0.000460   0.000000   0.000000  -0.000000
    34  H   -0.000000   0.000000   0.000007   0.000001   0.000001  -0.000000
              31         32         33         34
     1  C    0.020025   0.000000   0.002998  -0.000640
     2  C   -0.048172   0.000000  -0.000294   0.039868
     3  C    0.077697   0.000000  -0.000174  -0.017125
     4  C    0.334295   0.000000   0.000534  -0.002484
     5  S   -0.017859   0.000000  -0.001928  -0.000451
     6  O   -0.000354  -0.000000  -0.000002  -0.028891
     7  H   -0.005218  -0.000000   0.000000   0.000404
     8  C   -0.013665  -0.000002  -0.011160   0.003377
     9  C    0.004551   0.000006   0.010040   0.000108
    10  C    0.000324   0.000137   0.018776   0.000060
    11  C   -0.000284   0.000002   0.007428   0.000797
    12  S   -0.000785   0.000000  -0.000161   0.002256
    13  O   -0.000033  -0.000000  -0.038048  -0.000002
    14  H    0.000000  -0.000000   0.000548   0.000000
    15  C    0.000957   0.000000  -0.000001   0.395095
    16  H    0.000040   0.000000   0.000000  -0.040821
    17  H    0.000040   0.000000   0.000000  -0.041286
    18  C   -0.000088   0.000000   0.406071   0.000000
    19  H    0.000000   0.000000  -0.028843   0.000000
    20  H    0.000000   0.000000  -0.032942   0.000000
    21  C    0.000025   0.009425  -0.000081   0.000018
    22  C    0.000001   0.002270  -0.000061  -0.000038
    23  C    0.000000   0.026299   0.000003  -0.000003
    24  C    0.000000   0.043791  -0.000021  -0.000007
    25  C    0.000000  -0.055310  -0.000004  -0.000000
    26  C    0.000000   0.373937  -0.000000   0.000000
    27  S    0.000000  -0.001065   0.000460   0.000007
    28  S   -0.000000  -0.040969   0.000000   0.000001
    29  H    0.000000  -0.000004   0.000000   0.000001
    30  H    0.000000  -0.004978  -0.000000  -0.000000
    31  H    0.490522  -0.000000  -0.000000  -0.000002
    32  H   -0.000000   0.479802   0.000000  -0.000000
    33  H   -0.000000   0.000000   0.512474  -0.000000
    34  H   -0.000002  -0.000000  -0.000000   0.531396
 Mulliken charges:
               1
     1  C    0.849508
     2  C   -0.003697
     3  C   -0.604359
     4  C   -0.310223
     5  S   -0.266701
     6  O   -0.132247
     7  H    0.131677
     8  C    0.504117
     9  C   -0.068215
    10  C   -0.418287
    11  C   -0.059974
    12  S   -0.748732
    13  O   -0.171045
    14  H    0.134521
    15  C   -0.211890
    16  H    0.129671
    17  H    0.129200
    18  C   -0.173743
    19  H    0.136855
    20  H    0.134910
    21  C    0.530166
    22  C    0.523889
    23  C    0.476572
    24  C    0.078833
    25  C   -0.273164
    26  C   -0.204326
    27  S   -0.580149
    28  S   -0.435407
    29  H    0.131730
    30  H    0.133117
    31  H    0.157982
    32  H    0.166660
    33  H    0.154389
    34  H    0.158362
 Sum of Mulliken charges =  -0.00000
 Mulliken charges with hydrogens summed into heavy atoms:
               1
     1  C    0.849508
     2  C   -0.003697
     3  C   -0.472682
     4  C   -0.152241
     5  S   -0.266701
     6  O   -0.132247
     8  C    0.504117
     9  C   -0.068215
    10  C   -0.283766
    11  C   -0.059974
    12  S   -0.748732
    13  O   -0.171045
    15  C    0.205343
    18  C    0.252411
    21  C    0.530166
    22  C    0.655619
    23  C    0.476572
    24  C    0.078833
    25  C   -0.140047
    26  C   -0.037666
    27  S   -0.580149
    28  S   -0.435407
 Electronic spatial extent (au):  <R**2>=          12284.3308
 Charge=             -0.0000 electrons
 Dipole moment (field-independent basis, Debye):
    X=             -0.9360    Y=             -0.0711    Z=              0.0200  Tot=              0.9389
 Quadrupole moment (field-independent basis, Debye-Ang):
   XX=           -136.0713   YY=           -129.0122   ZZ=           -164.7231
   XY=             10.2134   XZ=             -0.0733   YZ=              0.0856
 Traceless Quadrupole moment (field-independent basis, Debye-Ang):
   XX=              7.1975   YY=             14.2567   ZZ=            -21.4542
   XY=             10.2134   XZ=             -0.0733   YZ=              0.0856
 Octapole moment (field-independent basis, Debye-Ang**2):
  XXX=              2.2195  YYY=              1.0268  ZZZ=              0.0202  XYY=            -68.1163
  XXY=            -28.4531  XXZ=              0.1983  XZZ=            -14.7454  YZZ=              1.1268
  YYZ=              0.6592  XYZ=             -0.4264
 Hexadecapole moment (field-independent basis, Debye-Ang**3):
 XXXX=         -11966.1222 YYYY=          -2527.3176 ZZZZ=           -216.5559 XXXY=            233.1333
 XXXZ=             -0.2342 YYYX=            125.7125 YYYZ=              2.6136 ZZZX=             -0.0616
 ZZZY=              0.0671 XXYY=          -2559.4517 XXZZ=          -2524.8225 YYZZ=           -564.3440
 XXYZ=              1.0446 YYXZ=             -2.1562 ZZXY=             -0.2873
 N-N= 2.228474873190D+03 E-N=-1.003224553129D+04  KE= 2.355349774556D+03
 Calling FoFJK, ICntrl=      2127 FMM=F ISym2X=0 I1Cent= 0 IOpClX= 0 NMat=1 NMatS=1 NMatT=0.
 ***** Axes restored to original set *****
 -------------------------------------------------------------------
 Center     Atomic                   Forces (Hartrees/Bohr)
 Number     Number              X              Y              Z
 -------------------------------------------------------------------
      1        6           0.000004163    0.001510419    0.000053272
      2        6           0.003495681   -0.003835558    0.000108375
      3        6           0.000435147   -0.001294905   -0.000213944
      4        6           0.000118870    0.000434549    0.000162590
      5       16           0.000239564    0.000573097   -0.000095412
      6        8           0.022691380    0.018126191   -0.000027210
      7        1          -0.000672890    0.000598807    0.000032447
      8        6          -0.000072618   -0.000521449   -0.000133575
      9        6          -0.002207624    0.000388662    0.000080859
     10        6           0.000105331   -0.000239233   -0.000038146
     11        6           0.000372006   -0.000353197   -0.000018596
     12       16           0.000093966    0.000110600    0.000052456
     13        8          -0.004618813   -0.004418264    0.000147834
     14        1           0.000001909    0.000080027    0.000027654
     15        6          -0.090607527   -0.087571108    0.000264230
     16        1          -0.009691814   -0.007775051   -0.000366479
     17        1          -0.010064489   -0.007983925    0.000014668
     18        6           0.129234832    0.119005097   -0.002282979
     19        1           0.000106780    0.000612645    0.000125871
     20        1           0.003209717    0.003706409    0.000020367
     21        6          -0.000386380   -0.000280752   -0.000071166
     22        6           0.000495098   -0.000408715    0.000061803
     23        6          -0.000091288    0.000754955    0.000044448
     24        6           0.000051242   -0.000703887   -0.000054257
     25        6          -0.000506235    0.000595137    0.000079987
     26        6           0.000666449    0.000247349    0.000000506
     27       16           0.000151217   -0.000053537    0.000011306
     28       16          -0.000085450   -0.000244181   -0.000048120
     29        1          -0.000287735    0.000164569   -0.000009956
     30        1           0.000055576   -0.000146935   -0.000035381
     31        1          -0.000015892   -0.000053653   -0.000005060
     32        1          -0.000107165   -0.000009070    0.000003931
     33        1          -0.125677679   -0.119306109    0.002012598
     34        1           0.083564671    0.088291018    0.000095078
 -------------------------------------------------------------------
 Cartesian Forces:  Max     0.129234832 RMS     0.030167588

 GradGradGradGradGradGradGradGradGradGradGradGradGradGradGradGradGradGrad
 Berny optimization.
 FormGI is forming the generalized inverse of G from B-inverse, IUseBI=4.
 Internal  Forces:  Max     0.172811602 RMS     0.016564579
 Search for a local minimum.
 Step number   1 out of a maximum of  185
 All quantities printed in internal units (Hartrees-Bohrs-Radians)
 Mixed Optimization -- RFO/linear search
 Second derivative matrix not updated -- first step.
 ITU=  0
     Eigenvalues ---    0.01339   0.01341   0.01441   0.01511   0.01518
     Eigenvalues ---    0.01562   0.01596   0.01636   0.01698   0.01725
     Eigenvalues ---    0.01775   0.01776   0.01919   0.01986   0.02004
     Eigenvalues ---    0.02048   0.02052   0.02071   0.02101   0.02110
     Eigenvalues ---    0.02152   0.02181   0.02182   0.02193   0.02250
     Eigenvalues ---    0.02276   0.08053   0.09814   0.10078   0.10222
     Eigenvalues ---    0.16000   0.16000   0.16000   0.16000   0.16000
     Eigenvalues ---    0.16000   0.16000   0.16000   0.16000   0.16000
     Eigenvalues ---    0.16000   0.16000   0.22531   0.22573   0.23606
     Eigenvalues ---    0.23641   0.24748   0.24776   0.25000   0.25000
     Eigenvalues ---    0.25000   0.25000   0.25000   0.25000   0.25000
     Eigenvalues ---    0.25000   0.25000   0.25000   0.27830   0.28933
     Eigenvalues ---    0.29155   0.29872   0.30062   0.30374   0.30502
     Eigenvalues ---    0.32184   0.34171   0.34179   0.34189   0.34263
     Eigenvalues ---    0.35769   0.35830   0.35907   0.35972   0.36087
     Eigenvalues ---    0.36119   0.39162   0.39544   0.40819   0.40857
     Eigenvalues ---    0.41452   0.41475   0.41493   0.41829   0.42798
     Eigenvalues ---    0.45131   0.45379   0.48055   0.48268   0.50065
     Eigenvalues ---    0.50125   0.52357   0.52526   0.52999   0.63399
     Eigenvalues --- 1000.000001000.000001000.000001000.000001000.00000
     Eigenvalues --- 1000.000001000.000001000.000001000.000001000.00000
     Eigenvalues --- 1000.000001000.000001000.000001000.000001000.00000
     Eigenvalues --- 1000.000001000.000001000.000001000.000001000.00000
     Eigenvalues --- 1000.000001000.000001000.000001000.000001000.00000
     Eigenvalues --- 1000.000001000.000001000.000001000.000001000.00000
     Eigenvalues --- 1000.000001000.000001000.000001000.000001000.00000
     Eigenvalues --- 1000.000001000.000001000.000001000.000001000.00000
     Eigenvalues --- 1000.000001000.000001000.000001000.000001000.00000
     Eigenvalues --- 1000.000001000.000001000.000001000.000001000.00000
     Eigenvalues --- 1000.000001000.000001000.000001000.000001000.00000
     Eigenvalues --- 1000.000001000.000001000.000001000.000001000.00000
     Eigenvalues --- 1000.000001000.000001000.000001000.000001000.00000
     Eigenvalues --- 1000.000001000.000001000.000001000.000001000.00000
     Eigenvalues --- 1000.000001000.000001000.000001000.000001000.00000
     Eigenvalues --- 1000.000001000.000001000.000001000.000001000.00000
 RFO step:  Lambda=-8.47093624D-02 EMin= 1.33927619D-02
 Linear search not attempted -- first point.
 Maximum step size (   0.300) exceeded in Quadratic search.
    -- Step size scaled by   0.701
 Iteration  1 RMS(Cart)=  0.02868155 RMS(Int)=  0.00203805
 Iteration  2 RMS(Cart)=  0.00252372 RMS(Int)=  0.00006020
 Iteration  3 RMS(Cart)=  0.00002184 RMS(Int)=  0.00005777
 Iteration  4 RMS(Cart)=  0.00000000 RMS(Int)=  0.00005777
 Iteration  1 RMS(Cart)=  0.00000001 RMS(Int)=  0.00000000
 Variable       Old X    -DE/DX   Delta X   Delta X   Delta X     New X
                                 (Linear)    (Quad)   (Total)
    R1        2.62377  -0.00049   0.00000  -0.00064  -0.00064   2.62313
    R2        3.32805  -0.00068   0.00000  -0.00131  -0.00131   3.32674
    R3        2.72178  -0.00109   0.00000  -0.00159  -0.00159   2.72019
    R4        2.68858   0.00019   0.00000   0.00028   0.00028   2.68886
    R5        2.57559  -0.00185   0.00000  -0.00213  -0.00213   2.57346
    R6        2.58226   0.00003   0.00000   0.00006   0.00006   2.58232
    R7        2.04227  -0.00090   0.00000  -0.00142  -0.00142   2.04085
    R8        3.26149   0.00031   0.00000   0.00055   0.00055   3.26204
    R9        2.03896   0.00006   0.00000   0.00009   0.00009   2.03905
   R10        2.69597  -0.01578   0.00000  -0.02215  -0.02215   2.67382
   R11        2.62481  -0.00052   0.00000  -0.00068  -0.00068   2.62414
   R12        3.32449  -0.00008   0.00000  -0.00017  -0.00017   3.32431
   R13        2.67498  -0.00020   0.00000  -0.00028  -0.00028   2.67469
   R14        2.57399  -0.00170   0.00000  -0.00195  -0.00195   2.57204
   R15        2.60502   0.00026   0.00000   0.00034   0.00034   2.60536
   R16        2.04125   0.00005   0.00000   0.00008   0.00008   2.04133
   R17        3.30607  -0.00030   0.00000  -0.00050  -0.00050   3.30557
   R18        2.72709  -0.00009   0.00000  -0.00014  -0.00014   2.72695
   R19        2.69574  -0.00398   0.00000  -0.00558  -0.00558   2.69016
   R20        2.06889   0.00406   0.00000   0.00666   0.00666   2.07555
   R21        2.07029   0.00388   0.00000   0.00637   0.00637   2.07666
   R22        1.83655   0.11111   0.00000   0.12672   0.12672   1.96327
   R23        2.07042   0.00024   0.00000   0.00040   0.00040   2.07082
   R24        2.07012   0.00191   0.00000   0.00315   0.00315   2.07326
   R25        1.75048   0.17281   0.00000   0.16858   0.16858   1.91906
   R26        2.60339   0.00024   0.00000   0.00032   0.00032   2.60371
   R27        3.35516  -0.00008   0.00000  -0.00015  -0.00015   3.35502
   R28        2.67733   0.00042   0.00000   0.00058   0.00058   2.67791
   R29        2.04444  -0.00033   0.00000  -0.00052  -0.00052   2.04392
   R30        2.62522  -0.00020   0.00000  -0.00029  -0.00029   2.62492
   R31        3.29679  -0.00010   0.00000  -0.00024  -0.00024   3.29655
   R32        2.68537   0.00056   0.00000   0.00080   0.00080   2.68616
   R33        3.29581   0.00005   0.00000   0.00005   0.00005   3.29586
   R34        2.58100   0.00052   0.00000   0.00064   0.00064   2.58165
   R35        2.04348  -0.00014   0.00000  -0.00021  -0.00021   2.04327
   R36        3.30618   0.00006   0.00000   0.00013   0.00013   3.30631
   R37        2.03946  -0.00004   0.00000  -0.00007  -0.00007   2.03939
    A1        1.90580   0.00002   0.00000  -0.00003  -0.00003   1.90576
    A2        2.23510  -0.00030   0.00000  -0.00059  -0.00059   2.23451
    A3        2.14229   0.00028   0.00000   0.00062   0.00062   2.14291
    A4        1.99452   0.00053   0.00000   0.00110   0.00110   1.99562
    A5        2.08712  -0.00321   0.00000  -0.00673  -0.00673   2.08039
    A6        2.20154   0.00269   0.00000   0.00563   0.00563   2.20717
    A7        1.95644  -0.00071   0.00000  -0.00153  -0.00153   1.95491
    A8        2.17293   0.00031   0.00000   0.00063   0.00063   2.17356
    A9        2.15381   0.00040   0.00000   0.00090   0.00090   2.15471
   A10        1.96303   0.00024   0.00000   0.00065   0.00065   1.96368
   A11        2.23006  -0.00012   0.00000  -0.00034  -0.00034   2.22973
   A12        2.09009  -0.00012   0.00000  -0.00032  -0.00032   2.08977
   A13        1.60499  -0.00007   0.00000  -0.00019  -0.00019   1.60480
   A14        2.06320  -0.00645   0.00000  -0.01351  -0.01351   2.04970
   A15        2.23734  -0.00039   0.00000  -0.00078  -0.00078   2.23656
   A16        2.13942  -0.00008   0.00000  -0.00012  -0.00012   2.13930
   A17        1.90642   0.00047   0.00000   0.00090   0.00090   1.90732
   A18        1.99852  -0.00018   0.00000  -0.00043  -0.00043   1.99809
   A19        2.08449  -0.00105   0.00000  -0.00217  -0.00217   2.08232
   A20        2.20018   0.00123   0.00000   0.00260   0.00260   2.20278
   A21        1.97403  -0.00014   0.00000  -0.00028  -0.00028   1.97375
   A22        2.16211   0.00014   0.00000   0.00033   0.00033   2.16244
   A23        2.14704   0.00000   0.00000  -0.00005  -0.00005   2.14699
   A24        1.93300   0.00021   0.00000   0.00053   0.00053   1.93353
   A25        2.24020  -0.00008   0.00000  -0.00022  -0.00022   2.23998
   A26        2.10998  -0.00013   0.00000  -0.00031  -0.00031   2.10967
   A27        1.61280  -0.00036   0.00000  -0.00072  -0.00072   1.61208
   A28        2.06438  -0.00167   0.00000  -0.00350  -0.00350   2.06088
   A29        1.92904   0.00533   0.00000   0.01538   0.01503   1.94407
[...]
     8  C    0.062931   0.327283  -1.164849   0.259257  -0.122193  -0.103205
     9  C    0.400871   0.249172   0.079034  -0.086804  -0.317541  -0.002901
    10  C    0.024454   0.029985  -0.048857  -0.006247  -0.201386  -0.001583
    11  C   -0.035500  -0.089782  -0.085993   0.040889   0.031036  -0.000300
    12  S   -0.371927  -0.324315  -0.353595   0.123272   0.045701   0.046870
    13  O   -0.096647  -0.022102  -0.011260   0.015227  -0.021232  -0.001039
    14  H   -0.005324   0.001731   0.000102  -0.000020  -0.002641   0.000019
    15  C    0.068159  -0.099545  -0.142842  -0.055728   0.054085   0.170949
    16  H   -0.009538  -0.050832   0.065082  -0.000177   0.000600  -0.046629
    17  H   -0.009543  -0.050774   0.065082  -0.000116   0.000601  -0.046671
    18  C    0.013255  -0.006551   0.003654   0.003515  -0.013636  -0.000760
    19  H    0.000282   0.000885   0.000247  -0.000357  -0.001676   0.000000
    20  H    0.000385   0.000875   0.000250  -0.000349  -0.001711   0.000000
    21  C   -0.306874  -0.126535  -0.056642   0.000323  -0.024368   0.012256
    22  C    0.010589  -0.033635  -0.003464   0.002384   0.011301  -0.003380
    23  C    0.006432  -0.011619   0.000110  -0.000024   0.003623  -0.000048
    24  C   -0.041404  -0.008978  -0.000926   0.000126  -0.002161   0.000230
    25  C   -0.002451  -0.000712  -0.000006   0.000013  -0.000038  -0.000001
    26  C   -0.000398  -0.000074  -0.000010  -0.000001  -0.000014  -0.000001
    27  S   -0.024526  -0.012752  -0.003452  -0.000207  -0.006647   0.000087
    28  S    0.001569  -0.000519  -0.000011  -0.000000   0.000156  -0.000024
    29  H    0.000113   0.002124   0.000140  -0.000028   0.000043   0.000251
    30  H   -0.000001  -0.000000  -0.000000  -0.000000   0.000000   0.000000
    31  H    0.020728  -0.046221   0.074612   0.335113  -0.018221  -0.000404
    32  H    0.000000   0.000000   0.000000   0.000000   0.000000  -0.000000
    33  H    0.002694  -0.000322  -0.000285   0.000484  -0.003337  -0.000002
    34  H    0.002062   0.033191  -0.020257   0.001398  -0.000708  -0.056987
               7          8          9         10         11         12
     1  C    0.003954   0.062931   0.400871   0.024454  -0.035500  -0.371927
     2  C   -0.136283   0.327283   0.249172   0.029985  -0.089782  -0.324315
     3  C    0.474779  -1.164849   0.079034  -0.048857  -0.085993  -0.353595
     4  C    0.012462   0.259257  -0.086804  -0.006247   0.040889   0.123272
     5  S    0.013970  -0.122193  -0.317541  -0.201386   0.031036   0.045701
     6  O   -0.012459  -0.103205  -0.002901  -0.001583  -0.000300   0.046870
     7  H    0.531926  -0.007026   0.001161   0.000040   0.000045  -0.002744
     8  C   -0.007026   9.037090   1.538456  -0.425222  -2.881263  -0.117901
     9  C    0.001161   1.538456  11.711822   1.690982  -5.768492  -0.889250
    10  C    0.000040  -0.425222   1.690982  10.891821  -0.439744  -1.094249
    11  C    0.000045  -2.881263  -5.768492  -0.439744  14.819310   0.131060
    12  S   -0.002744  -0.117901  -0.889250  -1.094249   0.131060  18.867265
    13  O    0.000031  -0.192983   0.143035  -0.077247   0.044072   0.067461
    14  H    0.000000  -0.027792  -0.267772   0.337413   0.200718   0.025435
    15  C   -0.002622  -0.020345  -0.012754  -0.001475   0.009060  -0.006797
    16  H   -0.000577  -0.002941   0.000496  -0.000001  -0.000826  -0.005765
    17  H   -0.000575  -0.002994   0.000490  -0.000002  -0.000801  -0.005789
    18  C   -0.000013   0.156056   0.192210  -0.194710  -0.392327   0.035412
    19  H    0.000000   0.013081   0.004775  -0.002689  -0.014967  -0.000154
    20  H    0.000000   0.013453   0.005065  -0.003295  -0.015677  -0.000183
    21  C    0.000032  -0.037603  -1.612177  -0.979057   0.463211   0.823135
    22  C   -0.000012  -0.691153  -0.541975  -1.378275  -0.570550  -0.180392
    23  C   -0.000001  -0.127537   0.235264  -0.267086  -0.293338  -0.327193
    24  C   -0.000000  -0.075605  -0.425036  -1.337667  -0.205987   0.223655
    25  C   -0.000000  -0.007029   0.033614   0.137310   0.258600  -0.024069
    26  C    0.000000   0.000928  -0.013810  -0.069046  -0.050055   0.011475
    27  S    0.000001   0.099155  -0.362497  -0.215598   0.955914   0.018458
    28  S   -0.000000  -0.009444   0.028396   0.030615  -0.029770  -0.055202
    29  H   -0.000000   0.027939   0.001034   0.001524  -0.001862   0.089460
    30  H    0.000000  -0.000001  -0.000087  -0.000934   0.000001  -0.000047
    31  H   -0.005206  -0.013559   0.004609   0.000334  -0.000292  -0.000824
    32  H   -0.000000  -0.000002   0.000006   0.000137   0.000003   0.000001
    33  H    0.000000  -0.017461   0.002646   0.032573   0.011741  -0.000308
    34  H    0.000261   0.004414  -0.000202   0.000053   0.001613   0.004115
              13         14         15         16         17         18
     1  C   -0.096647  -0.005324   0.068159  -0.009538  -0.009543   0.013255
     2  C   -0.022102   0.001731  -0.099545  -0.050832  -0.050774  -0.006551
     3  C   -0.011260   0.000102  -0.142842   0.065082   0.065082   0.003654
     4  C    0.015227  -0.000020  -0.055728  -0.000177  -0.000116   0.003515
     5  S   -0.021232  -0.002641   0.054085   0.000600   0.000601  -0.013636
     6  O   -0.001039   0.000019   0.170949  -0.046629  -0.046671  -0.000760
     7  H    0.000031   0.000000  -0.002622  -0.000577  -0.000575  -0.000013
     8  C   -0.192983  -0.027792  -0.020345  -0.002941  -0.002994   0.156056
     9  C    0.143035  -0.267772  -0.012754   0.000496   0.000490   0.192210
    10  C   -0.077247   0.337413  -0.001475  -0.000001  -0.000002  -0.194710
    11  C    0.044072   0.200718   0.009060  -0.000826  -0.000801  -0.392327
    12  S    0.067461   0.025435  -0.006797  -0.005765  -0.005789   0.035412
    13  O    8.288216  -0.014364  -0.000586   0.000001   0.000001   0.172982
    14  H   -0.014364   0.535061  -0.000019   0.000000   0.000000  -0.010186
    15  C   -0.000586  -0.000019   5.036287   0.418522   0.418444  -0.000601
    16  H    0.000001   0.000000   0.418522   0.567528  -0.049659  -0.000001
    17  H    0.000001   0.000000   0.418444  -0.049659   0.567584  -0.000001
    18  C    0.172982  -0.010186  -0.000601  -0.000001  -0.000001   5.118937
    19  H   -0.045113  -0.000952  -0.000002  -0.000000   0.000000   0.418087
    20  H   -0.044698  -0.000966  -0.000002   0.000000  -0.000000   0.418605
    21  C   -0.004747   0.045510  -0.001440  -0.000085  -0.000087  -0.071282
    22  C   -0.004435   0.010292   0.002609  -0.000028  -0.000028  -0.013590
    23  C   -0.000981   0.000351   0.000889   0.000000   0.000000   0.000219
    24  C    0.001819   0.009698   0.000284   0.000000   0.000000  -0.002414
    25  C    0.000143  -0.002858   0.000053   0.000000   0.000000   0.000976
    26  C    0.000011   0.000253  -0.000002  -0.000000  -0.000000  -0.000075
    27  S    0.006433   0.032439  -0.000330  -0.000003  -0.000003  -0.006727
    28  S   -0.000030   0.000003  -0.000025  -0.000000  -0.000000   0.000083
    29  H   -0.000009   0.000039  -0.000014   0.000000   0.000000  -0.000017
    30  H    0.000000   0.000001   0.000000   0.000000   0.000000   0.000001
    31  H   -0.000038   0.000000   0.000894   0.000038   0.000038  -0.000089
    32  H    0.000000  -0.000000   0.000000   0.000000   0.000000   0.000000
    33  H   -0.058297   0.000354  -0.000001   0.000000   0.000000   0.398644
    34  H   -0.000002   0.000000   0.401243  -0.028148  -0.028154  -0.000001
              19         20         21         22         23         24
     1  C    0.000282   0.000385  -0.306874   0.010589   0.006432  -0.041404
     2  C    0.000885   0.000875  -0.126535  -0.033635  -0.011619  -0.008978
     3  C    0.000247   0.000250  -0.056642  -0.003464   0.000110  -0.000926
     4  C   -0.000357  -0.000349   0.000323   0.002384  -0.000024   0.000126
     5  S   -0.001676  -0.001711  -0.024368   0.011301   0.003623  -0.002161
     6  O    0.000000   0.000000   0.012256  -0.003380  -0.000048   0.000230
     7  H    0.000000   0.000000   0.000032  -0.000012  -0.000001  -0.000000
     8  C    0.013081   0.013453  -0.037603  -0.691153  -0.127537  -0.075605
     9  C    0.004775   0.005065  -1.612177  -0.541975   0.235264  -0.425036
    10  C   -0.002689  -0.003295  -0.979057  -1.378275  -0.267086  -1.337667
    11  C   -0.014967  -0.015677   0.463211  -0.570550  -0.293338  -0.205987
    12  S   -0.000154  -0.000183   0.823135  -0.180392  -0.327193   0.223655
    13  O   -0.045113  -0.044698  -0.004747  -0.004435  -0.000981   0.001819
    14  H   -0.000952  -0.000966   0.045510   0.010292   0.000351   0.009698
    15  C   -0.000002  -0.000002  -0.001440   0.002609   0.000889   0.000284
    16  H   -0.000000   0.000000  -0.000085  -0.000028   0.000000   0.000000
    17  H    0.000000  -0.000000  -0.000087  -0.000028   0.000000   0.000000
    18  C    0.418087   0.418605  -0.071282  -0.013590   0.000219  -0.002414
    19  H    0.565120  -0.049854  -0.001656   0.000036  -0.000137  -0.000282
    20  H   -0.049854   0.564693  -0.001619   0.000047  -0.000133  -0.000292
    21  C   -0.001656  -0.001619  13.216030  -0.586102  -2.894688  -1.292576
    22  C    0.000036   0.000047  -0.586102   9.421814   1.438727   0.620670
    23  C   -0.000137  -0.000133  -2.894688   1.438727  12.339598  -4.091909
    24  C   -0.000282  -0.000292  -1.292576   0.620670  -4.091909  15.951423
    25  C   -0.000001  -0.000003  -0.125509  -1.134802   2.082208  -4.718552
    26  C   -0.000001  -0.000001  -0.311661   0.121561  -0.859297   1.072169
    27  S   -0.002481  -0.002494   0.415137  -1.505473  -1.328444   0.261288
    28  S   -0.000003  -0.000003  -1.225564   0.210306  -0.167492   0.034159
    29  H    0.000000   0.000000   0.170300   0.282367  -0.161915  -0.089632
    30  H   -0.000000  -0.000000  -0.018078  -0.004673  -0.072737  -0.008972
    31  H    0.000000   0.000000   0.000024   0.000001   0.000000   0.000000
    32  H    0.000000   0.000000   0.009464   0.002320   0.026433   0.043455
    33  H   -0.028043  -0.028066   0.000748   0.000015   0.000003  -0.000007
    34  H    0.000000   0.000000   0.000139   0.000215   0.000004  -0.000007
              25         26         27         28         29         30
     1  C   -0.002451  -0.000398  -0.024526   0.001569   0.000113  -0.000001
     2  C   -0.000712  -0.000074  -0.012752  -0.000519   0.002124  -0.000000
     3  C   -0.000006  -0.000010  -0.003452  -0.000011   0.000140  -0.000000
     4  C    0.000013  -0.000001  -0.000207  -0.000000  -0.000028  -0.000000
     5  S   -0.000038  -0.000014  -0.006647   0.000156   0.000043   0.000000
     6  O   -0.000001  -0.000001   0.000087  -0.000024   0.000251   0.000000
     7  H   -0.000000   0.000000   0.000001  -0.000000  -0.000000   0.000000
     8  C   -0.007029   0.000928   0.099155  -0.009444   0.027939  -0.000001
     9  C    0.033614  -0.013810  -0.362497   0.028396   0.001034  -0.000087
    10  C    0.137310  -0.069046  -0.215598   0.030615   0.001524  -0.000934
    11  C    0.258600  -0.050055   0.955914  -0.029770  -0.001862   0.000001
    12  S   -0.024069   0.011475   0.018458  -0.055202   0.089460  -0.000047
    13  O    0.000143   0.000011   0.006433  -0.000030  -0.000009   0.000000
    14  H   -0.002858   0.000253   0.032439   0.000003   0.000039   0.000001
    15  C    0.000053  -0.000002  -0.000330  -0.000025  -0.000014   0.000000
    16  H    0.000000  -0.000000  -0.000003  -0.000000   0.000000   0.000000
    17  H    0.000000  -0.000000  -0.000003  -0.000000   0.000000   0.000000
    18  C    0.000976  -0.000075  -0.006727   0.000083  -0.000017   0.000001
    19  H   -0.000001  -0.000001  -0.002481  -0.000003   0.000000  -0.000000
    20  H   -0.000003  -0.000001  -0.002494  -0.000003   0.000000  -0.000000
    21  C   -0.125509  -0.311661   0.415137  -1.225564   0.170300  -0.018078
    22  C   -1.134802   0.121561  -1.505473   0.210306   0.282367  -0.004673
    23  C    2.082208  -0.859297  -1.328444  -0.167492  -0.161915  -0.072737
    24  C   -4.718552   1.072169   0.261288   0.034159  -0.089632  -0.008972
    25  C   10.200075  -0.267665  -0.012845  -0.466154  -0.005184   0.387250
    26  C   -0.267665   5.712853   0.036912   0.414261  -0.002451   0.033429
    27  S   -0.012845   0.036912  18.149649   0.052480   0.018028   0.020505
    28  S   -0.466154   0.414261   0.052480  17.638188   0.007834   0.012638
    29  H   -0.005184  -0.002451   0.018028   0.007834   0.528679   0.000006
    30  H    0.387250   0.033429   0.020505   0.012638   0.000006   0.523442
    31  H    0.000000   0.000000   0.000000  -0.000000   0.000000   0.000000
    32  H   -0.055094   0.373821  -0.001064  -0.040927  -0.000004  -0.004964
    33  H   -0.000002   0.000000   0.000474   0.000000   0.000000  -0.000000
    34  H   -0.000000   0.000000   0.000013   0.000003   0.000001  -0.000000
              31         32         33         34
     1  C    0.020728   0.000000   0.002694   0.002062
     2  C   -0.046221   0.000000  -0.000322   0.033191
     3  C    0.074612   0.000000  -0.000285  -0.020257
     4  C    0.335113   0.000000   0.000484   0.001398
     5  S   -0.018221   0.000000  -0.003337  -0.000708
     6  O   -0.000404  -0.000000  -0.000002  -0.056987
     7  H   -0.005206  -0.000000   0.000000   0.000261
     8  C   -0.013559  -0.000002  -0.017461   0.004414
     9  C    0.004609   0.000006   0.002646  -0.000202
    10  C    0.000334   0.000137   0.032573   0.000053
    11  C   -0.000292   0.000003   0.011741   0.001613
    12  S   -0.000824   0.000001  -0.000308   0.004115
    13  O   -0.000038   0.000000  -0.058297  -0.000002
    14  H    0.000000  -0.000000   0.000354   0.000000
    15  C    0.000894   0.000000  -0.000001   0.401243
    16  H    0.000038   0.000000   0.000000  -0.028148
    17  H    0.000038   0.000000   0.000000  -0.028154
    18  C   -0.000089   0.000000   0.398644  -0.000001
    19  H    0.000000   0.000000  -0.028043   0.000000
    20  H    0.000000   0.000000  -0.028066   0.000000
    21  C    0.000024   0.009464   0.000748   0.000139
    22  C    0.000001   0.002320   0.000015   0.000215
    23  C    0.000000   0.026433   0.000003   0.000004
    24  C    0.000000   0.043455  -0.000007  -0.000007
    25  C    0.000000  -0.055094  -0.000002  -0.000000
    26  C    0.000000   0.373821   0.000000   0.000000
    27  S    0.000000  -0.001064   0.000474   0.000013
    28  S   -0.000000  -0.040927   0.000000   0.000003
    29  H    0.000000  -0.000004   0.000000   0.000001
    30  H    0.000000  -0.004964  -0.000000  -0.000000
    31  H    0.490481  -0.000000  -0.000000  -0.000001
    32  H   -0.000000   0.479727   0.000000  -0.000000
    33  H   -0.000000   0.000000   0.519807  -0.000000
    34  H   -0.000001  -0.000000  -0.000000   0.522674
 Mulliken charges:
               1
     1  C    0.848811
     2  C   -0.001259
     3  C   -0.600773
     4  C   -0.310387
     5  S   -0.267649
     6  O   -0.134436
     7  H    0.128857
     8  C    0.508065
     9  C   -0.021837
    10  C   -0.432870
    11  C   -0.089747
    12  S   -0.752070
    13  O   -0.143621
    14  H    0.133476
    15  C   -0.236349
    16  H    0.142944
    17  H    0.142956
    18  C   -0.219652
    19  H    0.145855
    20  H    0.145973
    21  C    0.522040
    22  C    0.516713
    23  C    0.470716
    24  C    0.083429
    25  C   -0.277268
    26  C   -0.203110
    27  S   -0.581430
    28  S   -0.435521
    29  H    0.131233
    30  H    0.133223
    31  H    0.157982
    32  H    0.166688
    33  H    0.165951
    34  H    0.163068
 Sum of Mulliken charges =  -0.00000
 Mulliken charges with hydrogens summed into heavy atoms:
               1
     1  C    0.848811
     2  C   -0.001259
     3  C   -0.471916
     4  C   -0.152405
     5  S   -0.267649
     6  O   -0.134436
     8  C    0.508065
     9  C   -0.021837
    10  C   -0.299394
    11  C   -0.089747
    12  S   -0.752070
    13  O   -0.143621
    15  C    0.212618
    18  C    0.238127
    21  C    0.522040
    22  C    0.647946
    23  C    0.470716
    24  C    0.083429
    25  C   -0.144045
    26  C   -0.036422
    27  S   -0.581430
    28  S   -0.435521
 Electronic spatial extent (au):  <R**2>=          12268.3688
 Charge=             -0.0000 electrons
 Dipole moment (field-independent basis, Debye):
    X=             -0.9144    Y=             -0.0634    Z=              0.0021  Tot=              0.9166
 Quadrupole moment (field-independent basis, Debye-Ang):
   XX=           -135.8306   YY=           -131.2909   ZZ=           -164.8751
   XY=              9.9344   XZ=             -0.0143   YZ=              0.0084
 Traceless Quadrupole moment (field-independent basis, Debye-Ang):
   XX=              8.1683   YY=             12.7079   ZZ=            -20.8762
   XY=              9.9344   XZ=             -0.0143   YZ=              0.0084
 Octapole moment (field-independent basis, Debye-Ang**2):
  XXX=             -0.3797  YYY=              6.2719  ZZZ=             -0.0120  XYY=            -60.4360
  XXY=            -28.2124  XXZ=             -0.0602  XZZ=            -14.4490  YZZ=              0.7596
  YYZ=              0.0067  XYZ=             -0.1497
 Hexadecapole moment (field-independent basis, Debye-Ang**3):
 XXXX=         -11933.8163 YYYY=          -2647.7845 ZZZZ=           -216.5930 XXXY=            243.1795
 XXXZ=             -0.9624 YYYX=             93.3583 YYYZ=              0.3022 ZZZX=              0.0987
 ZZZY=              0.0910 XXYY=          -2573.5913 XXZZ=          -2522.8193 YYZZ=           -566.7032
 XXYZ=             -0.1790 YYXZ=              0.0112 ZZXY=              1.0922
 N-N= 2.228702841126D+03 E-N=-1.003251756216D+04  KE= 2.354956950125D+03
 Unable to Open any file for archive entry.
 1\1\GINC-CX1-102-3-1\FOpt\RB3LYP\6-311+G(d,p)\C16H12O2S4\NS5018\17-Jun
 -2020\0\\# opt=modredundant b3lyp/6-311+g(d,p)\\OBT_0.pdb\\0,1\C,-0.16
 52095556,-2.1616665556,0.0039115965\C,1.0545570543,-2.8259012331,0.003
 5680613\C,0.9478335016,-4.2445966815,0.0049957396\C,-0.3540939334,-4.6
 610024774,0.0067044499\S,-1.4692194921,-3.3437116386,0.005398396\O,2.2
 095063537,-2.103247011,0.0021967002\H,1.789084046,-4.9222475469,0.0050
 580379\C,-0.3991191031,-0.7419904381,0.003360209\C,-1.6170909098,-0.07
 45880772,0.002859289\C,-1.5123131818,1.336547041,0.0022723447\C,-0.207
 2848164,1.7819856447,0.0021809461\S,0.9081598574,0.4351277318,0.002934
 1229\O,-2.7717134598,-0.7963328426,0.0028624813\H,-2.3616067067,2.0045
 581583,0.0019393649\C,3.4424913882,-2.8130224559,0.0012737196\H,3.5396
 20361,-3.4360262469,-0.8939915539\H,3.5415849388,-3.434946658,0.897076
 6722\C,-4.0050448076,-0.0864551933,0.0051997197\H,-4.1042691311,0.5368
 693219,-0.8896415655\H,-4.1015816126,0.5355982849,0.9011895758\C,0.273
 749963,3.1423819745,0.0015850443\C,1.5754428573,3.5945586448,0.0044574
 792\C,1.6508154415,5.0099222946,0.0026406169\C,0.4200433916,5.65334457
 76,-0.0014952397\C,0.5009333823,7.0729358017,-0.0030304912\C,1.8010211
 451,7.4932915281,-0.0000457588\S,-0.8804693565,4.4912851553,-0.0035302
 529\S,2.949909147,6.1736747446,0.0046665841\H,2.4308740785,2.933041871
 3,0.0079043861\H,-0.3450275874,7.7461487294,-0.0061519687\H,-0.7234965
 783,-5.6748669562,0.008136877\H,2.1677719131,8.5082273057,-0.000334599
 8\H,-4.7860659153,-0.8447492542,0.0058567003\H,4.2242073271,-2.0551475
 438,-0.0000076838\\Version=ES64L-G16RevC.01\State=1-A\HF=-2360.3715799
 \RMSD=7.582e-09\RMSF=2.934e-05\Dipole=-0.0335262,-0.3590494,0.0009828\
 Quadrupole=7.0034239,8.5175066,-15.5209305,-7.5384052,-0.0012194,-0.02
 13508\PG=C01 [X(C16H12O2S4)]\\@
 The archive entry for this job was punched.


 THOSE WITH THE GOLD MAKE THE RULES.

             -- PETER'S GOLDEN RULE
 Job cpu time:       0 days  5 hours  1 minutes 39.8 seconds.
 Elapsed time:       0 days  1 hours 15 minutes 40.4 seconds.
 File lengths (MBytes):  RWF=    208 Int=      0 D2E=      0 Chk=     26 Scr=      1
 Normal termination of Gaussian 16 at Wed Jun 17 10:23:34 2020.
