 Entering Gaussian System, Link 0=g16
 Input=pgT2_TT_85.gjf
 Output=pgT2_TT_85.log
 Initial command:
 /apps/gaussian/g16-c01-avx/g16/l1.exe "/tmp/pbs.4779966[260].pbs/Gau-3345690.inp" -scrdir="/tmp/pbs.4779966[260].pbs/"
 Entering Link 1 = /apps/gaussian/g16-c01-avx/g16/l1.exe PID=   3345691.
  
 Copyright (c) 1988-2019, Gaussian, Inc.  All Rights Reserved.
  
 This is part of the Gaussian(R) 16 program.  It is based on
 the Gaussian(R) 09 system (copyright 2009, Gaussian, Inc.),
 the Gaussian(R) 03 system (copyright 2003, Gaussian, Inc.),
 the Gaussian(R) 98 system (copyright 1998, Gaussian, Inc.),
 the Gaussian(R) 94 system (copyright 1995, Gaussian, Inc.),
 the Gaussian 92(TM) system (copyright 1992, Gaussian, Inc.),
 the Gaussian 90(TM) system (copyright 1990, Gaussian, Inc.),
 the Gaussian 88(TM) system (copyright 1988, Gaussian, Inc.),
 the Gaussian 86(TM) system (copyright 1986, Carnegie Mellon
 University), and the Gaussian 82(TM) system (copyright 1983,
 Carnegie Mellon University). Gaussian is a federally registered
 trademark of Gaussian, Inc.
  
 This software contains proprietary and confidential information,
 including trade secrets, belonging to Gaussian, Inc.
  
 This software is provided under written license and may be
 used, copied, transmitted, or stored only in accord with that
 written license.
  
 The following legend is applicable only to US Government
 contracts under FAR:
  
                    RESTRICTED RIGHTS LEGEND
  
 Use, reproduction and disclosure by the US Government is
 subject to restrictions as set forth in subparagraphs (a)
 and (c) of the Commercial Computer Software - Restricted
 Rights clause in FAR 52.227-19.
  
 Gaussian, Inc.
 340 Quinnipiac St., Bldg. 40, Wallingford CT 06492
  
  
 ---------------------------------------------------------------
 Warning -- This program may not be used in any manner that
 competes with the business of Gaussian, Inc. or will provide
 assistance to any competitor of Gaussian, Inc.  The licensee
 of this program is prohibited from giving any competitor of
 Gaussian, Inc. access to this program.  By using this program,
 the user acknowledges that Gaussian, Inc. is engaged in the
 business of creating and licensing software in the field of
 computational chemistry and represents and warrants to the
 licensee that it is not a competitor of Gaussian, Inc. and that
 it will not use this program in any manner prohibited above.
 ---------------------------------------------------------------
  

 Cite this work as:
 Gaussian 16, Revision C.01,
 M. J. Frisch, G. W. Trucks, H. B. Schlegel, G. E. Scuseria, 
 M. A. Robb, J. R. Cheeseman, G. Scalmani, V. Barone, 
 G. A. Petersson, H. Nakatsuji, X. Li, M. Caricato, A. V. Marenich, 
 J. Bloino, B. G. Janesko, R. Gomperts, B. Mennucci, H. P. Hratchian, 
 J. V. Ortiz, A. F. Izmaylov, J. L. Sonnenberg, D. Williams-Young, 
 F. Ding, F. Lipparini, F. Egidi, J. Goings, B. Peng, A. Petrone, 
 T. Henderson, D. Ranasinghe, V. G. Zakrzewski, J. Gao, N. Rega, 
 G. Zheng, W. Liang, M. Hada, M. Ehara, K. Toyota, R. Fukuda, 
 J. Hasegawa, M. Ishida, T. Nakajima, Y. Honda, O. Kitao, H. Nakai, 
 T. Vreven, K. Throssell, J. A. Montgomery, Jr., J. E. Peralta, 
 F. Ogliaro, M. J. Bearpark, J. J. Heyd, E. N. Brothers, K. N. Kudin, 
 V. N. Staroverov, T. A. Keith, R. Kobayashi, J. Normand, 
 K. Raghavachari, A. P. Rendell, J. C. Burant, S. S. Iyengar, 
 J. Tomasi, M. Cossi, J. M. Millam, M. Klene, C. Adamo, R. Cammi, 
 J. W. Ochterski, R. L. Martin, K. Morokuma, O. Farkas, 
 J. B. Foresman, and D. J. Fox, Gaussian, Inc., Wallingford CT, 2019.
 
 ******************************************
 Gaussian 16:  ES64L-G16RevC.01  3-Jul-2019
                 1-Nov-2021 
 ******************************************
 %mem=100GB
 %nprocshared=16
 Will use up to   16 processors via shared memory.
 -----------------
 # mp2/aug-cc-pvdz
 -----------------
 1/38=1,172=1/1;
 2/12=2,17=6,18=5,40=1/2;
 3/5=16,7=10,11=9,25=1,30=1/1,2,3;
 4//1;
 5/5=2,38=5/2;
 8/10=1/1;
 9/16=-3/6;
 6/7=2,8=2,9=2,10=2/1;
 99/5=1,9=1/99;
 --------------
 pgT2_TT_85.pdb
 --------------
 Symbolic Z-matrix:
 Charge =  0 Multiplicity = 1
 C                    -3.8       0.05     -0.6 
 C                    -2.43      0.25     -0.97 
 C                    -1.57     -0.07      0.02 
 C                    -3.95     -0.42      0.65 
 S                    -2.42     -0.63      1.43 
 H                    -4.87     -0.66      1.16 
 C                    -0.1       0.01     -0.01 
 S                     0.72      1.52      0.36 
 C                     2.27      0.77      0.13 
 C                     2.13     -0.54     -0.21 
 C                     0.77     -0.99     -0.28 
 H                     0.46     -1.99     -0.53 
 S                     3.68     -1.29     -0.45 
 C                     4.48      0.21     -0.08 
 C                     3.63      1.22      0.2 
 H                     5.56      0.26     -0.1 
 H                     3.94      2.22      0.45 
 H                    -2.11      0.62     -1.93 
 O                    -4.85      0.29     -1.43 
 H                    -4.56      0.65     -2.25 
 
                          Input orientation:                          
 ---------------------------------------------------------------------
 Center     Atomic      Atomic             Coordinates (Angstroms)
 Number     Number       Type             X           Y           Z
 ---------------------------------------------------------------------
      1          6           0       -3.800000    0.050000   -0.600000
      2          6           0       -2.430000    0.250000   -0.970000
      3          6           0       -1.570000   -0.070000    0.020000
      4          6           0       -3.950000   -0.420000    0.650000
      5         16           0       -2.420000   -0.630000    1.430000
      6          1           0       -4.870000   -0.660000    1.160000
      7          6           0       -0.100000    0.010000   -0.010000
      8         16           0        0.720000    1.520000    0.360000
      9          6           0        2.270000    0.770000    0.130000
     10          6           0        2.130000   -0.540000   -0.210000
     11          6           0        0.770000   -0.990000   -0.280000
     12          1           0        0.460000   -1.990000   -0.530000
     13         16           0        3.680000   -1.290000   -0.450000
     14          6           0        4.480000    0.210000   -0.080000
     15          6           0        3.630000    1.220000    0.200000
     16          1           0        5.560000    0.260000   -0.100000
     17          1           0        3.940000    2.220000    0.450000
     18          1           0       -2.110000    0.620000   -1.930000
     19          8           0       -4.850000    0.290000   -1.430000
     20          1           0       -4.560000    0.650000   -2.250000
 ---------------------------------------------------------------------
                    Distance matrix (angstroms):
                    1          2          3          4          5
     1  C    0.000000
     2  C    1.433109   0.000000
     3  C    2.317693   1.349852   0.000000
     4  C    1.343838   2.320280   2.486725   0.000000
     5  S    2.547096   2.556267   1.739023   1.730145   0.000000
     6  H    2.178669   3.364313   3.540861   1.078935   2.465015
     7  C    3.746959   2.531423   1.472481   3.929758   2.804568
     8  S    4.849010   3.647506   2.808523   5.065234   3.953100
     9  C    6.155989   4.854936   3.932340   6.354125   5.064198
    10  C    5.972026   4.689915   3.736817   6.141694   4.837375
    11  C    4.697755   3.500529   2.532193   4.844399   3.637279
    12  H    4.723780   3.682839   2.847771   4.827567   3.739733
    13  S    7.600559   6.322507   5.410342   7.757822   6.417164
    14  C    8.297855   6.967195   6.057301   8.484969   7.113065
    15  C    7.563980   6.247672   5.360644   7.768430   6.444990
    16  H    9.375697   8.037232   7.138641   9.563734   8.173946
    17  H    8.106726   6.817199   5.982399   8.322361   7.037933
    18  H    2.224837   1.077451   2.137803   3.335206   3.598361
    19  O    1.359779   2.463656   3.604234   2.374974   3.864052
    20  H    1.913139   2.517002   3.822486   3.150714   4.445267
                    6          7          8          9         10
     6  H    0.000000
     7  C    4.956884   0.000000
     8  S    6.053140   1.757669   0.000000
     9  C    7.354278   2.492810   1.737210   0.000000
    10  C    7.133814   2.305515   2.560586   1.360625   0.000000
    11  C    5.830274   1.352701   2.590791   2.348553   1.434225
    12  H    5.747513   2.141028   3.630399   3.365903   2.234681
    13  S    8.723044   4.021443   4.160985   2.562830   1.738563
    14  C    9.471906   4.584899   4.005908   2.289498   2.470202
    15  C    8.758196   3.926971   2.929795   1.434225   2.348553
    16  H   10.546037   5.666233   5.022430   3.337229   3.523776
    17  H    9.295945   4.627883   3.296437   2.234681   3.365903
    18  H    4.336369   2.845804   3.750067   4.842572   4.720339
    19  O    2.758804   4.965612   5.978453   7.304683   7.134262
    20  H    3.666101   5.031779   5.953772   7.233789   7.094632
                   11         12         13         14         15
    11  C    0.000000
    12  H    1.076383   0.000000
    13  S    2.930358   3.296180   0.000000
    14  C    3.904369   4.604661   1.739799   0.000000
    15  C    3.646108   4.570109   2.593280   1.349444   0.000000
    16  H    4.953685   5.590832   2.461585   1.081342   2.176350
    17  H    4.570109   5.549315   3.632864   2.147696   1.076383
    18  H    3.689038   3.921352   6.273962   6.857018   6.151788
    19  O    5.877525   5.848461   8.730275   9.427502   8.685171
    20  H    5.914339   5.926922   8.654548   9.307207   8.567584
                   16         17         18         19         20
    16  H    0.000000
    17  H    2.601634   0.000000
    18  H    7.893504   6.695289   0.000000
    19  O   10.494661   9.193661   2.804728   0.000000
    20  H   10.353212   9.055656   2.470992   0.941329   0.000000
 Stoichiometry    C10H6OS3
 Framework group  C1[X(C10H6OS3)]
 Deg. of freedom    54
 Full point group                 C1      NOp   1
 Largest Abelian subgroup         C1      NOp   1
 Largest concise Abelian subgroup C1      NOp   1
                         Standard orientation:                         
 ---------------------------------------------------------------------
 Center     Atomic      Atomic             Coordinates (Angstroms)
 Number     Number       Type             X           Y           Z
 ---------------------------------------------------------------------
      1          6           0       -3.798815    0.051587   -0.600348
      2          6           0       -2.428697    0.252484   -0.969422
      3          6           0       -1.569021   -0.069771    0.020128
      4          6           0       -3.949222   -0.421301    0.648514
      5         16           0       -2.419479   -0.633050    1.428545
      6          1           0       -4.869387   -0.662507    1.157647
      7          6           0       -0.099014    0.010346   -0.009190
      8         16           0        0.720811    1.519515    0.364570
      9          6           0        2.270914    0.770098    0.133365
     10          6           0        2.131072   -0.539119   -0.209704
     11          6           0        0.771111   -0.989000   -0.281202
     12          1           0        0.461229   -1.988431   -0.533613
     13         16           0        3.681178   -1.288513   -0.450909
     14          6           0        4.481003    0.210656   -0.077179
     15          6           0        3.630875    1.219979    0.204863
     16          1           0        5.561008    0.260737   -0.096698
     17          1           0        3.940757    2.219410    0.457274
     18          1           0       -2.108384    0.624708   -1.928457
     19          8           0       -4.848542    0.293467   -1.430147
     20          1           0       -4.558277    0.655367   -2.249216
 ---------------------------------------------------------------------
 Rotational constants (GHZ):           1.4982648           0.2261086           0.2208825
 Standard basis: Aug-CC-pVDZ (5D, 7F)
 There are   416 symmetry adapted cartesian basis functions of A   symmetry.
 There are   388 symmetry adapted basis functions of A   symmetry.
   388 basis functions,   782 primitive gaussians,   416 cartesian basis functions
    61 alpha electrons       61 beta electrons
       nuclear repulsion energy      1107.5598758791 Hartrees.
 NAtoms=   20 NActive=   20 NUniq=   20 SFac= 1.00D+00 NAtFMM=   60 NAOKFM=F Big=F
 Integral buffers will be    131072 words long.
 Raffenetti 1 integral format.
 Two-electron integral symmetry is turned on.
 One-electron integrals computed using PRISM.
 NBasis=   388 RedAO= T EigKep=  4.00D-06  NBF=   388
 NBsUse=   388 1.00D-06 EigRej= -1.00D+00 NBFU=   388
 ExpMin= 2.97D-02 ExpMax= 1.11D+05 ExpMxC= 1.07D+03 IAcc=3 IRadAn=         5 AccDes= 0.00D+00
 Harris functional with IExCor=  205 and IRadAn=       5 diagonalized for initial guess.
 HarFok:  IExCor=  205 AccDes= 0.00D+00 IRadAn=         5 IDoV= 1 UseB2=F ITyADJ=14
 ICtDFT=  3500011 ScaDFX=  1.000000  1.000000  1.000000  1.000000
 FoFCou: FMM=F IPFlag=           0 FMFlag=      100000 FMFlg1=           0
         NFxFlg=           0 DoJE=T BraDBF=F KetDBF=T FulRan=T
         wScrn=  0.000000 ICntrl=       500 IOpCl=  0 I1Cent=   200000004 NGrid=           0
         NMat0=    1 NMatS0=      1 NMatT0=    0 NMatD0=    1 NMtDS0=    0 NMtDT0=    0
 Petite list used in FoFCou.
 Requested convergence on RMS density matrix=1.00D-08 within 128 cycles.
 Requested convergence on MAX density matrix=1.00D-06.
 Requested convergence on             energy=1.00D-06.
 No special actions if energy rises.
 SCF Done:  E(RHF) =  -1649.64128832     A.U. after   17 cycles
            NFock= 17  Conv=0.59D-08     -V/T= 2.0000
 ExpMin= 2.97D-02 ExpMax= 1.11D+05 ExpMxC= 1.07D+03 IAcc=3 IRadAn=         5 AccDes= 0.00D+00
 HarFok:  IExCor=  205 AccDes= 0.00D+00 IRadAn=         5 IDoV=-2 UseB2=F ITyADJ=14
 ICtDFT= 12500011 ScaDFX=  1.000000  1.000000  1.000000  1.000000
 GSVD:  LWork=        -884 too small for GESVD, short by        3770 words or        3770 for optimal perf.
 Range of M.O.s used for correlation:    27   388
 NBasis=   388 NAE=    61 NBE=    61 NFC=    26 NFV=     0
 NROrb=    362 NOA=    35 NOB=    35 NVA=   327 NVB=   327

 **** Warning!!: The largest alpha MO coefficient is  0.88307571D+02

 Fully direct method using O(OVN) memory.
 JobTyp=1 Pass  1:  I=   1 to  35 NPSUse= 16 ParTrn=T ParDer=T DoDerP=F.
 Spin components of T(2) and E(2):
     alpha-alpha T2 =       0.1133569143D+00 E2=     -0.2735281923D+00
     alpha-beta  T2 =       0.5535781058D+00 E2=     -0.1419946522D+01
     beta-beta   T2 =       0.1133569143D+00 E2=     -0.2735281923D+00
 ANorm=    0.1334275809D+01
 E2 =    -0.1967002907D+01 EUMP2 =    -0.16516082912268D+04

 **********************************************************************

            Population analysis using the SCF Density.

 **********************************************************************

 Orbital symmetries:
       Occupied  (A) (A) (A) (A) (A) (A) (A) (A) (A) (A) (A) (A)
                 (A) (A) (A) (A) (A) (A) (A) (A) (A) (A) (A) (A)
                 (A) (A) (A) (A) (A) (A) (A) (A) (A) (A) (A) (A)
                 (A) (A) (A) (A) (A) (A) (A) (A) (A) (A) (A) (A)
                 (A) (A) (A) (A) (A) (A) (A) (A) (A) (A) (A) (A)
                 (A)
       Virtual   (A) (A) (A) (A) (A) (A) (A) (A) (A) (A) (A) (A)
                 (A) (A) (A) (A) (A) (A) (A) (A) (A) (A) (A) (A)
                 (A) (A) (A) (A) (A) (A) (A) (A) (A) (A) (A) (A)
                 (A) (A) (A) (A) (A) (A) (A) (A) (A) (A) (A) (A)
                 (A) (A) (A) (A) (A) (A) (A) (A) (A) (A) (A) (A)
                 (A) (A) (A) (A) (A) (A) (A) (A) (A) (A) (A) (A)
                 (A) (A) (A) (A) (A) (A) (A) (A) (A) (A) (A) (A)
                 (A) (A) (A) (A) (A) (A) (A) (A) (A) (A) (A) (A)
                 (A) (A) (A) (A) (A) (A) (A) (A) (A) (A) (A) (A)
                 (A) (A) (A) (A) (A) (A) (A) (A) (A) (A) (A) (A)
                 (A) (A) (A) (A) (A) (A) (A) (A) (A) (A) (A) (A)
                 (A) (A) (A) (A) (A) (A) (A) (A) (A) (A) (A) (A)
                 (A) (A) (A) (A) (A) (A) (A) (A) (A) (A) (A) (A)
                 (A) (A) (A) (A) (A) (A) (A) (A) (A) (A) (A) (A)
                 (A) (A) (A) (A) (A) (A) (A) (A) (A) (A) (A) (A)
                 (A) (A) (A) (A) (A) (A) (A) (A) (A) (A) (A) (A)
                 (A) (A) (A) (A) (A) (A) (A) (A) (A) (A) (A) (A)
                 (A) (A) (A) (A) (A) (A) (A) (A) (A) (A) (A) (A)
                 (A) (A) (A) (A) (A) (A) (A) (A) (A) (A) (A) (A)
                 (A) (A) (A) (A) (A) (A) (A) (A) (A) (A) (A) (A)
                 (A) (A) (A) (A) (A) (A) (A) (A) (A) (A) (A) (A)
                 (A) (A) (A) (A) (A) (A) (A) (A) (A) (A) (A) (A)
                 (A) (A) (A) (A) (A) (A) (A) (A) (A) (A) (A) (A)
                 (A) (A) (A) (A) (A) (A) (A) (A) (A) (A) (A) (A)
                 (A) (A) (A) (A) (A) (A) (A) (A) (A) (A) (A) (A)
                 (A) (A) (A) (A) (A) (A) (A) (A) (A) (A) (A) (A)
                 (A) (A) (A) (A) (A) (A) (A) (A) (A) (A) (A) (A)
                 (A) (A) (A)
 The electronic state is 1-A.
 Alpha  occ. eigenvalues --  -91.99404 -91.99378 -91.98899 -20.60583 -11.31225
 Alpha  occ. eigenvalues --  -11.29312 -11.29217 -11.28164 -11.27670 -11.27488
 Alpha  occ. eigenvalues --  -11.26361 -11.26080 -11.25676 -11.25466  -8.99567
 Alpha  occ. eigenvalues --   -8.99561  -8.99085  -6.67733  -6.67723  -6.67655
 Alpha  occ. eigenvalues --   -6.67643  -6.67448  -6.67434  -6.67250  -6.67160
 Alpha  occ. eigenvalues --   -6.66961  -1.42190  -1.22223  -1.18734  -1.13242
 Alpha  occ. eigenvalues --   -1.03047  -1.02648  -0.99118  -0.96076  -0.95014
 Alpha  occ. eigenvalues --   -0.84067  -0.78351  -0.77871  -0.74808  -0.72643
 Alpha  occ. eigenvalues --   -0.72276  -0.67537  -0.66084  -0.60995  -0.60453
 Alpha  occ. eigenvalues --   -0.58293  -0.57496  -0.56720  -0.54852  -0.54269
 Alpha  occ. eigenvalues --   -0.52545  -0.50994  -0.49407  -0.48743  -0.46639
 Alpha  occ. eigenvalues --   -0.46547  -0.39172  -0.35097  -0.32726  -0.32026
 Alpha  occ. eigenvalues --   -0.31017
 Alpha virt. eigenvalues --    0.03078   0.03377   0.04479   0.04714   0.04765
 Alpha virt. eigenvalues --    0.06250   0.07701   0.08232   0.08424   0.08668
 Alpha virt. eigenvalues --    0.09415   0.09881   0.10339   0.10834   0.11423
 Alpha virt. eigenvalues --    0.11986   0.12430   0.12609   0.13177   0.13418
 Alpha virt. eigenvalues --    0.13709   0.13834   0.14198   0.14601   0.14922
 Alpha virt. eigenvalues --    0.15419   0.15667   0.15904   0.16019   0.16737
 Alpha virt. eigenvalues --    0.17194   0.18108   0.18183   0.18444   0.18702
 Alpha virt. eigenvalues --    0.19496   0.19696   0.20060   0.20678   0.20894
 Alpha virt. eigenvalues --    0.21671   0.22250   0.22585   0.22628   0.23201
 Alpha virt. eigenvalues --    0.23825   0.24066   0.24796   0.25121   0.25453
 Alpha virt. eigenvalues --    0.26319   0.26582   0.27076   0.27607   0.28094
 Alpha virt. eigenvalues --    0.28539   0.28812   0.30053   0.30854   0.31152
 Alpha virt. eigenvalues --    0.31425   0.32178   0.32638   0.32659   0.32909
 Alpha virt. eigenvalues --    0.33205   0.34445   0.35110   0.35389   0.35927
 Alpha virt. eigenvalues --    0.36383   0.36862   0.37420   0.38320   0.38900
 Alpha virt. eigenvalues --    0.40030   0.40468   0.41313   0.41729   0.42646
 Alpha virt. eigenvalues --    0.42980   0.43385   0.43846   0.44226   0.44738
 Alpha virt. eigenvalues --    0.45130   0.45282   0.46773   0.47465   0.47928
 Alpha virt. eigenvalues --    0.48311   0.48749   0.49182   0.50147   0.51610
 Alpha virt. eigenvalues --    0.52444   0.53469   0.53994   0.54471   0.54937
 Alpha virt. eigenvalues --    0.56877   0.57105   0.57352   0.58190   0.58801
 Alpha virt. eigenvalues --    0.59293   0.60238   0.60832   0.61831   0.62968
 Alpha virt. eigenvalues --    0.63511   0.64084   0.64741   0.64925   0.65228
 Alpha virt. eigenvalues --    0.65288   0.66646   0.67099   0.67699   0.68546
 Alpha virt. eigenvalues --    0.69035   0.69322   0.69947   0.70662   0.71034
 Alpha virt. eigenvalues --    0.71851   0.72201   0.72961   0.73630   0.73939
 Alpha virt. eigenvalues --    0.74196   0.74537   0.75110   0.75981   0.76487
 Alpha virt. eigenvalues --    0.76859   0.77143   0.78389   0.79136   0.79612
 Alpha virt. eigenvalues --    0.80626   0.81832   0.82274   0.83043   0.83773
 Alpha virt. eigenvalues --    0.83940   0.84757   0.85384   0.85662   0.86381
 Alpha virt. eigenvalues --    0.88034   0.89095   0.90270   0.90851   0.91328
 Alpha virt. eigenvalues --    0.92724   0.93188   0.93612   0.94170   0.94581
 Alpha virt. eigenvalues --    0.94901   0.95493   0.96564   0.97685   0.97854
 Alpha virt. eigenvalues --    0.98700   0.99393   1.00021   1.00895   1.01696
 Alpha virt. eigenvalues --    1.02188   1.03925   1.06177   1.06267   1.06955
 Alpha virt. eigenvalues --    1.07522   1.09150   1.09584   1.10923   1.11237
 Alpha virt. eigenvalues --    1.12240   1.14512   1.16609   1.17206   1.18688
 Alpha virt. eigenvalues --    1.19769   1.21599   1.21891   1.22471   1.23292
 Alpha virt. eigenvalues --    1.23773   1.24694   1.25161   1.26228   1.26573
 Alpha virt. eigenvalues --    1.26977   1.27619   1.30657   1.30821   1.31144
 Alpha virt. eigenvalues --    1.32304   1.33238   1.34548   1.35397   1.35816
 Alpha virt. eigenvalues --    1.37114   1.38226   1.39452   1.40215   1.42749
 Alpha virt. eigenvalues --    1.43075   1.44490   1.45922   1.46988   1.47894
 Alpha virt. eigenvalues --    1.49562   1.53553   1.54889   1.55661   1.56645
 Alpha virt. eigenvalues --    1.57277   1.58493   1.59175   1.59539   1.60754
 Alpha virt. eigenvalues --    1.61950   1.63503   1.64815   1.65177   1.65792
 Alpha virt. eigenvalues --    1.67128   1.67427   1.69379   1.70826   1.71980
 Alpha virt. eigenvalues --    1.73325   1.74011   1.74712   1.75177   1.77840
 Alpha virt. eigenvalues --    1.79464   1.80124   1.80836   1.82434   1.83228
 Alpha virt. eigenvalues --    1.84030   1.85446   1.87819   1.88465   1.89256
 Alpha virt. eigenvalues --    1.91088   1.93968   1.95042   1.96222   1.96678
 Alpha virt. eigenvalues --    1.99243   2.00297   2.01357   2.01922   2.03529
 Alpha virt. eigenvalues --    2.03933   2.05679   2.06605   2.08464   2.10071
 Alpha virt. eigenvalues --    2.10421   2.12903   2.14082   2.14602   2.16536
 Alpha virt. eigenvalues --    2.18730   2.20739   2.21643   2.21760   2.22978
 Alpha virt. eigenvalues --    2.23326   2.25297   2.26902   2.28015   2.28648
 Alpha virt. eigenvalues --    2.30926   2.31225   2.33239   2.33549   2.36408
 Alpha virt. eigenvalues --    2.36814   2.39998   2.41517   2.43895   2.47141
 Alpha virt. eigenvalues --    2.47338   2.47929   2.49449   2.50525   2.53689
 Alpha virt. eigenvalues --    2.55675   2.57744   2.59161   2.62421   2.66038
 Alpha virt. eigenvalues --    2.74291   2.81573   2.84506   2.86682   2.88628
 Alpha virt. eigenvalues --    2.90936   2.95431   2.97807   2.99472   3.02300
 Alpha virt. eigenvalues --    3.11282   3.13170   3.23823   3.30062   3.33290
 Alpha virt. eigenvalues --    3.40897   3.52250   3.55439   3.61800   3.75295
 Alpha virt. eigenvalues --    3.76559   3.79828   3.85520   3.89620   4.22468
 Alpha virt. eigenvalues --    4.29279   4.44586
          Condensed to atoms (all electrons):
               1          2          3          4          5          6
     1  C    6.285525  -0.738539  -0.422097   0.199103  -0.320524   0.254989
     2  C   -0.738539  10.363560  -2.533161   0.223556  -0.732402   0.058223
     3  C   -0.422097  -2.533161  11.656403  -1.508266   0.563617   0.111194
     4  C    0.199103   0.223556  -1.508266   7.022424   0.303173  -0.150448
     5  S   -0.320524  -0.732402   0.563617   0.303173  16.221927  -0.172824
     6  H    0.254989   0.058223   0.111194  -0.150448  -0.172824   1.263971
     7  C    0.228275  -0.284719  -1.540497   0.219715  -0.641866  -0.009165
     8  S    0.060652   0.112510  -0.550971  -0.014145   0.044932  -0.000231
     9  C    0.037951  -0.026081  -0.377961   0.006018  -0.034622  -0.000424
    10  C   -0.010346   0.059768   0.449282   0.007173   0.074036   0.000969
    11  C   -0.062567  -0.143380  -0.187400  -0.186038   0.242276   0.000110
    12  H    0.014188   0.058680   0.023820   0.001570   0.010427   0.000272
    13  S   -0.001543   0.000461  -0.062370  -0.001252   0.000806  -0.000103
    14  C    0.000790  -0.003022   0.024677  -0.000050   0.001322   0.000027
    15  C    0.002205  -0.005681  -0.350929  -0.004941  -0.007981  -0.000327
    16  H    0.000028   0.000217  -0.001128  -0.000013   0.000010   0.000001
    17  H    0.000218  -0.000275  -0.010257  -0.000276   0.000261  -0.000017
    18  H    0.134126  -0.492266   0.294046  -0.081197   0.042977  -0.003257
    19  O   -0.241062  -0.069953   0.077789  -0.069245  -0.005375  -0.008632
    20  H   -0.026720  -0.068780  -0.009119  -0.007775   0.003512  -0.006547
               7          8          9         10         11         12
     1  C    0.228275   0.060652   0.037951  -0.010346  -0.062567   0.014188
     2  C   -0.284719   0.112510  -0.026081   0.059768  -0.143380   0.058680
     3  C   -1.540497  -0.550971  -0.377961   0.449282  -0.187400   0.023820
     4  C    0.219715  -0.014145   0.006018   0.007173  -0.186038   0.001570
     5  S   -0.641866   0.044932  -0.034622   0.074036   0.242276   0.010427
     6  H   -0.009165  -0.000231  -0.000424   0.000969   0.000110   0.000272
     7  C   12.653923   0.146406   0.254005  -0.917259  -3.600488   0.019279
     8  S    0.146406  16.401351   0.251591  -0.494443  -0.233220   0.035143
     9  C    0.254005   0.251591  10.916138  -0.682059  -1.774130  -0.047172
    10  C   -0.917259  -0.494443  -0.682059  12.022825  -2.630027   0.718222
    11  C   -3.600488  -0.233220  -1.774130  -2.630027  15.056679  -1.020710
    12  H    0.019279   0.035143  -0.047172   0.718222  -1.020710   1.681775
    13  S   -0.252806   0.093855  -0.073568  -0.226075  -0.002947  -0.039116
    14  C    0.058166  -0.089291  -0.048372  -1.000771  -0.149389   0.021594
    15  C   -0.636120  -0.197197  -2.300603  -1.132343   0.514477  -0.050036
    16  H    0.007542   0.007655   0.068423  -0.040462   0.026106   0.001480
    17  H    0.115927   0.009279   0.582979   0.061683  -0.065282  -0.001885
    18  H   -0.215276   0.011766  -0.007488   0.015073   0.104740   0.003472
    19  O    0.003304  -0.000708  -0.000040  -0.001678   0.009924  -0.000045
    20  H   -0.009303   0.001264   0.000235  -0.000138   0.000683   0.000019
              13         14         15         16         17         18
     1  C   -0.001543   0.000790   0.002205   0.000028   0.000218   0.134126
     2  C    0.000461  -0.003022  -0.005681   0.000217  -0.000275  -0.492266
     3  C   -0.062370   0.024677  -0.350929  -0.001128  -0.010257   0.294046
     4  C   -0.001252  -0.000050  -0.004941  -0.000013  -0.000276  -0.081197
     5  S    0.000806   0.001322  -0.007981   0.000010   0.000261   0.042977
     6  H   -0.000103   0.000027  -0.000327   0.000001  -0.000017  -0.003257
     7  C   -0.252806   0.058166  -0.636120   0.007542   0.115927  -0.215276
     8  S    0.093855  -0.089291  -0.197197   0.007655   0.009279   0.011766
     9  C   -0.073568  -0.048372  -2.300603   0.068423   0.582979  -0.007488
    10  C   -0.226075  -1.000771  -1.132343  -0.040462   0.061683   0.015073
    11  C   -0.002947  -0.149389   0.514477   0.026106  -0.065282   0.104740
    12  H   -0.039116   0.021594  -0.050036   0.001480  -0.001885   0.003472
    13  S   15.931390   0.168514  -0.018907  -0.161655  -0.005870   0.000234
    14  C    0.168514   6.896471   0.120949   0.211241  -0.131159   0.000269
    15  C   -0.018907   0.120949  10.008819   0.035425  -0.601343  -0.002512
    16  H   -0.161655   0.211241   0.035425   1.281768  -0.068625   0.000067
    17  H   -0.005870  -0.131159  -0.601343  -0.068625   1.437487  -0.000107
    18  H    0.000234   0.000269  -0.002512   0.000067  -0.000107   1.797985
    19  O    0.000041  -0.000022   0.000124  -0.000000   0.000011  -0.062581
    20  H   -0.000031  -0.000003   0.000163  -0.000001   0.000011  -0.011476
              19         20
     1  C   -0.241062  -0.026720
     2  C   -0.069953  -0.068780
     3  C    0.077789  -0.009119
     4  C   -0.069245  -0.007775
     5  S   -0.005375   0.003512
     6  H   -0.008632  -0.006547
     7  C    0.003304  -0.009303
     8  S   -0.000708   0.001264
     9  C   -0.000040   0.000235
    10  C   -0.001678  -0.000138
    11  C    0.009924   0.000683
    12  H   -0.000045   0.000019
    13  S    0.000041  -0.000031
    14  C   -0.000022  -0.000003
    15  C    0.000124   0.000163
    16  H   -0.000000  -0.000001
    17  H    0.000011   0.000011
    18  H   -0.062581  -0.011476
    19  O    8.868344   0.349227
    20  H    0.349227   0.657212
 Mulliken charges:
               1
     1  C    0.605349
     2  C    0.221283
     3  C    0.353329
     4  C    0.040914
     5  S    0.406317
     6  H   -0.337781
     7  C    0.400957
     8  S    0.403803
     9  C   -0.744820
    10  C   -0.273429
    11  C    0.100585
    12  H   -0.430977
    13  S    0.650941
    14  C   -0.081941
    15  C    0.626758
    16  H   -0.368078
    17  H   -0.322759
    18  H   -0.528594
    19  O   -0.849423
    20  H    0.127566
 Sum of Mulliken charges =  -0.00000
 Mulliken charges with hydrogens summed into heavy atoms:
               1
     1  C    0.605349
     2  C   -0.307311
     3  C    0.353329
     4  C   -0.296867
     5  S    0.406317
     7  C    0.400957
     8  S    0.403803
     9  C   -0.744820
    10  C   -0.273429
    11  C   -0.330392
    13  S    0.650941
    14  C   -0.450020
    15  C    0.303999
    19  O   -0.721857
 Electronic spatial extent (au):  <R**2>=           4770.0402
 Charge=             -0.0000 electrons
 Dipole moment (field-independent basis, Debye):
    X=              1.1633    Y=              0.6939    Z=             -1.6362  Tot=              2.1241
 Quadrupole moment (field-independent basis, Debye-Ang):
   XX=            -96.9615   YY=           -101.9106   ZZ=           -100.9272
   XY=              2.7609   XZ=              4.0717   YZ=             -1.6186
 Traceless Quadrupole moment (field-independent basis, Debye-Ang):
   XX=              2.9716   YY=             -1.9775   ZZ=             -0.9941
   XY=              2.7609   XZ=              4.0717   YZ=             -1.6186
 Octapole moment (field-independent basis, Debye-Ang**2):
  XXX=             76.9257  YYY=              4.1565  ZZZ=            -24.0846  XYY=              3.1436
  XXY=             22.6070  XXZ=              3.0818  XZZ=            -43.1298  YZZ=              5.4369
  YYZ=             -3.5815  XYZ=             18.0600
 Hexadecapole moment (field-independent basis, Debye-Ang**3):
 XXXX=          -5246.8348 YYYY=           -612.0274 ZZZZ=           -439.7498 XXXY=             75.9097
 XXXZ=            -40.3870 YYYX=             11.2977 YYYZ=             11.4413 ZZZX=            103.0484
 ZZZY=            -28.7935 XXYY=          -1007.7250 XXZZ=           -929.4815 YYZZ=           -186.6163
 XXYZ=            -46.2432 YYXZ=             23.7005 ZZXY=            -24.6062
 N-N= 1.107559875879D+03 E-N=-6.122112212047D+03  KE= 1.649591132734D+03
 Unable to Open any file for archive entry.
 1\1\GINC-CX3-5-13\SP\RMP2-FC\Aug-CC-pVDZ\C10H6O1S3\NS5018\01-Nov-2021\
 0\\# mp2/aug-cc-pvdz\\pgT2_TT_85.pdb\\0,1\C,0,-3.8,0.05,-0.6\C,0,-2.43
 ,0.25,-0.97\C,0,-1.57,-0.07,0.02\C,0,-3.95,-0.42,0.65\S,0,-2.42,-0.63,
 1.43\H,0,-4.87,-0.66,1.16\C,0,-0.1,0.01,-0.01\S,0,0.72,1.52,0.36\C,0,2
 .27,0.77,0.13\C,0,2.13,-0.54,-0.21\C,0,0.77,-0.99,-0.28\H,0,0.46,-1.99
 ,-0.53\S,0,3.68,-1.29,-0.45\C,0,4.48,0.21,-0.08\C,0,3.63,1.22,0.2\H,0,
 5.56,0.26,-0.1\H,0,3.94,2.22,0.45\H,0,-2.11,0.62,-1.93\O,0,-4.85,0.29,
 -1.43\H,0,-4.56,0.65,-2.25\\Version=ES64L-G16RevC.01\State=1-A\HF=-164
 9.6412883\MP2=-1651.6082912\RMSD=5.861e-09\PG=C01 [X(C10H6O1S3)]\\@
 The archive entry for this job was punched.


 MEN HAVE BECOME THE TOOLS OF THEIR TOOLS... THOREAU   
 Job cpu time:       0 days  0 hours 48 minutes  3.6 seconds.
 Elapsed time:       0 days  0 hours  3 minutes  1.6 seconds.
 File lengths (MBytes):  RWF=     81 Int=      0 D2E=      0 Chk=     11 Scr=      1
 Normal termination of Gaussian 16 at Mon Nov  1 12:18:11 2021.
