 Entering Gaussian System, Link 0=g16
 Input=pgT2_TT_130.gjf
 Output=pgT2_TT_130.log
 Initial command:
 /apps/gaussian/g16-c01-avx/g16/l1.exe "/tmp/pbs.4779966[305].pbs/Gau-2340004.inp" -scrdir="/tmp/pbs.4779966[305].pbs/"
 Entering Link 1 = /apps/gaussian/g16-c01-avx/g16/l1.exe PID=   2340005.
  
 Copyright (c) 1988-2019, Gaussian, Inc.  All Rights Reserved.
  
 This is part of the Gaussian(R) 16 program.  It is based on
 the Gaussian(R) 09 system (copyright 2009, Gaussian, Inc.),
 the Gaussian(R) 03 system (copyright 2003, Gaussian, Inc.),
 the Gaussian(R) 98 system (copyright 1998, Gaussian, Inc.),
 the Gaussian(R) 94 system (copyright 1995, Gaussian, Inc.),
 the Gaussian 92(TM) system (copyright 1992, Gaussian, Inc.),
 the Gaussian 90(TM) system (copyright 1990, Gaussian, Inc.),
 the Gaussian 88(TM) system (copyright 1988, Gaussian, Inc.),
 the Gaussian 86(TM) system (copyright 1986, Carnegie Mellon
 University), and the Gaussian 82(TM) system (copyright 1983,
 Carnegie Mellon University). Gaussian is a federally registered
 trademark of Gaussian, Inc.
  
 This software contains proprietary and confidential information,
 including trade secrets, belonging to Gaussian, Inc.
  
 This software is provided under written license and may be
 used, copied, transmitted, or stored only in accord with that
 written license.
  
 The following legend is applicable only to US Government
 contracts under FAR:
  
                    RESTRICTED RIGHTS LEGEND
  
 Use, reproduction and disclosure by the US Government is
 subject to restrictions as set forth in subparagraphs (a)
 and (c) of the Commercial Computer Software - Restricted
 Rights clause in FAR 52.227-19.
  
 Gaussian, Inc.
 340 Quinnipiac St., Bldg. 40, Wallingford CT 06492
  
  
 ---------------------------------------------------------------
 Warning -- This program may not be used in any manner that
 competes with the business of Gaussian, Inc. or will provide
 assistance to any competitor of Gaussian, Inc.  The licensee
 of this program is prohibited from giving any competitor of
 Gaussian, Inc. access to this program.  By using this program,
 the user acknowledges that Gaussian, Inc. is engaged in the
 business of creating and licensing software in the field of
 computational chemistry and represents and warrants to the
 licensee that it is not a competitor of Gaussian, Inc. and that
 it will not use this program in any manner prohibited above.
 ---------------------------------------------------------------
  

 Cite this work as:
 Gaussian 16, Revision C.01,
 M. J. Frisch, G. W. Trucks, H. B. Schlegel, G. E. Scuseria, 
 M. A. Robb, J. R. Cheeseman, G. Scalmani, V. Barone, 
 G. A. Petersson, H. Nakatsuji, X. Li, M. Caricato, A. V. Marenich, 
 J. Bloino, B. G. Janesko, R. Gomperts, B. Mennucci, H. P. Hratchian, 
 J. V. Ortiz, A. F. Izmaylov, J. L. Sonnenberg, D. Williams-Young, 
 F. Ding, F. Lipparini, F. Egidi, J. Goings, B. Peng, A. Petrone, 
 T. Henderson, D. Ranasinghe, V. G. Zakrzewski, J. Gao, N. Rega, 
 G. Zheng, W. Liang, M. Hada, M. Ehara, K. Toyota, R. Fukuda, 
 J. Hasegawa, M. Ishida, T. Nakajima, Y. Honda, O. Kitao, H. Nakai, 
 T. Vreven, K. Throssell, J. A. Montgomery, Jr., J. E. Peralta, 
 F. Ogliaro, M. J. Bearpark, J. J. Heyd, E. N. Brothers, K. N. Kudin, 
 V. N. Staroverov, T. A. Keith, R. Kobayashi, J. Normand, 
 K. Raghavachari, A. P. Rendell, J. C. Burant, S. S. Iyengar, 
 J. Tomasi, M. Cossi, J. M. Millam, M. Klene, C. Adamo, R. Cammi, 
 J. W. Ochterski, R. L. Martin, K. Morokuma, O. Farkas, 
 J. B. Foresman, and D. J. Fox, Gaussian, Inc., Wallingford CT, 2019.
 
 ******************************************
 Gaussian 16:  ES64L-G16RevC.01  3-Jul-2019
                 1-Nov-2021 
 ******************************************
 %mem=100GB
 %nprocshared=16
 Will use up to   16 processors via shared memory.
 -----------------
 # mp2/aug-cc-pvdz
 -----------------
 1/38=1,172=1/1;
 2/12=2,17=6,18=5,40=1/2;
 3/5=16,7=10,11=9,25=1,30=1/1,2,3;
 4//1;
 5/5=2,38=5/2;
 8/10=1/1;
 9/16=-3/6;
 6/7=2,8=2,9=2,10=2/1;
 99/5=1,9=1/99;
 ---------------
 pgT2_TT_130.pdb
 ---------------
 Symbolic Z-matrix:
 Charge =  0 Multiplicity = 1
 C                     3.76      0.7      -0.24 
 C                     2.37      0.97     -0.45 
 C                     1.57      0.        0.04 
 C                     3.99     -0.47      0.39 
 S                     2.5      -1.27      0.77 
 H                     4.94     -0.9       0.66 
 C                     0.1      -0.03      0.01 
 S                    -0.76     -1.45     -0.56 
 C                    -2.29     -0.66     -0.31 
 C                    -2.11      0.6       0.18 
 C                    -0.74      0.97      0.37 
 H                    -0.4       1.91      0.77 
 S                    -3.64      1.39      0.44 
 C                    -4.49     -0.03     -0.12 
 C                    -3.66     -1.04     -0.48 
 H                    -5.56     -0.03     -0.15 
 H                    -4.       -1.99     -0.85 
 H                     1.99      1.84     -0.97 
 O                     4.76      1.52     -0.64 
 H                     4.42      2.27     -1.09 
 
                          Input orientation:                          
 ---------------------------------------------------------------------
 Center     Atomic      Atomic             Coordinates (Angstroms)
 Number     Number       Type             X           Y           Z
 ---------------------------------------------------------------------
      1          6           0        3.760000    0.700000   -0.240000
      2          6           0        2.370000    0.970000   -0.450000
      3          6           0        1.570000    0.000000    0.040000
      4          6           0        3.990000   -0.470000    0.390000
      5         16           0        2.500000   -1.270000    0.770000
      6          1           0        4.940000   -0.900000    0.660000
      7          6           0        0.100000   -0.030000    0.010000
      8         16           0       -0.760000   -1.450000   -0.560000
      9          6           0       -2.290000   -0.660000   -0.310000
     10          6           0       -2.110000    0.600000    0.180000
     11          6           0       -0.740000    0.970000    0.370000
     12          1           0       -0.400000    1.910000    0.770000
     13         16           0       -3.640000    1.390000    0.440000
     14          6           0       -4.490000   -0.030000   -0.120000
     15          6           0       -3.660000   -1.040000   -0.480000
     16          1           0       -5.560000   -0.030000   -0.150000
     17          1           0       -4.000000   -1.990000   -0.850000
     18          1           0        1.990000    1.840000   -0.970000
     19          8           0        4.760000    1.520000   -0.640000
     20          1           0        4.420000    2.270000   -1.090000
 ---------------------------------------------------------------------
                    Distance matrix (angstroms):
                    1          2          3          4          5
     1  C    0.000000
     2  C    1.431468   0.000000
     3  C    2.316139   1.349444   0.000000
     4  C    1.348592   2.324564   2.489940   0.000000
     5  S    2.547273   2.553997   1.735137   1.733349   0.000000
     6  H    2.182292   3.366586   3.542781   1.077172   2.470344
     7  C    3.740455   2.522796   1.470612   3.933205   2.806279
     8  S    5.015506   3.957954   2.809164   4.942206   3.525465
     9  C    6.201371   4.938836   3.931628   6.321748   4.947989
    10  C    5.885856   4.539185   3.731220   6.196693   5.009701
    11  C    4.549176   3.216287   2.527034   4.944381   3.959192
    12  H    4.448573   3.169369   2.839349   5.008083   4.303766
    13  S    7.463143   6.090041   5.407051   7.853598   6.699560
    14  C    8.283103   6.940353   6.062186   8.506709   7.154705
    15  C    7.625064   6.356249   5.357695   7.720382   6.289754
    16  H    9.348979   7.998431   7.132594   9.575369   8.206558
    17  H    8.235642   7.035517   5.981396   8.227278   6.737418
    18  H    2.228318   1.082451   2.140584   3.344503   3.599972
    19  O    1.353662   2.459817   3.598458   2.369367   3.857434
    20  H    1.903418   2.510398   3.814748   3.143708   4.435944
                    6          7          8          9         10
     6  H    0.000000
     7  C    4.960343   0.000000
     8  S    5.854989   1.755249   0.000000
     9  C    7.298726   2.492268   1.739971   0.000000
    10  C    7.223773   2.304322   2.563708   1.363855   0.000000
    11  C    5.986936   1.354696   2.592624   2.349851   1.431747
    12  H    6.035213   2.142709   3.631542   3.367996   2.233450
    13  S    8.883068   4.023543   4.166533   2.566613   1.741436
    14  C    9.502116   4.591841   4.015333   2.296301   2.480181
    15  C    8.676359   3.924003   2.929932   1.431852   2.351106
    16  H   10.567071   5.662261   5.022400   3.333977   3.522542
    17  H    9.131911   4.625062   3.297469   2.232622   3.367655
    18  H    4.343616   2.833620   4.307517   5.000400   4.435099
    19  O    2.752962   4.953847   6.268788   7.386731   6.979663
    20  H    3.658114   5.016214   6.399352   7.363247   6.858768
                   11         12         13         14         15
    11  C    0.000000
    12  H    1.076662   0.000000
    13  S    2.931092   3.298015   0.000000
    14  C    3.911854   4.613437   1.747141   0.000000
    15  C    3.645408   4.570842   2.598403   1.355950   0.000000
    16  H    4.950030   5.588882   2.459858   1.070420   2.176924
    17  H    4.569201   5.549270   3.635671   2.148162   1.074709
    18  H    3.163131   2.957127   5.821297   6.797779   6.360582
    19  O    5.618950   5.363376   8.470142   9.393370   8.802022
    20  H    5.517898   5.178957   8.250994   9.253054   8.752977
                   16         17         18         19         20
    16  H    0.000000
    17  H    2.601000   0.000000
    18  H    7.821240   7.110795   0.000000
    19  O   10.447248   9.439375   2.807882   0.000000
    20  H   10.284649   9.439364   2.470668   0.938403   0.000000
 Stoichiometry    C10H6OS3
 Framework group  C1[X(C10H6OS3)]
 Deg. of freedom    54
 Full point group                 C1      NOp   1
 Largest Abelian subgroup         C1      NOp   1
 Largest concise Abelian subgroup C1      NOp   1
                         Standard orientation:                         
 ---------------------------------------------------------------------
 Center     Atomic      Atomic             Coordinates (Angstroms)
 Number     Number       Type             X           Y           Z
 ---------------------------------------------------------------------
      1          6           0        3.759052    0.701681   -0.239918
      2          6           0        2.368908    0.970938   -0.449918
      3          6           0        1.569426    0.000511    0.040082
      4          6           0        3.989677   -0.468196    0.390082
      5         16           0        2.500105   -1.268992    0.770082
      6          1           0        4.939907   -0.897688    0.660082
      7          6           0        0.099442   -0.030275    0.010082
      8         16           0       -0.759799   -1.450734   -0.559918
      9          6           0       -2.290221   -0.661552   -0.309918
     10          6           0       -2.110894    0.598544    0.180082
     11          6           0       -0.741092    0.969276    0.370082
     12          1           0       -0.401594    1.909458    0.770082
     13         16           0       -3.641316    1.387727    0.440082
     14          6           0       -4.490557   -0.032727   -0.119918
     15          6           0       -3.660017   -1.042284   -0.479918
     16          1           0       -5.560557   -0.033299   -0.149918
     17          1           0       -3.999510   -1.992465   -0.849918
     18          1           0        1.988443    1.840735   -0.969918
     19          8           0        4.758614    1.522215   -0.639918
     20          1           0        4.418213    2.272033   -1.089918
 ---------------------------------------------------------------------
 Rotational constants (GHZ):           1.4657210           0.2361246           0.2130911
 Standard basis: Aug-CC-pVDZ (5D, 7F)
 There are   416 symmetry adapted cartesian basis functions of A   symmetry.
 There are   388 symmetry adapted basis functions of A   symmetry.
   388 basis functions,   782 primitive gaussians,   416 cartesian basis functions
    61 alpha electrons       61 beta electrons
       nuclear repulsion energy      1109.0857406280 Hartrees.
 NAtoms=   20 NActive=   20 NUniq=   20 SFac= 1.00D+00 NAtFMM=   60 NAOKFM=F Big=F
 Integral buffers will be    131072 words long.
 Raffenetti 1 integral format.
 Two-electron integral symmetry is turned on.
 One-electron integrals computed using PRISM.
 NBasis=   388 RedAO= T EigKep=  3.62D-06  NBF=   388
 NBsUse=   388 1.00D-06 EigRej= -1.00D+00 NBFU=   388
 ExpMin= 2.97D-02 ExpMax= 1.11D+05 ExpMxC= 1.07D+03 IAcc=3 IRadAn=         5 AccDes= 0.00D+00
 Harris functional with IExCor=  205 and IRadAn=       5 diagonalized for initial guess.
 HarFok:  IExCor=  205 AccDes= 0.00D+00 IRadAn=         5 IDoV= 1 UseB2=F ITyADJ=14
 ICtDFT=  3500011 ScaDFX=  1.000000  1.000000  1.000000  1.000000
 FoFCou: FMM=F IPFlag=           0 FMFlag=      100000 FMFlg1=           0
         NFxFlg=           0 DoJE=T BraDBF=F KetDBF=T FulRan=T
         wScrn=  0.000000 ICntrl=       500 IOpCl=  0 I1Cent=   200000004 NGrid=           0
         NMat0=    1 NMatS0=      1 NMatT0=    0 NMatD0=    1 NMtDS0=    0 NMtDT0=    0
 Petite list used in FoFCou.
 Requested convergence on RMS density matrix=1.00D-08 within 128 cycles.
 Requested convergence on MAX density matrix=1.00D-06.
 Requested convergence on             energy=1.00D-06.
 No special actions if energy rises.
 SCF Done:  E(RHF) =  -1649.64264149     A.U. after   17 cycles
            NFock= 17  Conv=0.72D-08     -V/T= 2.0000
 ExpMin= 2.97D-02 ExpMax= 1.11D+05 ExpMxC= 1.07D+03 IAcc=3 IRadAn=         5 AccDes= 0.00D+00
 HarFok:  IExCor=  205 AccDes= 0.00D+00 IRadAn=         5 IDoV=-2 UseB2=F ITyADJ=14
 ICtDFT= 12500011 ScaDFX=  1.000000  1.000000  1.000000  1.000000
 GSVD:  LWork=        -884 too small for GESVD, short by        3770 words or        3770 for optimal perf.
 Range of M.O.s used for correlation:    27   388
 NBasis=   388 NAE=    61 NBE=    61 NFC=    26 NFV=     0
 NROrb=    362 NOA=    35 NOB=    35 NVA=   327 NVB=   327

 **** Warning!!: The largest alpha MO coefficient is  0.76354631D+02

 Fully direct method using O(OVN) memory.
 JobTyp=1 Pass  1:  I=   1 to  35 NPSUse= 16 ParTrn=T ParDer=T DoDerP=F.
 Spin components of T(2) and E(2):
     alpha-alpha T2 =       0.1137459718D+00 E2=     -0.2739122578D+00
     alpha-beta  T2 =       0.5542867216D+00 E2=     -0.1420407034D+01
     beta-beta   T2 =       0.1137459718D+00 E2=     -0.2739122578D+00
 ANorm=    0.1334832823D+01
 E2 =    -0.1968231550D+01 EUMP2 =    -0.16516108730374D+04

 **********************************************************************

            Population analysis using the SCF Density.

 **********************************************************************

 Orbital symmetries:
       Occupied  (A) (A) (A) (A) (A) (A) (A) (A) (A) (A) (A) (A)
                 (A) (A) (A) (A) (A) (A) (A) (A) (A) (A) (A) (A)
                 (A) (A) (A) (A) (A) (A) (A) (A) (A) (A) (A) (A)
                 (A) (A) (A) (A) (A) (A) (A) (A) (A) (A) (A) (A)
                 (A) (A) (A) (A) (A) (A) (A) (A) (A) (A) (A) (A)
                 (A)
       Virtual   (A) (A) (A) (A) (A) (A) (A) (A) (A) (A) (A) (A)
                 (A) (A) (A) (A) (A) (A) (A) (A) (A) (A) (A) (A)
                 (A) (A) (A) (A) (A) (A) (A) (A) (A) (A) (A) (A)
                 (A) (A) (A) (A) (A) (A) (A) (A) (A) (A) (A) (A)
                 (A) (A) (A) (A) (A) (A) (A) (A) (A) (A) (A) (A)
                 (A) (A) (A) (A) (A) (A) (A) (A) (A) (A) (A) (A)
                 (A) (A) (A) (A) (A) (A) (A) (A) (A) (A) (A) (A)
                 (A) (A) (A) (A) (A) (A) (A) (A) (A) (A) (A) (A)
                 (A) (A) (A) (A) (A) (A) (A) (A) (A) (A) (A) (A)
                 (A) (A) (A) (A) (A) (A) (A) (A) (A) (A) (A) (A)
                 (A) (A) (A) (A) (A) (A) (A) (A) (A) (A) (A) (A)
                 (A) (A) (A) (A) (A) (A) (A) (A) (A) (A) (A) (A)
                 (A) (A) (A) (A) (A) (A) (A) (A) (A) (A) (A) (A)
                 (A) (A) (A) (A) (A) (A) (A) (A) (A) (A) (A) (A)
                 (A) (A) (A) (A) (A) (A) (A) (A) (A) (A) (A) (A)
                 (A) (A) (A) (A) (A) (A) (A) (A) (A) (A) (A) (A)
                 (A) (A) (A) (A) (A) (A) (A) (A) (A) (A) (A) (A)
                 (A) (A) (A) (A) (A) (A) (A) (A) (A) (A) (A) (A)
                 (A) (A) (A) (A) (A) (A) (A) (A) (A) (A) (A) (A)
                 (A) (A) (A) (A) (A) (A) (A) (A) (A) (A) (A) (A)
                 (A) (A) (A) (A) (A) (A) (A) (A) (A) (A) (A) (A)
                 (A) (A) (A) (A) (A) (A) (A) (A) (A) (A) (A) (A)
                 (A) (A) (A) (A) (A) (A) (A) (A) (A) (A) (A) (A)
                 (A) (A) (A) (A) (A) (A) (A) (A) (A) (A) (A) (A)
                 (A) (A) (A) (A) (A) (A) (A) (A) (A) (A) (A) (A)
                 (A) (A) (A) (A) (A) (A) (A) (A) (A) (A) (A) (A)
                 (A) (A) (A) (A) (A) (A) (A) (A) (A) (A) (A) (A)
                 (A) (A) (A)
 The electronic state is 1-A.
 Alpha  occ. eigenvalues --  -91.99505 -91.99458 -91.98925 -20.60681 -11.31356
 Alpha  occ. eigenvalues --  -11.29530 -11.29393 -11.28227 -11.27798 -11.27654
 Alpha  occ. eigenvalues --  -11.26376 -11.26212 -11.25677 -11.25420  -8.99670
 Alpha  occ. eigenvalues --   -8.99622  -8.99129  -6.67833  -6.67788  -6.67753
 Alpha  occ. eigenvalues --   -6.67710  -6.67543  -6.67505  -6.67297  -6.67208
 Alpha  occ. eigenvalues --   -6.67007  -1.42629  -1.22222  -1.18788  -1.13193
 Alpha  occ. eigenvalues --   -1.03195  -1.02625  -0.99163  -0.96125  -0.95021
 Alpha  occ. eigenvalues --   -0.84261  -0.78789  -0.77908  -0.74676  -0.72949
 Alpha  occ. eigenvalues --   -0.72189  -0.67691  -0.66231  -0.61185  -0.60662
 Alpha  occ. eigenvalues --   -0.58281  -0.57497  -0.56475  -0.55063  -0.54055
 Alpha  occ. eigenvalues --   -0.52746  -0.51131  -0.50022  -0.48452  -0.46862
 Alpha  occ. eigenvalues --   -0.46510  -0.39336  -0.35636  -0.33141  -0.32705
 Alpha  occ. eigenvalues --   -0.29379
 Alpha virt. eigenvalues --    0.02947   0.03378   0.04510   0.04768   0.04825
 Alpha virt. eigenvalues --    0.05917   0.07204   0.08229   0.08262   0.09233
 Alpha virt. eigenvalues --    0.09441   0.10286   0.10634   0.10892   0.11471
 Alpha virt. eigenvalues --    0.11951   0.12481   0.12795   0.13045   0.13422
 Alpha virt. eigenvalues --    0.13618   0.13804   0.13936   0.14662   0.15000
 Alpha virt. eigenvalues --    0.15409   0.15881   0.16208   0.16421   0.17282
 Alpha virt. eigenvalues --    0.17448   0.18217   0.18354   0.18523   0.19074
 Alpha virt. eigenvalues --    0.19341   0.19976   0.20074   0.21071   0.21109
 Alpha virt. eigenvalues --    0.21810   0.22469   0.22797   0.23011   0.23352
 Alpha virt. eigenvalues --    0.24081   0.24550   0.24693   0.24992   0.25924
 Alpha virt. eigenvalues --    0.26322   0.26906   0.27313   0.27508   0.28150
 Alpha virt. eigenvalues --    0.28539   0.28732   0.30218   0.30705   0.30967
 Alpha virt. eigenvalues --    0.31140   0.31599   0.31778   0.32558   0.32756
 Alpha virt. eigenvalues --    0.33881   0.34080   0.34784   0.35111   0.35266
 Alpha virt. eigenvalues --    0.36478   0.36540   0.37499   0.38807   0.38848
 Alpha virt. eigenvalues --    0.39444   0.40147   0.40997   0.41428   0.41718
 Alpha virt. eigenvalues --    0.42365   0.42645   0.43850   0.44546   0.44780
 Alpha virt. eigenvalues --    0.45569   0.46025   0.46108   0.47375   0.48177
 Alpha virt. eigenvalues --    0.48588   0.48997   0.49472   0.50711   0.51880
 Alpha virt. eigenvalues --    0.52467   0.53234   0.53996   0.54772   0.55083
 Alpha virt. eigenvalues --    0.56519   0.57044   0.58073   0.58857   0.59157
 Alpha virt. eigenvalues --    0.59701   0.60577   0.61687   0.62029   0.62522
 Alpha virt. eigenvalues --    0.62813   0.63910   0.64201   0.65153   0.65243
 Alpha virt. eigenvalues --    0.66289   0.66863   0.67490   0.67965   0.68139
 Alpha virt. eigenvalues --    0.68314   0.69264   0.69951   0.70439   0.71249
 Alpha virt. eigenvalues --    0.71416   0.71567   0.72598   0.72880   0.73164
 Alpha virt. eigenvalues --    0.73755   0.74164   0.75171   0.75450   0.76219
 Alpha virt. eigenvalues --    0.76437   0.77290   0.77758   0.78663   0.79690
 Alpha virt. eigenvalues --    0.80855   0.82388   0.82705   0.83552   0.83954
 Alpha virt. eigenvalues --    0.84310   0.85033   0.86184   0.86939   0.87716
 Alpha virt. eigenvalues --    0.88373   0.89456   0.89892   0.90832   0.91619
 Alpha virt. eigenvalues --    0.92054   0.93597   0.93969   0.94487   0.95003
 Alpha virt. eigenvalues --    0.95382   0.95617   0.96066   0.97099   0.97744
 Alpha virt. eigenvalues --    0.98795   1.00308   1.01717   1.01844   1.02899
 Alpha virt. eigenvalues --    1.03811   1.04152   1.05262   1.05756   1.07198
 Alpha virt. eigenvalues --    1.08353   1.09112   1.09725   1.11010   1.12070
 Alpha virt. eigenvalues --    1.13483   1.14566   1.16942   1.17105   1.18260
 Alpha virt. eigenvalues --    1.20033   1.21047   1.22047   1.22306   1.23185
 Alpha virt. eigenvalues --    1.23328   1.24215   1.25089   1.26412   1.26989
 Alpha virt. eigenvalues --    1.27705   1.28070   1.29414   1.29741   1.31681
 Alpha virt. eigenvalues --    1.32561   1.33433   1.34904   1.35732   1.36372
 Alpha virt. eigenvalues --    1.37448   1.38959   1.39584   1.40300   1.41079
 Alpha virt. eigenvalues --    1.43563   1.44454   1.45159   1.46137   1.49769
 Alpha virt. eigenvalues --    1.51086   1.52348   1.54982   1.56311   1.56493
 Alpha virt. eigenvalues --    1.57479   1.58036   1.59432   1.60595   1.60915
 Alpha virt. eigenvalues --    1.62982   1.64069   1.64556   1.65625   1.66619
 Alpha virt. eigenvalues --    1.67191   1.68299   1.69520   1.70911   1.71180
 Alpha virt. eigenvalues --    1.72704   1.73184   1.75456   1.76524   1.78466
 Alpha virt. eigenvalues --    1.79561   1.80268   1.81379   1.82317   1.83208
 Alpha virt. eigenvalues --    1.84446   1.85330   1.85935   1.88015   1.88696
 Alpha virt. eigenvalues --    1.91226   1.92930   1.95234   1.95913   1.97280
 Alpha virt. eigenvalues --    1.97825   1.98766   2.02480   2.03335   2.04223
 Alpha virt. eigenvalues --    2.04444   2.05795   2.07628   2.09346   2.10070
 Alpha virt. eigenvalues --    2.11395   2.13079   2.13850   2.14979   2.16371
 Alpha virt. eigenvalues --    2.17857   2.20009   2.20591   2.21730   2.23594
 Alpha virt. eigenvalues --    2.24032   2.24644   2.26618   2.29283   2.30675
 Alpha virt. eigenvalues --    2.31568   2.32411   2.33062   2.35641   2.36323
 Alpha virt. eigenvalues --    2.38507   2.39410   2.41453   2.42758   2.46139
 Alpha virt. eigenvalues --    2.47257   2.48740   2.50563   2.52179   2.54907
 Alpha virt. eigenvalues --    2.56264   2.57961   2.60166   2.61286   2.66612
 Alpha virt. eigenvalues --    2.72415   2.80231   2.83557   2.87725   2.89235
 Alpha virt. eigenvalues --    2.90500   2.95588   2.96941   3.00761   3.04687
 Alpha virt. eigenvalues --    3.11438   3.13456   3.24007   3.28749   3.34884
 Alpha virt. eigenvalues --    3.42481   3.52998   3.55109   3.61877   3.75353
 Alpha virt. eigenvalues --    3.76507   3.79136   3.85731   3.87506   4.20634
 Alpha virt. eigenvalues --    4.27458   4.44859
          Condensed to atoms (all electrons):
               1          2          3          4          5          6
     1  C    6.403099  -0.732737  -0.589059   0.301535  -0.226260   0.221971
     2  C   -0.732737  10.738909  -1.804666   0.070623  -0.848892   0.079184
     3  C   -0.589059  -1.804666  11.059522  -1.172010   0.238334   0.077853
     4  C    0.301535   0.070623  -1.172010   6.851537   0.287262  -0.130063
     5  S   -0.226260  -0.848892   0.238334   0.287262  16.195282  -0.144937
     6  H    0.221971   0.079184   0.077853  -0.130063  -0.144937   1.265810
     7  C    0.459107  -1.132205  -1.535363  -0.044895  -0.015975  -0.011873
     8  S   -0.020753  -0.149833  -0.369171  -0.001947   0.232788   0.002755
     9  C    0.057209  -0.094286  -0.345165  -0.018376   0.055102  -0.000122
    10  C   -0.056131   0.021746   0.645297   0.015908   0.018740   0.001466
    11  C   -0.038740   0.368620  -0.828986  -0.070439  -0.312730  -0.000826
    12  H    0.019787  -0.005618   0.057846  -0.000140   0.004843   0.000774
    13  S   -0.002335   0.021718  -0.094671  -0.000285  -0.000801  -0.000090
    14  C    0.000105  -0.017504   0.020191   0.000558   0.005496   0.000063
    15  C    0.005268  -0.027145  -0.362964  -0.007284   0.016527  -0.000407
    16  H    0.000011  -0.000129  -0.000891   0.000001   0.000137   0.000002
    17  H   -0.000134  -0.000297  -0.009548  -0.000210   0.001327  -0.000009
    18  H   -0.015455  -0.560787   0.454339  -0.026082   0.022953  -0.001423
    19  O   -0.236555  -0.068955   0.100682  -0.114699  -0.012769  -0.008791
    20  H   -0.035584  -0.061252  -0.035796   0.010398   0.005178  -0.006142
               7          8          9         10         11         12
     1  C    0.459107  -0.020753   0.057209  -0.056131  -0.038740   0.019787
     2  C   -1.132205  -0.149833  -0.094286   0.021746   0.368620  -0.005618
     3  C   -1.535363  -0.369171  -0.345165   0.645297  -0.828986   0.057846
     4  C   -0.044895  -0.001947  -0.018376   0.015908  -0.070439  -0.000140
     5  S   -0.015975   0.232788   0.055102   0.018740  -0.312730   0.004843
     6  H   -0.011873   0.002755  -0.000122   0.001466  -0.000826   0.000774
     7  C   11.936147   0.308561  -0.180828  -0.408361  -3.440847   0.440834
     8  S    0.308561  16.559256   0.381470  -0.566527  -0.629909   0.029260
     9  C   -0.180828   0.381470  10.938663  -0.825225  -1.208815  -0.072233
    10  C   -0.408361  -0.566527  -0.825225  12.534380  -3.487608   0.543822
    11  C   -3.440847  -0.629909  -1.208815  -3.487608  16.426090  -1.180354
    12  H    0.440834   0.029260  -0.072233   0.543822  -1.180354   1.672382
    13  S   -0.294488   0.114375  -0.024016  -0.418945   0.146147  -0.045499
    14  C    0.048305  -0.119952  -0.256824  -0.951643  -0.077033   0.013709
    15  C   -0.451383  -0.208038  -2.289167  -0.967899   0.187967  -0.024654
    16  H    0.005377   0.012795   0.105789  -0.071693   0.029959   0.001612
    17  H    0.094443   0.022786   0.552007   0.062079  -0.060921  -0.000282
    18  H   -0.082754  -0.006546  -0.005946   0.025533   0.056796  -0.021550
    19  O    0.006774   0.002884  -0.000285   0.001071   0.002065   0.001276
    20  H   -0.001037   0.000621   0.001027  -0.001791   0.001025   0.000154
              13         14         15         16         17         18
     1  C   -0.002335   0.000105   0.005268   0.000011  -0.000134  -0.015455
     2  C    0.021718  -0.017504  -0.027145  -0.000129  -0.000297  -0.560787
     3  C   -0.094671   0.020191  -0.362964  -0.000891  -0.009548   0.454339
     4  C   -0.000285   0.000558  -0.007284   0.000001  -0.000210  -0.026082
     5  S   -0.000801   0.005496   0.016527   0.000137   0.001327   0.022953
     6  H   -0.000090   0.000063  -0.000407   0.000002  -0.000009  -0.001423
     7  C   -0.294488   0.048305  -0.451383   0.005377   0.094443  -0.082754
     8  S    0.114375  -0.119952  -0.208038   0.012795   0.022786  -0.006546
     9  C   -0.024016  -0.256824  -2.289167   0.105789   0.552007  -0.005946
    10  C   -0.418945  -0.951643  -0.967899  -0.071693   0.062079   0.025533
    11  C    0.146147  -0.077033   0.187967   0.029959  -0.060921   0.056796
    12  H   -0.045499   0.013709  -0.024654   0.001612  -0.000282  -0.021550
    13  S   15.998898   0.195855  -0.039643  -0.162639  -0.002301   0.000747
    14  C    0.195855   6.880598   0.254358   0.171747  -0.122062  -0.000994
    15  C   -0.039643   0.254358   9.909572   0.052898  -0.577134  -0.002598
    16  H   -0.162639   0.171747   0.052898   1.317381  -0.070370   0.000039
    17  H   -0.002301  -0.122062  -0.577134  -0.070370   1.432270   0.000102
    18  H    0.000747  -0.000994  -0.002598   0.000039   0.000102   1.775820
    19  O    0.000062  -0.000004   0.000055   0.000000   0.000014  -0.062627
    20  H   -0.000050  -0.000012   0.000221  -0.000001   0.000006  -0.012834
              19         20
     1  C   -0.236555  -0.035584
     2  C   -0.068955  -0.061252
     3  C    0.100682  -0.035796
     4  C   -0.114699   0.010398
     5  S   -0.012769   0.005178
     6  H   -0.008791  -0.006142
     7  C    0.006774  -0.001037
     8  S    0.002884   0.000621
     9  C   -0.000285   0.001027
    10  C    0.001071  -0.001791
    11  C    0.002065   0.001025
    12  H    0.001276   0.000154
    13  S    0.000062  -0.000050
    14  C   -0.000004  -0.000012
    15  C    0.000055   0.000221
    16  H    0.000000  -0.000001
    17  H    0.000014   0.000006
    18  H   -0.062627  -0.012834
    19  O    8.881247   0.348580
    20  H    0.348580   0.660345
 Mulliken charges:
               1
     1  C    0.485653
     2  C    0.203507
     3  C    0.494227
     4  C    0.048611
     5  S    0.478396
     6  H   -0.345195
     7  C    0.300458
     8  S    0.405125
     9  C   -0.769979
    10  C   -0.114219
    11  C    0.118539
    12  H   -0.435967
    13  S    0.607960
    14  C   -0.044956
    15  C    0.531449
    16  H   -0.392027
    17  H   -0.321766
    18  H   -0.536734
    19  O   -0.840026
    20  H    0.126943
 Sum of Mulliken charges =  -0.00000
 Mulliken charges with hydrogens summed into heavy atoms:
               1
     1  C    0.485653
     2  C   -0.333227
     3  C    0.494227
     4  C   -0.296584
     5  S    0.478396
     7  C    0.300458
     8  S    0.405125
     9  C   -0.769979
    10  C   -0.114219
    11  C   -0.317428
    13  S    0.607960
    14  C   -0.436983
    15  C    0.209683
    19  O   -0.713083
 Electronic spatial extent (au):  <R**2>=           4765.7819
 Charge=              0.0000 electrons
 Dipole moment (field-independent basis, Debye):
    X=             -1.2467    Y=              1.4318    Z=             -0.9056  Tot=              2.1034
 Quadrupole moment (field-independent basis, Debye-Ang):
   XX=            -96.8082   YY=            -96.1070   ZZ=           -106.9714
   XY=              6.5520   XZ=              0.1650   YZ=             -1.8170
 Traceless Quadrupole moment (field-independent basis, Debye-Ang):
   XX=              3.1540   YY=              3.8552   ZZ=             -7.0092
   XY=              6.5520   XZ=              0.1650   YZ=             -1.8170
 Octapole moment (field-independent basis, Debye-Ang**2):
  XXX=            -76.9025  YYY=             22.8186  ZZZ=             -5.3353  XYY=             22.4748
  XXY=            -21.4052  XXZ=             -8.2233  XZZ=             16.2100  YZZ=              6.4909
  YYZ=            -10.0752  XYZ=            -22.9871
 Hexadecapole moment (field-independent basis, Debye-Ang**3):
 XXXX=          -5190.4083 YYYY=           -796.8488 ZZZZ=           -286.7739 XXXY=            -11.7906
 XXXZ=             61.0567 YYYX=            116.8924 YYYZ=            -18.6497 ZZZX=            -26.9549
 ZZZY=            -12.9393 XXYY=           -966.1859 XXZZ=           -988.0326 YYZZ=           -174.7644
 XXYZ=            -43.6847 YYXZ=            -27.9442 ZZXY=             30.5125
 N-N= 1.109085740628D+03 E-N=-6.125053298428D+03  KE= 1.649577951626D+03
 Unable to Open any file for archive entry.
 1\1\GINC-CX3-7-8\SP\RMP2-FC\Aug-CC-pVDZ\C10H6O1S3\NS5018\01-Nov-2021\0
 \\# mp2/aug-cc-pvdz\\pgT2_TT_130.pdb\\0,1\C,0,3.76,0.7,-0.24\C,0,2.37,
 0.97,-0.45\C,0,1.57,0.,0.04\C,0,3.99,-0.47,0.39\S,0,2.5,-1.27,0.77\H,0
 ,4.94,-0.9,0.66\C,0,0.1,-0.03,0.01\S,0,-0.76,-1.45,-0.56\C,0,-2.29,-0.
 66,-0.31\C,0,-2.11,0.6,0.18\C,0,-0.74,0.97,0.37\H,0,-0.4,1.91,0.77\S,0
 ,-3.64,1.39,0.44\C,0,-4.49,-0.03,-0.12\C,0,-3.66,-1.04,-0.48\H,0,-5.56
 ,-0.03,-0.15\H,0,-4.,-1.99,-0.85\H,0,1.99,1.84,-0.97\O,0,4.76,1.52,-0.
 64\H,0,4.42,2.27,-1.09\\Version=ES64L-G16RevC.01\State=1-A\HF=-1649.64
 26415\MP2=-1651.610873\RMSD=7.212e-09\PG=C01 [X(C10H6O1S3)]\\@
 The archive entry for this job was punched.


 THE 2ND LAW OF THERMODYNAMICS HAS THE SAME
 DEGREE OF TRUTH AS THE STATEMENT THAT IF YOU THROW
 A TUMBLERFULL OF WATER INTO THE SEA, YOU CANNOT GET
 THE SAME TUMBLERFULL OF WATER OUT AGAIN.
          - J.C. MAXWELL, LETTER TO LORD RAYLEIGH, DECEMBER 6,1870
 Job cpu time:       0 days  0 hours 49 minutes 22.1 seconds.
 Elapsed time:       0 days  0 hours  3 minutes  6.3 seconds.
 File lengths (MBytes):  RWF=     81 Int=      0 D2E=      0 Chk=     11 Scr=      1
 Normal termination of Gaussian 16 at Mon Nov  1 12:22:30 2021.
