 Entering Gaussian System, Link 0=g16
 Input=pBTTT_-50.gjf
 Output=pBTTT_-50.log
 Initial command:
 /apps/gaussian/g16-c01-avx/g16/l1.exe "/tmp/pbs.4762177[125].pbs/Gau-1037703.inp" -scrdir="/tmp/pbs.4762177[125].pbs/"
 Entering Link 1 = /apps/gaussian/g16-c01-avx/g16/l1.exe PID=   1037722.
  
 Copyright (c) 1988-2019, Gaussian, Inc.  All Rights Reserved.
  
 This is part of the Gaussian(R) 16 program.  It is based on
 the Gaussian(R) 09 system (copyright 2009, Gaussian, Inc.),
 the Gaussian(R) 03 system (copyright 2003, Gaussian, Inc.),
 the Gaussian(R) 98 system (copyright 1998, Gaussian, Inc.),
 the Gaussian(R) 94 system (copyright 1995, Gaussian, Inc.),
 the Gaussian 92(TM) system (copyright 1992, Gaussian, Inc.),
 the Gaussian 90(TM) system (copyright 1990, Gaussian, Inc.),
 the Gaussian 88(TM) system (copyright 1988, Gaussian, Inc.),
 the Gaussian 86(TM) system (copyright 1986, Carnegie Mellon
 University), and the Gaussian 82(TM) system (copyright 1983,
 Carnegie Mellon University). Gaussian is a federally registered
 trademark of Gaussian, Inc.
  
 This software contains proprietary and confidential information,
 including trade secrets, belonging to Gaussian, Inc.
  
 This software is provided under written license and may be
 used, copied, transmitted, or stored only in accord with that
 written license.
  
 The following legend is applicable only to US Government
 contracts under FAR:
  
                    RESTRICTED RIGHTS LEGEND
  
 Use, reproduction and disclosure by the US Government is
 subject to restrictions as set forth in subparagraphs (a)
 and (c) of the Commercial Computer Software - Restricted
 Rights clause in FAR 52.227-19.
  
 Gaussian, Inc.
 340 Quinnipiac St., Bldg. 40, Wallingford CT 06492
  
  
 ---------------------------------------------------------------
 Warning -- This program may not be used in any manner that
 competes with the business of Gaussian, Inc. or will provide
 assistance to any competitor of Gaussian, Inc.  The licensee
 of this program is prohibited from giving any competitor of
 Gaussian, Inc. access to this program.  By using this program,
 the user acknowledges that Gaussian, Inc. is engaged in the
 business of creating and licensing software in the field of
 computational chemistry and represents and warrants to the
 licensee that it is not a competitor of Gaussian, Inc. and that
 it will not use this program in any manner prohibited above.
 ---------------------------------------------------------------
  

 Cite this work as:
 Gaussian 16, Revision C.01,
 M. J. Frisch, G. W. Trucks, H. B. Schlegel, G. E. Scuseria, 
 M. A. Robb, J. R. Cheeseman, G. Scalmani, V. Barone, 
 G. A. Petersson, H. Nakatsuji, X. Li, M. Caricato, A. V. Marenich, 
 J. Bloino, B. G. Janesko, R. Gomperts, B. Mennucci, H. P. Hratchian, 
 J. V. Ortiz, A. F. Izmaylov, J. L. Sonnenberg, D. Williams-Young, 
 F. Ding, F. Lipparini, F. Egidi, J. Goings, B. Peng, A. Petrone, 
 T. Henderson, D. Ranasinghe, V. G. Zakrzewski, J. Gao, N. Rega, 
 G. Zheng, W. Liang, M. Hada, M. Ehara, K. Toyota, R. Fukuda, 
 J. Hasegawa, M. Ishida, T. Nakajima, Y. Honda, O. Kitao, H. Nakai, 
 T. Vreven, K. Throssell, J. A. Montgomery, Jr., J. E. Peralta, 
 F. Ogliaro, M. J. Bearpark, J. J. Heyd, E. N. Brothers, K. N. Kudin, 
 V. N. Staroverov, T. A. Keith, R. Kobayashi, J. Normand, 
 K. Raghavachari, A. P. Rendell, J. C. Burant, S. S. Iyengar, 
 J. Tomasi, M. Cossi, J. M. Millam, M. Klene, C. Adamo, R. Cammi, 
 J. W. Ochterski, R. L. Martin, K. Morokuma, O. Farkas, 
 J. B. Foresman, and D. J. Fox, Gaussian, Inc., Wallingford CT, 2019.
 
 ******************************************
 Gaussian 16:  ES64L-G16RevC.01  3-Jul-2019
                25-Oct-2021 
 ******************************************
 %mem=100GB
 %nprocshared=8
 Will use up to    8 processors via shared memory.
 ---------------------------------
 # opt=modredundant hf/aug-cc-pvdz
 ---------------------------------
 1/18=120,19=15,38=1/1,3;
 2/9=110,12=2,17=6,18=5,40=1/2;
 3/5=16,7=10,11=9,25=1,30=1,71=1/1,2,3;
 4//1;
 5/5=2,38=5/2;
 6/7=2,8=2,9=2,10=2,28=1/1;
 7//1,2,3,16;
 1/18=20,19=15/3(2);
 2/9=110/2;
 99//99;
 2/9=110/2;
 3/5=16,7=10,11=9,25=1,30=1,71=1/1,2,3;
 4/5=5,16=3,69=1/1;
 5/5=2,38=5/2;
 7//1,2,3,16;
 1/18=20,19=15/3(-5);
 2/9=110/2;
 6/7=2,8=2,9=2,10=2,19=2,28=1/1;
 99/9=1/99;
 -------------
 pBTTT_-50.pdb
 -------------
 Symbolic Z-matrix:
 Charge =  0 Multiplicity = 1
 C                    -4.25     -1.36     -0.21 
 C                    -2.93     -0.95     -0.61 
 C                    -1.97     -2.05     -0.62 
 C                    -2.66      0.47     -0.96 
 C                    -4.33     -2.76      0.1 
 H                    -5.1      -0.7      -0.14 
 S                    -2.8      -3.56     -0.11 
 H                    -5.23     -3.27      0.41 
 C                    -0.56     -2.13     -0.97 
 S                     0.074    -1.469    -2.508 
 C                     1.697    -1.943    -2.14 
 C                     1.804    -2.578    -0.851 
 C                     0.544    -2.674    -0.176 
 H                     0.452    -2.968     0.858 
 S                     3.382    -2.414    -0.155 
 C                     3.951    -1.51     -1.56 
 C                     2.913    -1.318    -2.546 
 H                     4.908    -1.006    -1.576 
 H                     2.98     -0.57     -3.332 
 H                    -3.55      1.09     -0.83 
 H                    -2.35      0.56     -2. 
 H                    -1.88      0.89     -0.31 
 
 The following ModRedundant input section has been read:
 D       2       3       9      10 F                                           
 

 GradGradGradGradGradGradGradGradGradGradGradGradGradGradGradGradGradGrad
 Berny optimization.
 Initialization pass.
                           ----------------------------
                           !    Initial Parameters    !
                           ! (Angstroms and Degrees)  !
 --------------------------                            --------------------------
 ! Name  Definition              Value          Derivative Info.                !
 --------------------------------------------------------------------------------
 ! R1    R(1,2)                  1.4389         estimate D2E/DX2                !
 ! R2    R(1,5)                  1.4361         estimate D2E/DX2                !
 ! R3    R(1,6)                  1.0784         estimate D2E/DX2                !
 ! R4    R(2,3)                  1.46           estimate D2E/DX2                !
 ! R5    R(2,4)                  1.4872         estimate D2E/DX2                !
 ! R6    R(3,7)                  1.797          estimate D2E/DX2                !
 ! R7    R(3,9)                  1.455          estimate D2E/DX2                !
 ! R8    R(4,20)                 1.0924         estimate D2E/DX2                !
 ! R9    R(4,21)                 1.0889         estimate D2E/DX2                !
 ! R10   R(4,22)                 1.0988         estimate D2E/DX2                !
 ! R11   R(5,7)                  1.7393         estimate D2E/DX2                !
 ! R12   R(5,8)                  1.0799         estimate D2E/DX2                !
 ! R13   R(9,10)                 1.7901         estimate D2E/DX2                !
 ! R14   R(9,13)                 1.4646         estimate D2E/DX2                !
 ! R15   R(10,11)                1.7304         estimate D2E/DX2                !
 ! R16   R(11,12)                1.4409         estimate D2E/DX2                !
 ! R17   R(11,17)                1.4262         estimate D2E/DX2                !
 ! R18   R(12,13)                1.4326         estimate D2E/DX2                !
 ! R19   R(12,15)                1.7325         estimate D2E/DX2                !
 ! R20   R(13,14)                1.0789         estimate D2E/DX2                !
 ! R21   R(15,16)                1.7649         estimate D2E/DX2                !
 ! R22   R(16,17)                1.4445         estimate D2E/DX2                !
 ! R23   R(16,18)                1.0817         estimate D2E/DX2                !
 ! R24   R(17,19)                1.0871         estimate D2E/DX2                !
 ! A1    A(2,1,5)              112.8843         estimate D2E/DX2                !
 ! A2    A(2,1,6)              124.5209         estimate D2E/DX2                !
 ! A3    A(5,1,6)              122.5942         estimate D2E/DX2                !
 ! A4    A(1,2,3)              112.9799         estimate D2E/DX2                !
 ! A5    A(1,2,4)              120.2665         estimate D2E/DX2                !
 ! A6    A(3,2,4)              126.7536         estimate D2E/DX2                !
 ! A7    A(2,3,7)              109.1138         estimate D2E/DX2                !
 ! A8    A(2,3,9)              132.8639         estimate D2E/DX2                !
 ! A9    A(7,3,9)              118.0132         estimate D2E/DX2                !
 ! A10   A(2,4,20)             111.468          estimate D2E/DX2                !
 ! A11   A(2,4,21)             110.8154         estimate D2E/DX2                !
 ! A12   A(2,4,22)             110.7706         estimate D2E/DX2                !
 ! A13   A(20,4,21)            107.3779         estimate D2E/DX2                !
 ! A14   A(20,4,22)            106.918          estimate D2E/DX2                !
 ! A15   A(21,4,22)            109.3476         estimate D2E/DX2                !
 ! A16   A(1,5,7)              111.9209         estimate D2E/DX2                !
 ! A17   A(1,5,8)              124.6643         estimate D2E/DX2                !
 ! A18   A(7,5,8)              123.4062         estimate D2E/DX2                !
 ! A19   A(3,7,5)               93.0997         estimate D2E/DX2                !
 ! A20   A(3,9,10)             121.9785         estimate D2E/DX2                !
 ! A21   A(3,9,13)             128.3508         estimate D2E/DX2                !
 ! A22   A(10,9,13)            109.6309         estimate D2E/DX2                !
 ! A23   A(9,10,11)             92.7699         estimate D2E/DX2                !
 ! A24   A(10,11,12)           112.3721         estimate D2E/DX2                !
 ! A25   A(10,11,17)           128.2511         estimate D2E/DX2                !
 ! A26   A(12,11,17)           112.6106         estimate D2E/DX2                !
 ! A27   A(11,12,13)           112.6878         estimate D2E/DX2                !
 ! A28   A(11,12,15)           112.6631         estimate D2E/DX2                !
 ! A29   A(13,12,15)           128.1809         estimate D2E/DX2                !
 ! A30   A(9,13,12)            112.4965         estimate D2E/DX2                !
 ! A31   A(9,13,14)            123.8127         estimate D2E/DX2                !
 ! A32   A(12,13,14)           123.0111         estimate D2E/DX2                !
 ! A33   A(12,15,16)            91.2791         estimate D2E/DX2                !
 ! A34   A(15,16,17)           112.3216         estimate D2E/DX2                !
 ! A35   A(15,16,18)           122.3874         estimate D2E/DX2                !
 ! A36   A(17,16,18)           124.3134         estimate D2E/DX2                !
 ! A37   A(11,17,16)           111.1074         estimate D2E/DX2                !
 ! A38   A(11,17,19)           124.0485         estimate D2E/DX2                !
 ! A39   A(16,17,19)           122.7318         estimate D2E/DX2                !
 ! D1    D(5,1,2,3)              0.3915         estimate D2E/DX2                !
 ! D2    D(5,1,2,4)           -179.5973         estimate D2E/DX2                !
 ! D3    D(6,1,2,3)           -179.8811         estimate D2E/DX2                !
 ! D4    D(6,1,2,4)              0.13           estimate D2E/DX2                !
 ! D5    D(2,1,5,7)             -0.3845         estimate D2E/DX2                !
 ! D6    D(2,1,5,8)           -179.3471         estimate D2E/DX2                !
 ! D7    D(6,1,5,7)            179.8822         estimate D2E/DX2                !
 ! D8    D(6,1,5,8)              0.9196         estimate D2E/DX2                !
 ! D9    D(1,2,3,7)             -0.2224         estimate D2E/DX2                !
 ! D10   D(1,2,3,9)            178.6265         estimate D2E/DX2                !
 ! D11   D(4,2,3,7)            179.7656         estimate D2E/DX2                !
 ! D12   D(4,2,3,9)             -1.3855         estimate D2E/DX2                !
 ! D13   D(1,2,4,20)             2.1641         estimate D2E/DX2                !
 ! D14   D(1,2,4,21)          -117.3645         estimate D2E/DX2                !
 ! D15   D(1,2,4,22)           121.0843         estimate D2E/DX2                !
 ! D16   D(3,2,4,20)          -177.8231         estimate D2E/DX2                !
 ! D17   D(3,2,4,21)            62.6483         estimate D2E/DX2                !
 ! D18   D(3,2,4,22)           -58.9029         estimate D2E/DX2                !
 ! D19   D(2,3,7,5)              0.0033         estimate D2E/DX2                !
 ! D20   D(9,3,7,5)           -179.041          estimate D2E/DX2                !
 ! D21   D(2,3,9,10)           -49.9928         Frozen                          !
 ! D22   D(2,3,9,13)           127.4653         estimate D2E/DX2                !
 ! D23   D(7,3,9,10)           128.7751         estimate D2E/DX2                !
 ! D24   D(7,3,9,13)           -53.7667         estimate D2E/DX2                !
 ! D25   D(1,5,7,3)              0.2153         estimate D2E/DX2                !
 ! D26   D(8,5,7,3)            179.1932         estimate D2E/DX2                !
 ! D27   D(3,9,10,11)          179.7885         estimate D2E/DX2                !
 ! D28   D(13,9,10,11)           1.9047         estimate D2E/DX2                !
 ! D29   D(3,9,13,12)         -179.8349         estimate D2E/DX2                !
 ! D30   D(3,9,13,14)           -9.0515         estimate D2E/DX2                !
 ! D31   D(10,9,13,12)          -2.1239         estimate D2E/DX2                !
 ! D32   D(10,9,13,14)         168.6595         estimate D2E/DX2                !
 ! D33   D(9,10,11,12)          -1.2365         estimate D2E/DX2                !
 ! D34   D(9,10,11,17)        -149.8768         estimate D2E/DX2                !
 ! D35   D(10,11,12,13)          0.2075         estimate D2E/DX2                !
 ! D36   D(10,11,12,15)       -154.0313         estimate D2E/DX2                !
 ! D37   D(17,11,12,13)        153.9308         estimate D2E/DX2                !
 ! D38   D(17,11,12,15)         -0.308          estimate D2E/DX2                !
 ! D39   D(10,11,17,16)        149.7148         estimate D2E/DX2                !
 ! D40   D(10,11,17,19)        -14.0991         estimate D2E/DX2                !
 ! D41   D(12,11,17,16)          1.1348         estimate D2E/DX2                !
 ! D42   D(12,11,17,19)       -162.6791         estimate D2E/DX2                !
 ! D43   D(11,12,13,9)           1.2718         estimate D2E/DX2                !
 ! D44   D(11,12,13,14)       -169.597          estimate D2E/DX2                !
 ! D45   D(15,12,13,9)         150.5935         estimate D2E/DX2                !
 ! D46   D(15,12,13,14)        -20.2754         estimate D2E/DX2                !
 ! D47   D(11,12,15,16)         -0.4626         estimate D2E/DX2                !
 ! D48   D(13,12,15,16)       -149.7904         estimate D2E/DX2                !
 ! D49   D(12,15,16,17)          1.1146         estimate D2E/DX2                !
 ! D50   D(12,15,16,18)        170.2468         estimate D2E/DX2                !
 ! D51   D(15,16,17,11)         -1.4786         estimate D2E/DX2                !
 ! D52   D(15,16,17,19)        162.5852         estimate D2E/DX2                !
 ! D53   D(18,16,17,11)       -170.3646         estimate D2E/DX2                !
 ! D54   D(18,16,17,19)         -6.3008         estimate D2E/DX2                !
 --------------------------------------------------------------------------------
 Trust Radius=3.00D-01 FncErr=1.00D-07 GrdErr=1.00D-07 EigMax=2.50D+02 EigMin=1.00D-04
 Number of steps in this run=    127 maximum allowed number of steps=    132.
 GradGradGradGradGradGradGradGradGradGradGradGradGradGradGradGradGradGrad

                          Input orientation:                          
 ---------------------------------------------------------------------
 Center     Atomic      Atomic             Coordinates (Angstroms)
 Number     Number       Type             X           Y           Z
 ---------------------------------------------------------------------
      1          6           0       -4.250000   -1.360000   -0.210000
      2          6           0       -2.930000   -0.950000   -0.610000
      3          6           0       -1.970000   -2.050000   -0.620000
      4          6           0       -2.660000    0.470000   -0.960000
      5          6           0       -4.330000   -2.760000    0.100000
      6          1           0       -5.100000   -0.700000   -0.140000
      7         16           0       -2.800000   -3.560000   -0.110000
      8          1           0       -5.230000   -3.270000    0.410000
      9          6           0       -0.560000   -2.130000   -0.970000
     10         16           0        0.074000   -1.469000   -2.508000
     11          6           0        1.697000   -1.943000   -2.140000
     12          6           0        1.804000   -2.578000   -0.851000
     13          6           0        0.544000   -2.674000   -0.176000
     14          1           0        0.452000   -2.968000    0.858000
     15         16           0        3.382000   -2.414000   -0.155000
     16          6           0        3.951000   -1.510000   -1.560000
     17          6           0        2.913000   -1.318000   -2.546000
     18          1           0        4.908000   -1.006000   -1.576000
     19          1           0        2.980000   -0.570000   -3.332000
     20          1           0       -3.550000    1.090000   -0.830000
     21          1           0       -2.350000    0.560000   -2.000000
     22          1           0       -1.880000    0.890000   -0.310000
 ---------------------------------------------------------------------
                    Distance matrix (angstroms):
                    1          2          3          4          5
     1  C    0.000000
     2  C    1.438923   0.000000
     3  C    2.417147   1.460034   0.000000
     4  C    2.537617   1.487212   2.634787   0.000000
     5  C    1.436141   2.395871   2.567509   3.787532   0.000000
     6  H    1.078425   2.234346   3.442354   2.827525   2.212261
     7  S    2.636759   2.660639   1.796970   4.121044   1.739253
     8  H    2.234480   3.422397   3.630000   4.740190   1.079907
     9  C    3.845335   2.671872   1.454991   3.342170   3.969219
    10  S    4.897924   3.591070   2.842541   3.691989   5.278595
    11  C    6.279458   4.973538   3.970987   5.118439   6.481498
    12  C    6.208488   5.011908   3.817751   5.406430   6.209950
    13  C    4.970934   3.902462   2.628062   4.556864   4.882566
    14  H    5.082823   4.203007   2.982162   4.980915   4.846169
    15  S    7.704633   6.495511   5.384480   6.743237   7.723968
    16  C    8.312725   6.968806   6.019422   6.927173   8.537743
    17  C    7.534403   6.166374   5.299905   6.063882   7.844854
    18  H    9.266080   7.897502   7.022162   7.735157   9.551237
    19  H    7.914789   6.517805   5.835053   6.206254   8.367247
    20  H    2.622384   2.143455   3.521378   1.092428   4.036806
    21  H    3.240447   2.132745   2.976726   1.088944   4.399182
    22  H    3.269465   2.139650   2.957668   1.098772   4.415099
                    6          7          8          9         10
     6  H    0.000000
     7  S    3.670218   0.000000
     8  H    2.631406   2.501879   0.000000
     9  C    4.831708   2.793224   5.001290   0.000000
    10  S    5.741869   4.287489   6.315912   1.790062   0.000000
    11  C    7.193348   5.192167   7.499784   2.549101   1.730384
    12  C    7.190106   4.765524   7.179564   2.409017   2.639778
    13  C    5.979357   3.460013   5.834183   1.464646   2.666674
    14  H    6.079846   3.444269   5.707629   2.251216   3.704030
    15  S    8.653459   6.287485   8.672860   4.035374   4.168033
    16  C    9.197451   7.202847   9.553495   4.591473   3.991430
    17  C    8.389215   6.602956   8.880129   3.899340   2.843267
    18  H   10.115127   8.251384  10.575866   5.615126   4.944750
    19  H    8.688623   7.261528   9.417891   4.532576   3.151510
    20  H    2.466313   4.764808   4.834211   4.396374   4.743157
    21  H    3.551014   4.555107   5.363898   3.391327   3.201668
    22  H    3.595191   4.548505   5.389480   3.361309   3.770173
                   11         12         13         14         15
    11  C    0.000000
    12  C    1.440901   0.000000
    13  C    2.391875   1.432634   0.000000
    14  H    3.404211   2.213749   1.078914   0.000000
    15  S    2.645995   1.732454   2.849962   3.149283   0.000000
    16  C    2.367362   2.500583   3.857201   4.496164   1.764937
    17  C    1.426225   2.385478   3.614941   4.512897   2.671714
    18  H    3.392136   3.554100   4.877163   5.443320   2.516025
    19  H    2.225327   3.401529   4.507909   5.449522   3.695304
    20  H    6.200500   6.489991   5.599665   5.944133   7.796555
    21  H    4.760548   5.331319   4.707544   5.335368   6.715990
    22  H    4.916271   5.088375   4.312288   4.656889   6.215230
                   16         17         18         19         20
    16  C    0.000000
    17  C    1.444474   0.000000
    18  H    1.081721   2.240149   0.000000
    19  H    2.228548   1.087101   2.644015   0.000000
    20  H    7.972321   7.107284   8.745713   7.187246   0.000000
    21  H    6.646887   5.614639   7.437116   5.608924   1.757783
    22  H    6.428302   5.731301   7.160623   5.906241   1.760483
                   21         22
    21  H    0.000000
    22  H    1.784909   0.000000
 Stoichiometry    C11H8S3
 Framework group  C1[X(C11H8S3)]
 Deg. of freedom    60
 Full point group                 C1      NOp   1
 Largest Abelian subgroup         C1      NOp   1
 Largest concise Abelian subgroup C1      NOp   1
                         Standard orientation:                         
 ---------------------------------------------------------------------
 Center     Atomic      Atomic             Coordinates (Angstroms)
 Number     Number       Type             X           Y           Z
 ---------------------------------------------------------------------
      1          6           0       -4.029826    0.424389    0.479177
      2          6           0       -2.662136    0.866395    0.546648
      3          6           0       -1.720373   -0.109507    0.005910
      4          6           0       -2.331846    2.196445    1.124295
      5          6           0       -4.166150   -0.883851   -0.097385
      6          1           0       -4.875280    0.998262    0.823962
      7         16           0       -2.628765   -1.553318   -0.559188
      8          1           0       -5.106071   -1.393855   -0.247864
      9          6           0       -0.275126   -0.102534   -0.162057
     10         16           0        0.582143    1.262115   -0.941251
     11          6           0        2.129963    0.515819   -0.737473
     12          6           0        2.042292   -0.752418   -0.059178
     13          6           0        0.696505   -1.103382    0.284511
     14          1           0        0.452093   -1.929450    0.934074
     15         16           0        3.503173   -1.165418    0.775479
     16          6           0        4.278805    0.325928    0.237628
     17          6           0        3.397480    1.145459   -0.561208
     18          1           0        5.232160    0.656419    0.627514
     19          1           0        3.584843    2.199644   -0.749302
     20          1           0       -3.225967    2.706943    1.489452
     21          1           0       -1.872641    2.840239    0.375656
     22          1           0       -1.651496    2.091269    1.980660
 ---------------------------------------------------------------------
 Rotational constants (GHZ):           1.1927762           0.2673791           0.2390779
 Standard basis: Aug-CC-pVDZ (5D, 7F)
 There are   434 symmetry adapted cartesian basis functions of A   symmetry.
 There are   406 symmetry adapted basis functions of A   symmetry.
   406 basis functions,   804 primitive gaussians,   434 cartesian basis functions
    61 alpha electrons       61 beta electrons
       nuclear repulsion energy      1105.1004343932 Hartrees.
 NAtoms=   22 NActive=   22 NUniq=   22 SFac= 1.00D+00 NAtFMM=   60 NAOKFM=F Big=F
 Integral buffers will be    131072 words long.
 Raffenetti 1 integral format.
 Two-electron integral symmetry is turned on.
 One-electron integrals computed using PRISM.
 NBasis=   406 RedAO= T EigKep=  5.17D-06  NBF=   406
 NBsUse=   406 1.00D-06 EigRej= -1.00D+00 NBFU=   406
 ExpMin= 2.97D-02 ExpMax= 1.11D+05 ExpMxC= 1.07D+03 IAcc=3 IRadAn=         5 AccDes= 0.00D+00
 Harris functional with IExCor=  205 and IRadAn=       5 diagonalized for initial guess.
 HarFok:  IExCor=  205 AccDes= 0.00D+00 IRadAn=         5 IDoV= 1 UseB2=F ITyADJ=14
 ICtDFT=  3500011 ScaDFX=  1.000000  1.000000  1.000000  1.000000
 FoFCou: FMM=F IPFlag=           0 FMFlag=      100000 FMFlg1=           0
         NFxFlg=           0 DoJE=T BraDBF=F KetDBF=T FulRan=T
         wScrn=  0.000000 ICntrl=       500 IOpCl=  0 I1Cent=   200000004 NGrid=           0
         NMat0=    1 NMatS0=      1 NMatT0=    0 NMatD0=    1 NMtDS0=    0 NMtDT0=    0
 Petite list used in FoFCou.
 Requested convergence on RMS density matrix=1.00D-08 within 128 cycles.
 Requested convergence on MAX density matrix=1.00D-06.
 Requested convergence on             energy=1.00D-06.
 No special actions if energy rises.
 SCF Done:  E(RHF) =  -1613.75294100     A.U. after   17 cycles
            NFock= 17  Conv=0.81D-08     -V/T= 2.0010

 **********************************************************************

            Population analysis using the SCF Density.

 **********************************************************************

 Orbital symmetries:
       Occupied  (A) (A) (A) (A) (A) (A) (A) (A) (A) (A) (A) (A)
                 (A) (A) (A) (A) (A) (A) (A) (A) (A) (A) (A) (A)
                 (A) (A) (A) (A) (A) (A) (A) (A) (A) (A) (A) (A)
                 (A) (A) (A) (A) (A) (A) (A) (A) (A) (A) (A) (A)
                 (A) (A) (A) (A) (A) (A) (A) (A) (A) (A) (A) (A)
                 (A)
       Virtual   (A) (A) (A) (A) (A) (A) (A) (A) (A) (A) (A) (A)
                 (A) (A) (A) (A) (A) (A) (A) (A) (A) (A) (A) (A)
                 (A) (A) (A) (A) (A) (A) (A) (A) (A) (A) (A) (A)
                 (A) (A) (A) (A) (A) (A) (A) (A) (A) (A) (A) (A)
                 (A) (A) (A) (A) (A) (A) (A) (A) (A) (A) (A) (A)
                 (A) (A) (A) (A) (A) (A) (A) (A) (A) (A) (A) (A)
                 (A) (A) (A) (A) (A) (A) (A) (A) (A) (A) (A) (A)
                 (A) (A) (A) (A) (A) (A) (A) (A) (A) (A) (A) (A)
                 (A) (A) (A) (A) (A) (A) (A) (A) (A) (A) (A) (A)
                 (A) (A) (A) (A) (A) (A) (A) (A) (A) (A) (A) (A)
                 (A) (A) (A) (A) (A) (A) (A) (A) (A) (A) (A) (A)
                 (A) (A) (A) (A) (A) (A) (A) (A) (A) (A) (A) (A)
                 (A) (A) (A) (A) (A) (A) (A) (A) (A) (A) (A) (A)
                 (A) (A) (A) (A) (A) (A) (A) (A) (A) (A) (A) (A)
                 (A) (A) (A) (A) (A) (A) (A) (A) (A) (A) (A) (A)
                 (A) (A) (A) (A) (A) (A) (A) (A) (A) (A) (A) (A)
                 (A) (A) (A) (A) (A) (A) (A) (A) (A) (A) (A) (A)
                 (A) (A) (A) (A) (A) (A) (A) (A) (A) (A) (A) (A)
                 (A) (A) (A) (A) (A) (A) (A) (A) (A) (A) (A) (A)
                 (A) (A) (A) (A) (A) (A) (A) (A) (A) (A) (A) (A)
                 (A) (A) (A) (A) (A) (A) (A) (A) (A) (A) (A) (A)
                 (A) (A) (A) (A) (A) (A) (A) (A) (A) (A) (A) (A)
                 (A) (A) (A) (A) (A) (A) (A) (A) (A) (A) (A) (A)
                 (A) (A) (A) (A) (A) (A) (A) (A) (A) (A) (A) (A)
                 (A) (A) (A) (A) (A) (A) (A) (A) (A) (A) (A) (A)
                 (A) (A) (A) (A) (A) (A) (A) (A) (A) (A) (A) (A)
                 (A) (A) (A) (A) (A) (A) (A) (A) (A) (A) (A) (A)
                 (A) (A) (A) (A) (A) (A) (A) (A) (A) (A) (A) (A)
                 (A) (A) (A) (A) (A) (A) (A) (A) (A)
 The electronic state is 1-A.
 Alpha  occ. eigenvalues --  -92.00035 -91.99687 -91.99676 -11.30738 -11.29326
 Alpha  occ. eigenvalues --  -11.29289 -11.28802 -11.28588 -11.28466 -11.27505
 Alpha  occ. eigenvalues --  -11.27468 -11.27224 -11.25695 -11.23986  -9.00094
 Alpha  occ. eigenvalues --   -8.99731  -8.99641  -6.68260  -6.68171  -6.67982
 Alpha  occ. eigenvalues --   -6.67897  -6.67801  -6.67795  -6.67697  -6.67613
 Alpha  occ. eigenvalues --   -6.67538  -1.19749  -1.16095  -1.10334  -1.03820
 Alpha  occ. eigenvalues --   -1.03125  -1.00547  -0.94497  -0.93587  -0.90813
 Alpha  occ. eigenvalues --   -0.82034  -0.77424  -0.76229  -0.71418  -0.69778
 Alpha  occ. eigenvalues --   -0.66337  -0.65780  -0.60354  -0.58977  -0.58511
 Alpha  occ. eigenvalues --   -0.56392  -0.55450  -0.54359  -0.53823  -0.52444
 Alpha  occ. eigenvalues --   -0.51472  -0.50740  -0.49283  -0.47223  -0.46393
 Alpha  occ. eigenvalues --   -0.45017  -0.38981  -0.34247  -0.33041  -0.31697
 Alpha  occ. eigenvalues --   -0.26718
 Alpha virt. eigenvalues --    0.03400   0.03543   0.04130   0.04510   0.04799
 Alpha virt. eigenvalues --    0.05091   0.05925   0.06283   0.07393   0.08335
 Alpha virt. eigenvalues --    0.08925   0.09380   0.09955   0.10040   0.10608
 Alpha virt. eigenvalues --    0.11303   0.11750   0.12105   0.12344   0.12514
 Alpha virt. eigenvalues --    0.13125   0.13406   0.13757   0.14097   0.14451
 Alpha virt. eigenvalues --    0.14744   0.14891   0.15238   0.15861   0.16246
 Alpha virt. eigenvalues --    0.16445   0.17170   0.17587   0.17776   0.17972
 Alpha virt. eigenvalues --    0.18387   0.18525   0.19196   0.19559   0.20011
 Alpha virt. eigenvalues --    0.20126   0.20686   0.21351   0.21578   0.21674
 Alpha virt. eigenvalues --    0.21840   0.22329   0.22958   0.23268   0.23758
 Alpha virt. eigenvalues --    0.24364   0.24915   0.25500   0.25634   0.26184
 Alpha virt. eigenvalues --    0.26568   0.27043   0.27615   0.28093   0.29048
 Alpha virt. eigenvalues --    0.29689   0.29757   0.30446   0.30720   0.30955
 Alpha virt. eigenvalues --    0.31454   0.31709   0.32923   0.33285   0.33644
 Alpha virt. eigenvalues --    0.34054   0.34769   0.35149   0.35850   0.36907
 Alpha virt. eigenvalues --    0.37319   0.37566   0.38188   0.38479   0.38833
 Alpha virt. eigenvalues --    0.39968   0.40431   0.41138   0.41694   0.41857
 Alpha virt. eigenvalues --    0.42715   0.42984   0.44466   0.44954   0.45029
 Alpha virt. eigenvalues --    0.45503   0.45847   0.46156   0.46668   0.47552
 Alpha virt. eigenvalues --    0.47737   0.48564   0.49078   0.49545   0.50461
 Alpha virt. eigenvalues --    0.50863   0.51630   0.52282   0.52854   0.53805
 Alpha virt. eigenvalues --    0.54566   0.54932   0.56123   0.56638   0.57337
 Alpha virt. eigenvalues --    0.57886   0.58306   0.58732   0.58984   0.59709
 Alpha virt. eigenvalues --    0.60413   0.61188   0.61989   0.62422   0.63566
 Alpha virt. eigenvalues --    0.63688   0.63900   0.64762   0.65209   0.66420
 Alpha virt. eigenvalues --    0.66522   0.67016   0.67204   0.68115   0.68296
 Alpha virt. eigenvalues --    0.68681   0.68866   0.69683   0.70263   0.70645
 Alpha virt. eigenvalues --    0.71112   0.71366   0.72021   0.72318   0.72779
 Alpha virt. eigenvalues --    0.73576   0.74294   0.74739   0.75105   0.75965
 Alpha virt. eigenvalues --    0.76095   0.77023   0.77783   0.78381   0.78840
 Alpha virt. eigenvalues --    0.79918   0.80043   0.80676   0.81377   0.81807
 Alpha virt. eigenvalues --    0.82844   0.83036   0.83706   0.85206   0.86082
 Alpha virt. eigenvalues --    0.86690   0.87212   0.88026   0.88858   0.89327
 Alpha virt. eigenvalues --    0.90029   0.90529   0.91419   0.92237   0.93027
 Alpha virt. eigenvalues --    0.93328   0.94978   0.95285   0.95648   0.96552
 Alpha virt. eigenvalues --    0.97647   0.97763   0.99051   0.99299   0.99910
 Alpha virt. eigenvalues --    1.00331   1.00926   1.02084   1.02862   1.04987
 Alpha virt. eigenvalues --    1.05368   1.05750   1.06610   1.08861   1.08972
 Alpha virt. eigenvalues --    1.09212   1.09611   1.10931   1.12155   1.13241
 Alpha virt. eigenvalues --    1.15389   1.16768   1.17260   1.18078   1.19109
 Alpha virt. eigenvalues --    1.19692   1.20913   1.22132   1.23045   1.23412
 Alpha virt. eigenvalues --    1.25650   1.25698   1.26418   1.27640   1.28024
 Alpha virt. eigenvalues --    1.28898   1.29320   1.29533   1.30187   1.31671
 Alpha virt. eigenvalues --    1.32236   1.32948   1.34264   1.35479   1.35780
 Alpha virt. eigenvalues --    1.37823   1.38217   1.41403   1.41840   1.42895
 Alpha virt. eigenvalues --    1.44138   1.45631   1.46425   1.47684   1.49110
 Alpha virt. eigenvalues --    1.51647   1.52611   1.54136   1.54914   1.57623
 Alpha virt. eigenvalues --    1.57889   1.58593   1.59559   1.62278   1.62484
 Alpha virt. eigenvalues --    1.63265   1.64521   1.65632   1.66858   1.67368
 Alpha virt. eigenvalues --    1.68000   1.69353   1.69684   1.70877   1.71443
 Alpha virt. eigenvalues --    1.72180   1.73677   1.74993   1.76362   1.77641
 Alpha virt. eigenvalues --    1.78278   1.79743   1.79870   1.80936   1.82548
 Alpha virt. eigenvalues --    1.83163   1.83617   1.84597   1.86242   1.87944
 Alpha virt. eigenvalues --    1.89242   1.90505   1.91747   1.93035   1.94766
 Alpha virt. eigenvalues --    1.95881   1.97098   1.97751   1.98566   1.99638
 Alpha virt. eigenvalues --    2.00764   2.01537   2.03628   2.06423   2.06858
 Alpha virt. eigenvalues --    2.07613   2.08621   2.10227   2.10828   2.12408
 Alpha virt. eigenvalues --    2.14245   2.14534   2.15940   2.17636   2.18124
 Alpha virt. eigenvalues --    2.20053   2.20878   2.22287   2.22990   2.23750
 Alpha virt. eigenvalues --    2.25046   2.25417   2.28042   2.28974   2.30370
 Alpha virt. eigenvalues --    2.31365   2.33128   2.34942   2.36215   2.36912
 Alpha virt. eigenvalues --    2.38516   2.40511   2.42030   2.44311   2.44973
 Alpha virt. eigenvalues --    2.46428   2.48422   2.49783   2.51949   2.53893
 Alpha virt. eigenvalues --    2.55234   2.57137   2.57798   2.60425   2.63848
 Alpha virt. eigenvalues --    2.70545   2.72900   2.73721   2.75086   2.81118
 Alpha virt. eigenvalues --    2.81589   2.84461   2.84725   2.87937   2.89804
 Alpha virt. eigenvalues --    2.93668   2.95173   3.00670   3.02605   3.06258
 Alpha virt. eigenvalues --    3.14415   3.19406   3.22346   3.26813   3.30273
 Alpha virt. eigenvalues --    3.39682   3.60062   3.75023   4.11697   4.18740
          Condensed to atoms (all electrons):
               1          2          3          4          5          6
     1  C    9.386628  -1.711462  -0.450571  -1.137919   0.174512  -0.436865
     2  C   -1.711462   9.768994  -2.102236   0.363382   0.180780   0.321298
     3  C   -0.450571  -2.102236  11.808066  -0.638848  -0.966546   0.037276
     4  C   -1.137919   0.363382  -0.638848   6.018390   0.106579   0.101014
     5  C    0.174512   0.180780  -0.966546   0.106579   6.169017  -0.094324
     6  H   -0.436865   0.321298   0.037276   0.101014  -0.094324   1.712506
     7  S   -0.526765   0.031108  -0.072646   0.115582   0.297973  -0.015308
     8  H   -0.009418   0.086676  -0.007557   0.021265   0.225733  -0.078929
     9  C    0.106756  -0.119788  -1.998133   0.122226   0.211362  -0.009110
    10  S   -0.026384   0.171039  -0.252994   0.092086   0.005876   0.002022
    11  C    0.012157   0.034092  -0.076798   0.017764   0.015180   0.001364
    12  C   -0.039542  -0.090964   0.198197   0.043722  -0.018786  -0.001744
    13  C    0.059877  -0.414851   0.093281  -0.208661  -0.074769   0.000245
    14  H   -0.004303   0.054587  -0.036253   0.011723   0.002948  -0.000442
    15  S   -0.000520  -0.001187  -0.002058  -0.002370  -0.000230   0.000054
    16  C   -0.001792  -0.007303   0.036151   0.000874   0.000053  -0.000071
    17  C    0.001840   0.025734  -0.190385  -0.014039   0.000212   0.000031
    18  H   -0.000187  -0.000717   0.002236   0.000172   0.000018  -0.000010
    19  H    0.001003   0.002424  -0.008781  -0.001140  -0.000109   0.000063
    20  H    0.065477   0.029647   0.118895  -0.086746   0.002979  -0.026049
    21  H    0.022662   0.005743  -0.032862   0.326212  -0.001430   0.000175
    22  H   -0.003169   0.044648  -0.123033   0.356219   0.003466   0.002504
               7          8          9         10         11         12
     1  C   -0.526765  -0.009418   0.106756  -0.026384   0.012157  -0.039542
     2  C    0.031108   0.086676  -0.119788   0.171039   0.034092  -0.090964
     3  C   -0.072646  -0.007557  -1.998133  -0.252994  -0.076798   0.198197
     4  C    0.115582   0.021265   0.122226   0.092086   0.017764   0.043722
     5  C    0.297973   0.225733   0.211362   0.005876   0.015180  -0.018786
     6  H   -0.015308  -0.078929  -0.009110   0.002022   0.001364  -0.001744
     7  S   15.916392  -0.149952  -0.231496  -0.065665  -0.010259   0.059419
     8  H   -0.149952   1.240889   0.005957  -0.000554   0.000006   0.000791
     9  C   -0.231496   0.005957  10.170645   0.299519   0.013847  -0.548657
    10  S   -0.065665  -0.000554   0.299519  16.042162   0.053421  -0.228504
    11  C   -0.010259   0.000006   0.013847   0.053421   7.347431   0.192922
    12  C    0.059419   0.000791  -0.548657  -0.228504   0.192922   8.616310
    13  C    0.186903   0.001676  -2.094128  -0.497855  -0.375691  -1.685192
    14  H    0.016061   0.000441   0.268438   0.040685  -0.064560   0.199505
    15  S    0.002465  -0.000046  -0.108516  -0.009242   0.000440   0.053101
    16  C    0.000854   0.000011   0.107691  -0.063388   0.100694  -0.309173
    17  C    0.004584  -0.000027  -0.257113  -0.007813  -1.012003   0.163567
    18  H    0.000216   0.000003  -0.000288  -0.001318   0.014432  -0.012744
    19  H   -0.000246  -0.000017   0.042297  -0.026609   0.195790  -0.014850
    20  H   -0.005834   0.001666  -0.009505  -0.008867  -0.004254   0.000452
    21  H    0.009210   0.000666  -0.001163  -0.002095  -0.004480   0.001368
    22  H    0.002520   0.000890   0.033684   0.005008   0.006821   0.000831
              13         14         15         16         17         18
     1  C    0.059877  -0.004303  -0.000520  -0.001792   0.001840  -0.000187
     2  C   -0.414851   0.054587  -0.001187  -0.007303   0.025734  -0.000717
     3  C    0.093281  -0.036253  -0.002058   0.036151  -0.190385   0.002236
     4  C   -0.208661   0.011723  -0.002370   0.000874  -0.014039   0.000172
     5  C   -0.074769   0.002948  -0.000230   0.000053   0.000212   0.000018
     6  H    0.000245  -0.000442   0.000054  -0.000071   0.000031  -0.000010
     7  S    0.186903   0.016061   0.002465   0.000854   0.004584   0.000216
     8  H    0.001676   0.000441  -0.000046   0.000011  -0.000027   0.000003
     9  C   -2.094128   0.268438  -0.108516   0.107691  -0.257113  -0.000288
    10  S   -0.497855   0.040685  -0.009242  -0.063388  -0.007813  -0.001318
    11  C   -0.375691  -0.064560   0.000440   0.100694  -1.012003   0.014432
    12  C   -1.685192   0.199505   0.053101  -0.309173   0.163567  -0.012744
    13  C   11.039459  -0.573040  -0.037274  -0.200508   0.430555   0.024183
    14  H   -0.573040   1.613053  -0.064104  -0.004263  -0.002188   0.001039
    15  S   -0.037274  -0.064104  15.704220   0.200298  -0.268682  -0.124396
    16  C   -0.200508  -0.004263   0.200298   5.812384   0.183919   0.240512
    17  C    0.430555  -0.002188  -0.268682   0.183919   6.559753   0.013028
    18  H    0.024183   0.001039  -0.124396   0.240512   0.013028   1.240674
    19  H   -0.016100  -0.000077   0.006132  -0.068645  -0.112089  -0.058292
    20  H    0.015862   0.000733  -0.000267   0.000072  -0.000117   0.000011
    21  H   -0.018318   0.000415  -0.000164  -0.000325   0.001424  -0.000008
    22  H   -0.012167   0.000494   0.001025   0.001035  -0.000518   0.000057
              19         20         21         22
     1  C    0.001003   0.065477   0.022662  -0.003169
     2  C    0.002424   0.029647   0.005743   0.044648
     3  C   -0.008781   0.118895  -0.032862  -0.123033
     4  C   -0.001140  -0.086746   0.326212   0.356219
     5  C   -0.000109   0.002979  -0.001430   0.003466
     6  H    0.000063  -0.026049   0.000175   0.002504
     7  S   -0.000246  -0.005834   0.009210   0.002520
     8  H   -0.000017   0.001666   0.000666   0.000890
     9  C    0.042297  -0.009505  -0.001163   0.033684
    10  S   -0.026609  -0.008867  -0.002095   0.005008
    11  C    0.195790  -0.004254  -0.004480   0.006821
    12  C   -0.014850   0.000452   0.001368   0.000831
    13  C   -0.016100   0.015862  -0.018318  -0.012167
    14  H   -0.000077   0.000733   0.000415   0.000494
    15  S    0.006132  -0.000267  -0.000164   0.001025
    16  C   -0.068645   0.000072  -0.000325   0.001035
    17  C   -0.112089  -0.000117   0.001424  -0.000518
    18  H   -0.058292   0.000011  -0.000008   0.000057
    19  H    1.382065   0.000062   0.000126  -0.000237
    20  H    0.000062   1.363226  -0.112815  -0.108320
    21  H    0.000126  -0.112815   0.836064  -0.121129
    22  H   -0.000237  -0.108320  -0.121129   0.780159
 Mulliken charges:
               1
     1  C    0.517983
     2  C   -0.671642
     3  C    0.665600
     4  C    0.392512
     5  C   -0.240494
     6  H   -0.515701
     7  S    0.434884
     8  H   -0.340171
     9  C   -0.004523
    10  S    0.479470
    11  C   -0.458314
    12  C   -0.580030
    13  C    0.356512
    14  H   -0.460891
    15  S    0.651321
    16  C   -0.029080
    17  C    0.480326
    18  H   -0.338620
    19  H   -0.322770
    20  H   -0.236307
    21  H    0.090724
    22  H    0.129212
 Sum of Mulliken charges =  -0.00000
 Mulliken charges with hydrogens summed into heavy atoms:
               1
     1  C    0.002282
     2  C   -0.671642
     3  C    0.665600
     4  C    0.376141
     5  C   -0.580665
     7  S    0.434884
     9  C   -0.004523
    10  S    0.479470
    11  C   -0.458314
    12  C   -0.580030
    13  C   -0.104379
    15  S    0.651321
    16  C   -0.367700
    17  C    0.157556
 Electronic spatial extent (au):  <R**2>=           4439.2194
 Charge=             -0.0000 electrons
 Dipole moment (field-independent basis, Debye):
    X=             -0.7858    Y=              1.5780    Z=              1.6154  Tot=              2.3910
 Quadrupole moment (field-independent basis, Debye-Ang):
   XX=            -89.1698   YY=           -100.3019   ZZ=           -110.0059
   XY=              3.2474   XZ=              0.7470   YZ=             -0.1270
 Traceless Quadrupole moment (field-independent basis, Debye-Ang):
   XX=             10.6560   YY=             -0.4760   ZZ=            -10.1801
   XY=              3.2474   XZ=              0.7470   YZ=             -0.1270
 Octapole moment (field-independent basis, Debye-Ang**2):
  XXX=            -28.0509  YYY=              9.3062  ZZZ=              6.6487  XYY=             -4.8928
  XXY=             23.2530  XXZ=             23.0157  XZZ=              0.5971  YZZ=              2.3627
  YYZ=              2.7257  XYZ=            -14.1194
 Hexadecapole moment (field-independent basis, Debye-Ang**3):
 XXXX=          -4334.1275 YYYY=           -984.0948 ZZZZ=           -422.7731 XXXY=            141.0177
 XXXZ=             88.3201 YYYX=             17.1234 YYYZ=            -10.3819 ZZZX=             11.4828
 ZZZY=              3.2816 XXYY=           -932.6137 XXZZ=           -942.8464 YYZZ=           -231.3934
 XXYZ=             32.1665 YYXZ=             -6.3092 ZZXY=            -10.4911
 N-N= 1.105100434393D+03 E-N=-6.028657300728D+03  KE= 1.612218506094D+03
 Calling FoFJK, ICntrl=      2127 FMM=F ISym2X=0 I1Cent= 0 IOpClX= 0 NMat=1 NMatS=1 NMatT=0.
 ***** Axes restored to original set *****
 -------------------------------------------------------------------
 Center     Atomic                   Forces (Hartrees/Bohr)
 Number     Number              X              Y              Z
 -------------------------------------------------------------------
      1        6           0.018141877   -0.076250275    0.011832377
      2        6           0.027780806   -0.063147693    0.003909663
      3        6          -0.069267282    0.025417581    0.011647710
      4        6           0.010341853    0.014125304    0.000015384
      5        6           0.013944152    0.063846013   -0.017215971
      6        1           0.001190398    0.000509226   -0.000268190
      7       16          -0.006424258    0.032098541   -0.005326858
      8        1           0.004657760   -0.002924284    0.000627347
      9        6           0.075447428   -0.016164777    0.032113730
     10       16          -0.008942448   -0.018112170    0.013250668
     11        6           0.013437917   -0.007147904    0.052805554
     12        6          -0.027911546    0.033690305   -0.036226022
     13        6          -0.053112599    0.029298770   -0.048665068
     14        1          -0.005809267   -0.004145609   -0.002558447
     15       16           0.008377084    0.002919925   -0.022967889
     16        6          -0.060869445    0.012284573   -0.045507433
     17        6           0.052282209   -0.002613069    0.058325695
     18        1           0.000410438   -0.009039709    0.000501608
     19        1           0.004536720   -0.011432387   -0.000893548
     20        1           0.000901339   -0.004200368    0.000123311
     21        1           0.002514275    0.002693177    0.000838600
     22        1          -0.001627410   -0.001705168   -0.006362220
 -------------------------------------------------------------------
 Cartesian Forces:  Max     0.076250275 RMS     0.029012020

 GradGradGradGradGradGradGradGradGradGradGradGradGradGradGradGradGradGrad
 Berny optimization.
 FormGI is forming the generalized inverse of G from B-inverse, IUseBI=4.
 Internal  Forces:  Max     0.087622844 RMS     0.016989438
 Search for a local minimum.
 Step number   1 out of a maximum of  127
 All quantities printed in internal units (Hartrees-Bohrs-Radians)
 Mixed Optimization -- RFO/linear search
 Second derivative matrix not updated -- first step.
 ITU=  0
     Eigenvalues ---    0.00935   0.00982   0.01055   0.01214   0.01241
     Eigenvalues ---    0.01278   0.01300   0.01425   0.01457   0.01492
     Eigenvalues ---    0.01498   0.01592   0.01595   0.01773   0.02199
     Eigenvalues ---    0.02653   0.07307   0.07353   0.15074   0.15685
     Eigenvalues ---    0.15738   0.15997   0.16000   0.16000   0.16000
     Eigenvalues ---    0.16000   0.17990   0.22443   0.22545   0.23320
     Eigenvalues ---    0.23977   0.24718   0.24978   0.24995   0.25000
     Eigenvalues ---    0.26147   0.26568   0.28405   0.30920   0.31308
     Eigenvalues ---    0.31542   0.33757   0.33818   0.34533   0.34810
     Eigenvalues ---    0.34935   0.35150   0.35787   0.35877   0.36006
     Eigenvalues ---    0.36126   0.36185   0.36324   0.37598   0.38326
     Eigenvalues ---    0.38438   0.39458   0.39694   0.406081000.00000
     Eigenvalues --- 1000.000001000.000001000.000001000.000001000.00000
     Eigenvalues --- 1000.000001000.000001000.000001000.000001000.00000
     Eigenvalues --- 1000.000001000.000001000.000001000.000001000.00000
     Eigenvalues --- 1000.000001000.000001000.000001000.000001000.00000
     Eigenvalues --- 1000.000001000.000001000.000001000.000001000.00000
     Eigenvalues --- 1000.000001000.000001000.000001000.000001000.00000
     Eigenvalues --- 1000.000001000.000001000.000001000.000001000.00000
     Eigenvalues --- 1000.000001000.000001000.000001000.000001000.00000
     Eigenvalues --- 1000.000001000.000001000.000001000.000001000.00000
     Eigenvalues --- 1000.000001000.000001000.000001000.000001000.00000
     Eigenvalues --- 1000.000001000.000001000.000001000.000001000.00000
     Eigenvalues --- 1000.000001000.00000
 RFO step:  Lambda=-8.14885985D-02 EMin= 9.35106172D-03
 Linear search not attempted -- first point.
 Maximum step size (   0.300) exceeded in Quadratic search.
    -- Step size scaled by   0.721
 Iteration  1 RMS(Cart)=  0.05968977 RMS(Int)=  0.00111790
 Iteration  2 RMS(Cart)=  0.00172572 RMS(Int)=  0.00035562
 Iteration  3 RMS(Cart)=  0.00000156 RMS(Int)=  0.00035562
 Iteration  4 RMS(Cart)=  0.00000000 RMS(Int)=  0.00035562
 Iteration  1 RMS(Cart)=  0.00000059 RMS(Int)=  0.00000025
 Variable       Old X    -DE/DX   Delta X   Delta X   Delta X     New X
                                 (Linear)    (Quad)   (Total)
    R1        2.71917  -0.01312   0.00000  -0.02161  -0.02156   2.69761
    R2        2.71391  -0.07083   0.00000  -0.10691  -0.10696   2.60695
    R3        2.03793  -0.00064   0.00000  -0.00105  -0.00105   2.03688
    R4        2.75906  -0.08024   0.00000  -0.12875  -0.12865   2.63041
    R5        2.81042   0.01389   0.00000   0.02391   0.02391   2.83434
    R6        3.39578  -0.02921   0.00000  -0.05883  -0.05881   3.33697
    R7        2.74954  -0.00265   0.00000  -0.00419  -0.00419   2.74535
    R8        2.06439  -0.00310   0.00000  -0.00525  -0.00525   2.05914
    R9        2.05781   0.00014   0.00000   0.00023   0.00023   2.05804
   R10        2.07638  -0.00557   0.00000  -0.00958  -0.00958   2.06680
   R11        3.28671  -0.02421   0.00000  -0.04271  -0.04280   3.24391
   R12        2.04073  -0.00232   0.00000  -0.00379  -0.00379   2.03694
   R13        3.38273  -0.01915   0.00000  -0.03609  -0.03645   3.34628
   R14        2.76778  -0.08762   0.00000  -0.14188  -0.14205   2.62573
   R15        3.26995  -0.00468   0.00000  -0.00721  -0.00718   3.26277
   R16        2.72291  -0.05489   0.00000  -0.08623  -0.08555   2.63736
   R17        2.69517   0.00243   0.00000   0.00136   0.00172   2.69689
   R18        2.70729  -0.00837   0.00000  -0.01470  -0.01447   2.69282
   R19        3.27386  -0.00294   0.00000  -0.00368  -0.00379   3.27008
   R20        2.03885  -0.00083   0.00000  -0.00135  -0.00135   2.03751
   R21        3.33525  -0.01788   0.00000  -0.03224  -0.03264   3.30261
   R22        2.72966  -0.08023   0.00000  -0.12330  -0.12336   2.60630
   R23        2.04416  -0.00386   0.00000  -0.00633  -0.00633   2.03783
   R24        2.05432  -0.00694   0.00000  -0.01156  -0.01156   2.04276
    A1        1.97020   0.00818   0.00000   0.01460   0.01460   1.98480
    A2        2.17330  -0.00526   0.00000  -0.01080  -0.01081   2.16249
    A3        2.13967  -0.00292   0.00000  -0.00380  -0.00380   2.13587
    A4        1.97187  -0.00262   0.00000  -0.00927  -0.00913   1.96274
    A5        2.09905   0.01204   0.00000   0.02799   0.02791   2.12696
    A6        2.21227  -0.00942   0.00000  -0.01871  -0.01879   2.19348
    A7        1.90440   0.00661   0.00000   0.01567   0.01579   1.92018
    A8        2.31891  -0.01198   0.00000  -0.02673  -0.02679   2.29212
    A9        2.05972   0.00538   0.00000   0.01105   0.01100   2.07072
   A10        1.94548  -0.00474   0.00000  -0.01351  -0.01348   1.93201
   A11        1.93409   0.00414   0.00000   0.01194   0.01195   1.94605
   A12        1.93331   0.00215   0.00000   0.00619   0.00619   1.93951
   A13        1.87410   0.00062   0.00000   0.00230   0.00234   1.87644
   A14        1.86607   0.00195   0.00000   0.00665   0.00668   1.87275
   A15        1.90848  -0.00432   0.00000  -0.01414  -0.01415   1.89432
   A16        1.95339  -0.00374   0.00000  -0.00941  -0.00955   1.94384
   A17        2.17580   0.00688   0.00000   0.01968   0.01975   2.19556
   A18        2.15384  -0.00314   0.00000  -0.01025  -0.01018   2.14367
   A19        1.62490  -0.00843   0.00000  -0.01159  -0.01174   1.61316
   A20        2.12893  -0.00119   0.00000  -0.00238  -0.00244   2.12648
   A21        2.24014  -0.00577   0.00000  -0.01236  -0.01243   2.22772
   A22        1.91342   0.00707   0.00000   0.01544   0.01540   1.92882
   A23        1.61914  -0.00675   0.00000  -0.01077  -0.01062   1.60851
   A24        1.96126  -0.01230   0.00000  -0.02268  -0.02341   1.93786
   A25        2.23840   0.00970   0.00000   0.03544   0.03426   2.27266
   A26        1.96543   0.00699   0.00000   0.01474   0.01491   1.98034
   A27        1.96677   0.00877   0.00000   0.01733   0.01747   1.98424
   A28        1.96634  -0.01432   0.00000  -0.02683  -0.02728   1.93906
   A29        2.23718   0.00953   0.00000   0.03368   0.03255   2.26973
   A30        1.96343   0.00327   0.00000   0.00100   0.00141   1.96484
   A31        2.16094  -0.00609   0.00000  -0.01242  -0.01288   2.14805
   A32        2.14695   0.00352   0.00000   0.01645   0.01599   2.16293
   A33        1.59312   0.00052   0.00000   0.00374   0.00379   1.59691
   A34        1.96038   0.00038   0.00000  -0.00031  -0.00048   1.95990
   A35        2.13606  -0.00368   0.00000  -0.00784  -0.00842   2.12764
   A36        2.16968   0.00457   0.00000   0.01733   0.01684   2.18652
   A37        1.93919   0.00642   0.00000   0.00865   0.00904   1.94823
   A38        2.16505  -0.00011   0.00000   0.00975   0.00873   2.17378
   A39        2.14207  -0.00404   0.00000  -0.00253  -0.00358   2.13850
    D1        0.00683  -0.00023   0.00000  -0.00288  -0.00287   0.00396
    D2       -3.13456   0.00035   0.00000   0.00169   0.00176  -3.13280
    D3       -3.13952  -0.00051   0.00000  -0.00451  -0.00453   3.13914
    D4        0.00227   0.00008   0.00000   0.00007   0.00011   0.00238
    D5       -0.00671  -0.00027   0.00000  -0.00237  -0.00237  -0.00908
    D6       -3.13020  -0.00055   0.00000  -0.00395  -0.00401  -3.13420
    D7        3.13954   0.00001   0.00000  -0.00076  -0.00072   3.13881
    D8        0.01605  -0.00027   0.00000  -0.00234  -0.00236   0.01369
    D9       -0.00388   0.00069   0.00000   0.00671   0.00671   0.00283
   D10        3.11762   0.00123   0.00000   0.00679   0.00676   3.12438
   D11        3.13750   0.00007   0.00000   0.00179   0.00187   3.13937
   D12       -0.02418   0.00060   0.00000   0.00187   0.00192  -0.02226
   D13        0.03777  -0.00020   0.00000  -0.00116  -0.00117   0.03660
   D14       -2.04840  -0.00062   0.00000  -0.00312  -0.00310  -2.05150
   D15        2.11332   0.00058   0.00000   0.00249   0.00246   2.11578
   D16       -3.10360   0.00047   0.00000   0.00410   0.00410  -3.09950
   D17        1.09342   0.00005   0.00000   0.00213   0.00217   1.09558
   D18       -1.02805   0.00125   0.00000   0.00774   0.00773  -1.02032
   D19        0.00006  -0.00067   0.00000  -0.00676  -0.00679  -0.00674
   D20       -3.12486  -0.00088   0.00000  -0.00631  -0.00633  -3.13118
   D21       -0.87254  -0.00125   0.00000   0.00000   0.00000  -0.87254
   D22        2.22469   0.00238   0.00000   0.02279   0.02281   2.24750
   D23        2.24755  -0.00068   0.00000   0.00007   0.00005   2.24760
   D24       -0.93841   0.00295   0.00000   0.02286   0.02286  -0.91555
   D25        0.00376   0.00057   0.00000   0.00534   0.00525   0.00901
   D26        3.12751   0.00097   0.00000   0.00726   0.00719   3.13470
   D27        3.13790   0.00128   0.00000   0.00912   0.00922  -3.13606
   D28        0.03324  -0.00148   0.00000  -0.00928  -0.00949   0.02375
   D29       -3.13871  -0.00256   0.00000  -0.01562  -0.01542   3.12905
   D30       -0.15798   0.00254   0.00000   0.02001   0.01994  -0.13804
   D31       -0.03707   0.00058   0.00000   0.00462   0.00498  -0.03209
   D32        2.94366   0.00568   0.00000   0.04025   0.04034   2.98401
   D33       -0.02158   0.00251   0.00000   0.01267   0.01251  -0.00907
   D34       -2.61584  -0.00786   0.00000  -0.04752  -0.04779  -2.66363
   D35        0.00362  -0.00214   0.00000  -0.01146  -0.01128  -0.00766
   D36       -2.68835  -0.01223   0.00000  -0.06565  -0.06431  -2.75266
   D37        2.68660   0.00860   0.00000   0.04807   0.04713   2.73373
   D38       -0.00538  -0.00149   0.00000  -0.00613  -0.00590  -0.01127
   D39        2.61302   0.00677   0.00000   0.05559   0.05661   2.66963
   D40       -0.24607  -0.00115   0.00000  -0.00322  -0.00273  -0.24881
   D41        0.01981   0.00126   0.00000   0.00471   0.00457   0.02438
   D42       -2.83929  -0.00666   0.00000  -0.05410  -0.05477  -2.89406
   D43        0.02220   0.00108   0.00000   0.00424   0.00410   0.02629
   D44       -2.96003  -0.00295   0.00000  -0.02800  -0.02853  -2.98855
   D45        2.62835   0.00549   0.00000   0.04851   0.04939   2.67774
   D46       -0.35387   0.00146   0.00000   0.01627   0.01677  -0.33711
   D47       -0.00807   0.00138   0.00000   0.00502   0.00493  -0.00314
   D48       -2.61434  -0.00875   0.00000  -0.05018  -0.05007  -2.66441
   D49        0.01945  -0.00054   0.00000  -0.00215  -0.00222   0.01724
   D50        2.97137   0.00702   0.00000   0.05030   0.04986   3.02122
   D51       -0.02581  -0.00013   0.00000  -0.00077  -0.00055  -0.02636
   D52        2.83765   0.00838   0.00000   0.05942   0.05967   2.89732
   D53       -2.97342  -0.00680   0.00000  -0.05113  -0.05140  -3.02482
   D54       -0.10997   0.00171   0.00000   0.00906   0.00883  -0.10114
         Item               Value     Threshold  Converged?
 Maximum Force            0.087621     0.000450     NO 
 RMS     Force            0.017062     0.000300     NO 
 Maximum Displacement     0.198343     0.001800     NO 
 RMS     Displacement     0.059930     0.001200     NO 
 Predicted change in Energy=-4.262785D-02
 GradGradGradGradGradGradGradGradGradGradGradGradGradGradGradGradGradGrad

                          Input orientation:                          
 ---------------------------------------------------------------------
 Center     Atomic      Atomic             Coordinates (Angstroms)
 Number     Number       Type             X           Y           Z
 ---------------------------------------------------------------------
      1          6           0       -4.207168   -1.410939   -0.210064
      2          6           0       -2.900180   -0.995933   -0.606738
      3          6           0       -1.985452   -2.045123   -0.603977
      4          6           0       -2.597545    0.427476   -0.969939
      5          6           0       -4.294019   -2.753133    0.096689
      6          1           0       -5.054708   -0.748125   -0.145585
      7         16           0       -2.782323   -3.540532   -0.107024
      8          1           0       -5.185293   -3.271713    0.410658
      9          6           0       -0.574886   -2.089054   -0.948843
     10         16           0        0.036898   -1.414592   -2.467545
     11          6           0        1.659838   -1.867706   -2.090915
     12          6           0        1.728151   -2.498117   -0.847653
     13          6           0        0.468099   -2.607614   -0.191265
     14          1           0        0.347041   -2.939510    0.827414
     15         16           0        3.323630   -2.397879   -0.185189
     16          6           0        3.896916   -1.515043   -1.580279
     17          6           0        2.897414   -1.288887   -2.503328
     18          1           0        4.887964   -1.091726   -1.619114
     19          1           0        3.003140   -0.580085   -3.312614
     20          1           0       -3.481739    1.052447   -0.847652
     21          1           0       -2.275162    0.515030   -2.006505
     22          1           0       -1.815615    0.840758   -0.326532
 ---------------------------------------------------------------------
                    Distance matrix (angstroms):
                    1          2          3          4          5
     1  C    0.000000
     2  C    1.427515   0.000000
     3  C    2.343796   1.391954   0.000000
     4  C    2.558920   1.499866   2.573390   0.000000
     5  C    1.379538   2.350606   2.514298   3.759255   0.000000
     6  H    1.077870   2.217219   3.363430   2.845918   2.158101
     7  S    2.564364   2.595879   1.765846   4.064955   1.716601
     8  H    2.191918   3.381717   3.573932   4.720857   1.077901
     9  C    3.768170   2.592093   1.452776   3.228703   3.919960
    10  S    4.807113   3.502044   2.821410   3.546312   5.208055
    11  C    6.178026   4.874068   3.940889   4.964852   6.404531
    12  C    6.067660   4.871966   3.749058   5.223571   6.101094
    13  C    4.826024   3.757051   2.550811   4.383637   4.773035
    14  H    4.914643   4.047065   2.879120   4.820546   4.701929
    15  S    7.595235   6.393666   5.337244   6.607479   7.631136
    16  C    8.219763   6.886056   5.986351   6.806168   8.452012
    17  C    7.466529   6.106961   5.293563   5.957496   7.785937
    18  H    9.209167   7.854252   7.013082   7.665654   9.487522
    19  H    7.893331   6.507218   5.862517   6.153940   8.342303
    20  H    2.645948   2.142921   3.448651   1.089653   4.004250
    21  H    3.266375   2.152442   2.933496   1.089066   4.379509
    22  H    3.286827   2.151332   2.904158   1.093704   4.386076
                    6          7          8          9         10
     6  H    0.000000
     7  S    3.600383   0.000000
     8  H    2.587461   2.472756   0.000000
     9  C    4.744694   2.772765   4.950028   0.000000
    10  S    5.635613   4.247315   6.245336   1.770773   0.000000
    11  C    7.079753   5.144606   7.421922   2.519388   1.726585
    12  C    7.040068   4.688234   7.069477   2.341272   2.580390
    13  C    5.827622   3.382703   5.724000   1.389477   2.605894
    14  H    5.909974   3.320742   5.557946   2.174469   3.643943
    15  S    8.539310   6.212442   8.574403   3.984591   4.120511
    16  C    9.098246   7.133395   9.462359   4.552495   3.961952
    17  C    8.311897   6.562896   8.817770   3.887617   2.863500
    18  H   10.057141   8.192459  10.504420   5.593448   4.935273
    19  H    8.659517   7.246491   9.389252   4.546061   3.195174
    20  H    2.491825   4.704590   4.814956   4.281246   4.592510
    21  H    3.575537   4.506975   5.352659   3.284942   3.046576
    22  H    3.612342   4.492039   5.367550   3.241987   3.619716
                   11         12         13         14         15
    11  C    0.000000
    12  C    1.395631   0.000000
    13  C    2.361435   1.424980   0.000000
    14  H    3.374737   2.215433   1.078201   0.000000
    15  S    2.584779   1.730450   2.863230   3.190425   0.000000
    16  C    2.321559   2.491328   3.857442   4.519702   1.747665
    17  C    1.427134   2.360228   3.603644   4.508082   2.604860
    18  H    3.353437   3.543657   4.885886   5.479032   2.491851
    19  H    2.225977   3.373496   4.503346   5.455418   3.631512
    20  H    6.042252   6.304718   5.424768   5.779371   7.658764
    21  H    4.600955   5.142812   4.535580   5.180820   6.568768
    22  H    4.746325   4.896727   4.138226   4.505453   6.076232
                   16         17         18         19         20
    16  C    0.000000
    17  C    1.379192   0.000000
    18  H    1.078371   2.187007   0.000000
    19  H    2.161936   1.080981   2.585011   0.000000
    20  H    7.846866   6.994048   8.674363   7.127051   0.000000
    21  H    6.511330   5.500590   7.351335   5.546681   1.757153
    22  H    6.305132   5.611281   7.095297   5.844303   1.758508
                   21         22
    21  H    0.000000
    22  H    1.771890   0.000000
 Stoichiometry    C11H8S3
 Framework group  C1[X(C11H8S3)]
 Deg. of freedom    60
 Full point group                 C1      NOp   1
 Largest Abelian subgroup         C1      NOp   1
 Largest concise Abelian subgroup C1      NOp   1
                         Standard orientation:                         
 ---------------------------------------------------------------------
 Center     Atomic      Atomic             Coordinates (Angstroms)
 Number     Number       Type             X           Y           Z
 ---------------------------------------------------------------------
      1          6           0       -3.968030    0.406645    0.451231
      2          6           0       -2.609035    0.838204    0.519687
      3          6           0       -1.724278   -0.108481    0.011231
      4          6           0       -2.229565    2.171654    1.091972
      5          6           0       -4.124253   -0.850446   -0.095067
      6          1           0       -4.803469    0.994153    0.795731
      7         16           0       -2.613671   -1.526832   -0.550439
      8          1           0       -5.061788   -1.360969   -0.244282
      9          6           0       -0.278999   -0.089845   -0.134989
     10         16           0        0.565581    1.268412   -0.894895
     11          6           0        2.105263    0.518374   -0.675991
     12          6           0        1.975058   -0.715178   -0.036318
     13          6           0        0.629105   -1.052840    0.287660
     14          1           0        0.350776   -1.895605    0.899866
     15         16           0        3.454831   -1.177545    0.732413
     16          6           0        4.246623    0.282728    0.189274
     17          6           0        3.400978    1.099051   -0.532302
     18          1           0        5.239836    0.547544    0.515286
     19          1           0        3.639633    2.128961   -0.757803
     20          1           0       -3.110588    2.698947    1.456806
     21          1           0       -1.753980    2.805797    0.345148
     22          1           0       -1.545474    2.057414    1.937643
 ---------------------------------------------------------------------
 Rotational constants (GHZ):           1.2438854           0.2750120           0.2451208
 Standard basis: Aug-CC-pVDZ (5D, 7F)
 There are   434 symmetry adapted cartesian basis functions of A   symmetry.
 There are   406 symmetry adapted basis functions of A   symmetry.
   406 basis functions,   804 primitive gaussians,   434 cartesian basis functions
    61 alpha electrons       61 beta electrons
       nuclear repulsion energy      1122.0067075961 Hartrees.
 NAtoms=   22 NActive=   22 NUniq=   22 SFac= 1.00D+00 NAtFMM=   60 NAOKFM=F Big=F
 Integral buffers will be    131072 words long.
 Raffenetti 1 integral format.
 Two-electron integral symmetry is turned on.
 One-electron integrals computed using PRISM.
 NBasis=   406 RedAO= T EigKep=  4.07D-06  NBF=   406
 NBsUse=   406 1.00D-06 EigRej= -1.00D+00 NBFU=   406
 Initial guess from the checkpoint file:  "/tmp/pbs.4762177[125].pbs/Gau-1037722.chk"
 B after Tr=     0.000000    0.000000    0.000000
         Rot=    0.999989   -0.003195   -0.000830    0.003207 Ang=  -0.53 deg.
 ExpMin= 2.97D-02 ExpMax= 1.11D+05 ExpMxC= 1.07D+03 IAcc=3 IRadAn=         5 AccDes= 0.00D+00
 Harris functional with IExCor=  205 and IRadAn=       5 diagonalized for initial guess.
 HarFok:  IExCor=  205 AccDes= 0.00D+00 IRadAn=         5 IDoV= 1 UseB2=F ITyADJ=14
 ICtDFT=  3500011 ScaDFX=  1.000000  1.000000  1.000000  1.000000
 FoFCou: FMM=F IPFlag=           0 FMFlag=      100000 FMFlg1=           0
         NFxFlg=           0 DoJE=T BraDBF=F KetDBF=T FulRan=T
         wScrn=  0.000000 ICntrl=       500 IOpCl=  0 I1Cent=   200000004 NGrid=           0
         NMat0=    1 NMatS0=      1 NMatT0=    0 NMatD0=    1 NMtDS0=    0 NMtDT0=    0
 Petite list used in FoFCou.
 Requested convergence on RMS density matrix=1.00D-08 within 128 cycles.
 Requested convergence on MAX density matrix=1.00D-06.
 Requested convergence on             energy=1.00D-06.
 No special actions if energy rises.
 SCF Done:  E(RHF) =  -1613.79513437     A.U. after   15 cycles
            NFock= 15  Conv=0.93D-08     -V/T= 2.0003
 Calling FoFJK, ICntrl=      2127 FMM=F ISym2X=0 I1Cent= 0 IOpClX= 0 NMat=1 NMatS=1 NMatT=0.
 ***** Axes restored to original set *****
 -------------------------------------------------------------------
 Center     Atomic                   Forces (Hartrees/Bohr)
 Number     Number              X              Y              Z
 -------------------------------------------------------------------
      1        6          -0.002083407   -0.031108162    0.007695118
      2        6           0.019179427   -0.020949442   -0.001968092
      3        6          -0.036956665    0.005588800    0.005991987
      4        6           0.003457528    0.007439607    0.000313737
      5        6           0.001339324    0.028829741   -0.007115866
      6        1           0.000283907    0.001588591   -0.000341853
      7       16           0.003537837    0.008031874   -0.002422605
      8        1           0.002755306   -0.002348457    0.000643448
      9        6           0.039348160   -0.004542435    0.011846390
     10       16          -0.009637552   -0.009277547   -0.000785754
     11        6           0.002478379   -0.000895344    0.028907646
     12        6          -0.004811095    0.022223418   -0.018309596
     13        6          -0.027044416    0.009572290   -0.015868190
     14        1          -0.002442892   -0.004238648   -0.001764228
     15       16           0.009700510   -0.004720306   -0.004803029
     16        6          -0.026485385    0.007613968   -0.018256821
     17        6           0.023897154    0.003122814    0.021297823
     18        1           0.001310184   -0.006292278    0.000833040
     19        1           0.001718437   -0.007818537   -0.003839773
     20        1          -0.000036869   -0.001628557    0.000111508
     21        1           0.000804069    0.001078005    0.000889348
     22        1          -0.000311940   -0.001269396   -0.003054237
 -------------------------------------------------------------------
 Cartesian Forces:  Max     0.039348160 RMS     0.013150791

 GradGradGradGradGradGradGradGradGradGradGradGradGradGradGradGradGradGrad
 Berny optimization.
 Using GEDIIS/GDIIS optimizer.
 FormGI is forming the generalized inverse of G from B-inverse, IUseBI=4.
 Internal  Forces:  Max     0.033618937 RMS     0.006669329
 Search for a local minimum.
 Step number   2 out of a maximum of  127
 All quantities printed in internal units (Hartrees-Bohrs-Radians)
 Mixed Optimization -- RFO/linear search
 Update second derivatives using D2CorX and points    1    2
 DE= -4.22D-02 DEPred=-4.26D-02 R= 9.90D-01
 TightC=F SS=  1.41D+00  RLast= 3.51D-01 DXNew= 5.0454D-01 1.0544D+00
 Trust test= 9.90D-01 RLast= 3.51D-01 DXMaxT set to 5.05D-01
 ITU=  1  0
 Use linear search instead of GDIIS.
     Eigenvalues ---    0.00935   0.00981   0.01049   0.01210   0.01240
     Eigenvalues ---    0.01274   0.01295   0.01389   0.01461   0.01480
     Eigenvalues ---    0.01499   0.01588   0.01592   0.01717   0.02053
     Eigenvalues ---    0.02375   0.07239   0.07385   0.15435   0.15782
     Eigenvalues ---    0.15836   0.15966   0.15999   0.16000   0.16000
     Eigenvalues ---    0.16021   0.18670   0.22459   0.22548   0.23423
     Eigenvalues ---    0.24217   0.24661   0.24979   0.24995   0.25121
     Eigenvalues ---    0.26128   0.26578   0.28453   0.30573   0.31089
     Eigenvalues ---    0.31430   0.33689   0.33815   0.34534   0.34842
     Eigenvalues ---    0.34944   0.35156   0.35655   0.35787   0.36006
     Eigenvalues ---    0.36072   0.36127   0.36206   0.36989   0.38164
     Eigenvalues ---    0.38835   0.39502   0.40395   0.450611000.00000
     Eigenvalues --- 1000.000001000.000001000.000001000.000001000.00000
     Eigenvalues --- 1000.000001000.000001000.000001000.000001000.00000
     Eigenvalues --- 1000.000001000.000001000.000001000.000001000.00000
     Eigenvalues --- 1000.000001000.000001000.000001000.000001000.00000
     Eigenvalues --- 1000.000001000.000001000.000001000.000001000.00000
     Eigenvalues --- 1000.000001000.000001000.000001000.000001000.00000
     Eigenvalues --- 1000.000001000.000001000.000001000.000001000.00000
     Eigenvalues --- 1000.000001000.000001000.000001000.000001000.00000
     Eigenvalues --- 1000.000001000.000001000.000001000.000001000.00000
     Eigenvalues --- 1000.000001000.000001000.000001000.000001000.00000
     Eigenvalues --- 1000.000001000.000001000.000001000.000001000.00000
     Eigenvalues --- 1000.000001000.00000
 RFO step:  Lambda=-8.52139125D-03 EMin= 9.35026642D-03
 Quartic linear search produced a step of  0.52606.
 Iteration  1 RMS(Cart)=  0.09036794 RMS(Int)=  0.00662646
 Iteration  2 RMS(Cart)=  0.00861388 RMS(Int)=  0.00225611
 Iteration  3 RMS(Cart)=  0.00004188 RMS(Int)=  0.00225580
 Iteration  4 RMS(Cart)=  0.00000003 RMS(Int)=  0.00225580
 Iteration  1 RMS(Cart)=  0.00000129 RMS(Int)=  0.00000056
 Iteration  2 RMS(Cart)=  0.00000071 RMS(Int)=  0.00000062
 Variable       Old X    -DE/DX   Delta X   Delta X   Delta X     New X
                                 (Linear)    (Quad)   (Total)
    R1        2.69761   0.00296  -0.01134   0.02943   0.01809   2.71570
    R2        2.60695  -0.02639  -0.05627  -0.00205  -0.05841   2.54854
    R3        2.03688   0.00073  -0.00055   0.00395   0.00340   2.04027
    R4        2.63041  -0.02851  -0.06768   0.00352  -0.06407   2.56634
    R5        2.83434   0.00654   0.01258   0.00615   0.01873   2.85306
    R6        3.33697  -0.01160  -0.03094  -0.00386  -0.03474   3.30223
    R7        2.74535   0.00783  -0.00220   0.03451   0.03231   2.77766
    R8        2.05914  -0.00089  -0.00276   0.00108  -0.00168   2.05746
    R9        2.05804  -0.00052   0.00012  -0.00241  -0.00229   2.05575
   R10        2.06680  -0.00250  -0.00504  -0.00192  -0.00696   2.05984
   R11        3.24391  -0.00317  -0.02252   0.02671   0.00412   3.24802
   R12        2.03694  -0.00096  -0.00199  -0.00045  -0.00244   2.03450
   R13        3.34628  -0.00703  -0.01918   0.00842  -0.01327   3.33300
   R14        2.62573  -0.03362  -0.07473  -0.00182  -0.07821   2.54752
   R15        3.26277   0.00372  -0.00378   0.02207   0.01904   3.28181
   R16        2.63736  -0.02164  -0.04500  -0.01707  -0.05760   2.57976
   R17        2.69689   0.00510   0.00090   0.01271   0.01523   2.71213
   R18        2.69282   0.00339  -0.00761   0.02136   0.01501   2.70783
   R19        3.27008   0.00360  -0.00199   0.01945   0.01724   3.28732
   R20        2.03751  -0.00009  -0.00071   0.00088   0.00017   2.03768
   R21        3.30261  -0.00551  -0.01717   0.01270  -0.00655   3.29606
   R22        2.60630  -0.02932  -0.06490   0.00298  -0.06255   2.54375
   R23        2.03783  -0.00130  -0.00333   0.00049  -0.00284   2.03499
   R24        2.04276  -0.00208  -0.00608   0.00197  -0.00412   2.03864
    A1        1.98480   0.00115   0.00768  -0.01080  -0.00322   1.98158
    A2        2.16249  -0.00208  -0.00568  -0.00379  -0.00943   2.15306
    A3        2.13587   0.00093  -0.00200   0.01461   0.01266   2.14853
    A4        1.96274  -0.00184  -0.00480  -0.00329  -0.00810   1.95465
    A5        2.12696   0.00344   0.01468  -0.00763   0.00691   2.13387
    A6        2.19348  -0.00161  -0.00989   0.01082   0.00081   2.19428
    A7        1.92018   0.00485   0.00831   0.01268   0.02113   1.94132
    A8        2.29212  -0.00589  -0.01409  -0.00724  -0.02141   2.27071
    A9        2.07072   0.00106   0.00578  -0.00544   0.00027   2.07098
   A10        1.93201  -0.00196  -0.00709   0.00042  -0.00665   1.92536
   A11        1.94605   0.00172   0.00629  -0.00047   0.00584   1.95188
   A12        1.93951   0.00048   0.00326  -0.00351  -0.00024   1.93926
   A13        1.87644   0.00029   0.00123   0.00026   0.00152   1.87796
   A14        1.87275   0.00128   0.00351   0.00582   0.00935   1.88210
   A15        1.89432  -0.00185  -0.00745  -0.00221  -0.00966   1.88466
   A16        1.94384   0.00003  -0.00502   0.01026   0.00506   1.94889
   A17        2.19556   0.00352   0.01039   0.00831   0.01876   2.21431
   A18        2.14367  -0.00354  -0.00535  -0.01840  -0.02370   2.11997
   A19        1.61316  -0.00419  -0.00617  -0.00884  -0.01502   1.59814
   A20        2.12648  -0.00113  -0.00129  -0.00511  -0.00675   2.11973
   A21        2.22772  -0.00329  -0.00654  -0.00746  -0.01434   2.21337
   A22        1.92882   0.00448   0.00810   0.01334   0.02066   1.94948
   A23        1.60851  -0.00401  -0.00559  -0.01634  -0.01971   1.58880
   A24        1.93786  -0.00314  -0.01231   0.01585   0.00074   1.93859
   A25        2.27266   0.00481   0.01802   0.04345   0.05082   2.32348
   A26        1.98034   0.00148   0.00784  -0.00315   0.00372   1.98406
   A27        1.98424   0.00128   0.00919  -0.00663   0.00144   1.98568
   A28        1.93906  -0.00304  -0.01435   0.02076   0.00380   1.94286
   A29        2.26973   0.00471   0.01712   0.04242   0.04899   2.31872
   A30        1.96484   0.00144   0.00074  -0.00522  -0.00269   1.96215
   A31        2.14805  -0.00202  -0.00678   0.01046   0.00069   2.14875
   A32        2.16293   0.00102   0.00841   0.00343   0.00882   2.17176
   A33        1.59691  -0.00260   0.00199  -0.02468  -0.01989   1.57702
   A34        1.95990   0.00277  -0.00025   0.02119   0.01934   1.97924
   A35        2.12764  -0.00464  -0.00443  -0.02018  -0.02964   2.09801
   A36        2.18652   0.00265   0.00886   0.01556   0.01933   2.20585
   A37        1.94823   0.00140   0.00475  -0.01337  -0.00676   1.94147
   A38        2.17378  -0.00048   0.00459   0.00809   0.00591   2.17969
   A39        2.13850   0.00044  -0.00188   0.02983   0.02134   2.15984
    D1        0.00396  -0.00022  -0.00151  -0.01351  -0.01494  -0.01097
    D2       -3.13280   0.00038   0.00093   0.00757   0.00859  -3.12421
    D3        3.13914  -0.00038  -0.00238  -0.01086  -0.01328   3.12586
    D4        0.00238   0.00022   0.00006   0.01021   0.01025   0.01263
    D5       -0.00908   0.00001  -0.00125   0.00781   0.00653  -0.00255
    D6       -3.13420  -0.00041  -0.00211  -0.00387  -0.00620  -3.14040
    D7        3.13881   0.00018  -0.00038   0.00528   0.00497  -3.13940
    D8        0.01369  -0.00024  -0.00124  -0.00639  -0.00776   0.00594
    D9        0.00283   0.00036   0.00353   0.01268   0.01622   0.01905
   D10        3.12438   0.00110   0.00356   0.01208   0.01557   3.13995
   D11        3.13937  -0.00026   0.00099  -0.00942  -0.00827   3.13110
   D12       -0.02226   0.00048   0.00101  -0.01002  -0.00892  -0.03118
   D13        0.03660  -0.00015  -0.00062   0.00352   0.00284   0.03944
   D14       -2.05150  -0.00034  -0.00163   0.00322   0.00155  -2.04995
   D15        2.11578   0.00050   0.00130   0.00881   0.01005   2.12583
   D16       -3.09950   0.00054   0.00216   0.02754   0.02974  -3.06976
   D17        1.09558   0.00034   0.00114   0.02724   0.02845   1.12403
   D18       -1.02032   0.00118   0.00407   0.03283   0.03694  -0.98337
   D19       -0.00674  -0.00028  -0.00357  -0.00712  -0.01081  -0.01755
   D20       -3.13118  -0.00082  -0.00333  -0.00655  -0.00993  -3.14111
   D21       -0.87254  -0.00190   0.00000   0.00000   0.00000  -0.87254
   D22        2.24750   0.00148   0.01200   0.04999   0.06205   2.30955
   D23        2.24760  -0.00108   0.00002  -0.00048  -0.00052   2.24708
   D24       -0.91555   0.00230   0.01203   0.04951   0.06153  -0.85402
   D25        0.00901   0.00015   0.00276  -0.00034   0.00224   0.01125
   D26        3.13470   0.00063   0.00378   0.01121   0.01463  -3.13385
   D27       -3.13606   0.00127   0.00485   0.01611   0.02121  -3.11485
   D28        0.02375  -0.00151  -0.00499  -0.02596  -0.03190  -0.00814
   D29        3.12905  -0.00172  -0.00811  -0.01331  -0.02105   3.10800
   D30       -0.13804   0.00211   0.01049   0.06038   0.07080  -0.06723
   D31       -0.03209   0.00130   0.00262   0.03187   0.03568   0.00359
   D32        2.98401   0.00513   0.02122   0.10556   0.12753   3.11154
   D33       -0.00907   0.00150   0.00658   0.01322   0.01973   0.01065
   D34       -2.66363  -0.00623  -0.02514  -0.12333  -0.15163  -2.81527
   D35       -0.00766  -0.00086  -0.00593   0.00276  -0.00312  -0.01078
   D36       -2.75266  -0.00813  -0.03383  -0.12479  -0.15264  -2.90530
   D37        2.73373   0.00677   0.02479   0.12795   0.14707   2.88080
   D38       -0.01127  -0.00051  -0.00310   0.00040  -0.00245  -0.01372
[...]
 ---------------------------------------------------------------------
 Rotational constants (GHZ):           1.2730049           0.2746739           0.2414863

 **********************************************************************

            Population analysis using the SCF Density.

 **********************************************************************

 Orbital symmetries:
       Occupied  (A) (A) (A) (A) (A) (A) (A) (A) (A) (A) (A) (A)
                 (A) (A) (A) (A) (A) (A) (A) (A) (A) (A) (A) (A)
                 (A) (A) (A) (A) (A) (A) (A) (A) (A) (A) (A) (A)
                 (A) (A) (A) (A) (A) (A) (A) (A) (A) (A) (A) (A)
                 (A) (A) (A) (A) (A) (A) (A) (A) (A) (A) (A) (A)
                 (A)
       Virtual   (A) (A) (A) (A) (A) (A) (A) (A) (A) (A) (A) (A)
                 (A) (A) (A) (A) (A) (A) (A) (A) (A) (A) (A) (A)
                 (A) (A) (A) (A) (A) (A) (A) (A) (A) (A) (A) (A)
                 (A) (A) (A) (A) (A) (A) (A) (A) (A) (A) (A) (A)
                 (A) (A) (A) (A) (A) (A) (A) (A) (A) (A) (A) (A)
                 (A) (A) (A) (A) (A) (A) (A) (A) (A) (A) (A) (A)
                 (A) (A) (A) (A) (A) (A) (A) (A) (A) (A) (A) (A)
                 (A) (A) (A) (A) (A) (A) (A) (A) (A) (A) (A) (A)
                 (A) (A) (A) (A) (A) (A) (A) (A) (A) (A) (A) (A)
                 (A) (A) (A) (A) (A) (A) (A) (A) (A) (A) (A) (A)
                 (A) (A) (A) (A) (A) (A) (A) (A) (A) (A) (A) (A)
                 (A) (A) (A) (A) (A) (A) (A) (A) (A) (A) (A) (A)
                 (A) (A) (A) (A) (A) (A) (A) (A) (A) (A) (A) (A)
                 (A) (A) (A) (A) (A) (A) (A) (A) (A) (A) (A) (A)
                 (A) (A) (A) (A) (A) (A) (A) (A) (A) (A) (A) (A)
                 (A) (A) (A) (A) (A) (A) (A) (A) (A) (A) (A) (A)
                 (A) (A) (A) (A) (A) (A) (A) (A) (A) (A) (A) (A)
                 (A) (A) (A) (A) (A) (A) (A) (A) (A) (A) (A) (A)
                 (A) (A) (A) (A) (A) (A) (A) (A) (A) (A) (A) (A)
                 (A) (A) (A) (A) (A) (A) (A) (A) (A) (A) (A) (A)
                 (A) (A) (A) (A) (A) (A) (A) (A) (A) (A) (A) (A)
                 (A) (A) (A) (A) (A) (A) (A) (A) (A) (A) (A) (A)
                 (A) (A) (A) (A) (A) (A) (A) (A) (A) (A) (A) (A)
                 (A) (A) (A) (A) (A) (A) (A) (A) (A) (A) (A) (A)
                 (A) (A) (A) (A) (A) (A) (A) (A) (A) (A) (A) (A)
                 (A) (A) (A) (A) (A) (A) (A) (A) (A) (A) (A) (A)
                 (A) (A) (A) (A) (A) (A) (A) (A) (A) (A) (A) (A)
                 (A) (A) (A) (A) (A) (A) (A) (A) (A) (A) (A) (A)
                 (A) (A) (A) (A) (A) (A) (A) (A) (A)
 The electronic state is 1-A.
 Alpha  occ. eigenvalues --  -91.99049 -91.99041 -91.98423 -11.28971 -11.27788
 Alpha  occ. eigenvalues --  -11.27685 -11.27315 -11.27171 -11.27108 -11.25831
 Alpha  occ. eigenvalues --  -11.25700 -11.25532 -11.24351 -11.23611  -8.99224
 Alpha  occ. eigenvalues --   -8.99216  -8.98650  -6.67390  -6.67381  -6.67312
 Alpha  occ. eigenvalues --   -6.67300  -6.67106  -6.67092  -6.66816  -6.66723
 Alpha  occ. eigenvalues --   -6.66531  -1.21789  -1.18607  -1.12889  -1.03920
 Alpha  occ. eigenvalues --   -1.02663  -1.01696  -0.95649  -0.94741  -0.91930
 Alpha  occ. eigenvalues --   -0.82180  -0.77673  -0.76568  -0.72087  -0.70213
 Alpha  occ. eigenvalues --   -0.67423  -0.66905  -0.60575  -0.59150  -0.58894
 Alpha  occ. eigenvalues --   -0.56773  -0.56382  -0.54809  -0.53800  -0.52517
 Alpha  occ. eigenvalues --   -0.51665  -0.51257  -0.49602  -0.47288  -0.46448
 Alpha  occ. eigenvalues --   -0.46042  -0.38998  -0.34680  -0.34082  -0.32290
 Alpha  occ. eigenvalues --   -0.29031
 Alpha virt. eigenvalues --    0.03445   0.03484   0.04142   0.04780   0.04851
 Alpha virt. eigenvalues --    0.05891   0.05977   0.07338   0.07639   0.08605
 Alpha virt. eigenvalues --    0.09003   0.09386   0.10379   0.10593   0.11234
 Alpha virt. eigenvalues --    0.11571   0.12048   0.12518   0.12673   0.12937
 Alpha virt. eigenvalues --    0.13190   0.13334   0.14020   0.14216   0.14424
 Alpha virt. eigenvalues --    0.14912   0.15274   0.15506   0.15723   0.16299
 Alpha virt. eigenvalues --    0.16526   0.17448   0.17619   0.17947   0.18284
 Alpha virt. eigenvalues --    0.18515   0.18922   0.19272   0.19848   0.20504
 Alpha virt. eigenvalues --    0.20885   0.21489   0.21765   0.21837   0.21971
 Alpha virt. eigenvalues --    0.22715   0.23050   0.23522   0.23650   0.24211
 Alpha virt. eigenvalues --    0.24638   0.25425   0.25539   0.25810   0.26231
 Alpha virt. eigenvalues --    0.26796   0.27554   0.27769   0.28575   0.28695
 Alpha virt. eigenvalues --    0.28948   0.30435   0.30819   0.31191   0.31763
 Alpha virt. eigenvalues --    0.32101   0.32536   0.32744   0.33551   0.33700
 Alpha virt. eigenvalues --    0.34336   0.34709   0.35743   0.36039   0.36804
 Alpha virt. eigenvalues --    0.37588   0.37781   0.38448   0.39147   0.40397
 Alpha virt. eigenvalues --    0.40841   0.40906   0.41360   0.42399   0.42553
 Alpha virt. eigenvalues --    0.43707   0.44296   0.44940   0.45017   0.45431
 Alpha virt. eigenvalues --    0.45697   0.46138   0.46935   0.47291   0.48243
 Alpha virt. eigenvalues --    0.48314   0.49038   0.49329   0.50258   0.50876
 Alpha virt. eigenvalues --    0.52056   0.52443   0.53171   0.54034   0.54559
 Alpha virt. eigenvalues --    0.55354   0.56142   0.56794   0.58203   0.58894
 Alpha virt. eigenvalues --    0.59057   0.59441   0.60060   0.60665   0.61659
 Alpha virt. eigenvalues --    0.62094   0.62208   0.62880   0.63607   0.64233
 Alpha virt. eigenvalues --    0.64848   0.65240   0.65585   0.65957   0.66634
 Alpha virt. eigenvalues --    0.67693   0.68133   0.68588   0.68767   0.69205
 Alpha virt. eigenvalues --    0.69786   0.70253   0.70639   0.70757   0.71487
 Alpha virt. eigenvalues --    0.72341   0.72638   0.72963   0.73539   0.74566
 Alpha virt. eigenvalues --    0.74693   0.74864   0.75468   0.76377   0.76671
 Alpha virt. eigenvalues --    0.77337   0.77834   0.78361   0.79070   0.79967
 Alpha virt. eigenvalues --    0.81209   0.81822   0.81996   0.82840   0.84531
 Alpha virt. eigenvalues --    0.84773   0.85201   0.85661   0.86615   0.86953
 Alpha virt. eigenvalues --    0.87348   0.88686   0.89249   0.89941   0.90728
 Alpha virt. eigenvalues --    0.91582   0.91948   0.92463   0.93270   0.94240
 Alpha virt. eigenvalues --    0.94945   0.95534   0.95594   0.97127   0.97430
 Alpha virt. eigenvalues --    0.98465   0.99001   0.99727   1.00673   1.01394
 Alpha virt. eigenvalues --    1.01868   1.02177   1.03102   1.04708   1.06231
 Alpha virt. eigenvalues --    1.07273   1.08172   1.09263   1.09785   1.10184
 Alpha virt. eigenvalues --    1.10809   1.11750   1.13911   1.14300   1.15893
 Alpha virt. eigenvalues --    1.17728   1.18133   1.18716   1.19056   1.19633
 Alpha virt. eigenvalues --    1.20726   1.22240   1.23129   1.23793   1.24450
 Alpha virt. eigenvalues --    1.25737   1.27175   1.28151   1.28625   1.28770
 Alpha virt. eigenvalues --    1.30596   1.31157   1.31724   1.32883   1.34428
 Alpha virt. eigenvalues --    1.34730   1.36285   1.36799   1.37971   1.39369
 Alpha virt. eigenvalues --    1.40838   1.40959   1.42772   1.44325   1.46058
 Alpha virt. eigenvalues --    1.46864   1.48014   1.49721   1.51376   1.53698
 Alpha virt. eigenvalues --    1.55104   1.55804   1.56694   1.56855   1.58232
 Alpha virt. eigenvalues --    1.59894   1.61063   1.62255   1.63064   1.64091
 Alpha virt. eigenvalues --    1.65210   1.66548   1.68028   1.68212   1.69193
 Alpha virt. eigenvalues --    1.69866   1.71009   1.71497   1.71924   1.73048
 Alpha virt. eigenvalues --    1.73684   1.73963   1.76566   1.78495   1.78997
 Alpha virt. eigenvalues --    1.80316   1.80969   1.83199   1.83734   1.84894
 Alpha virt. eigenvalues --    1.85187   1.85998   1.87777   1.89127   1.91166
 Alpha virt. eigenvalues --    1.91496   1.92851   1.94445   1.95534   1.96957
 Alpha virt. eigenvalues --    1.97306   1.98200   2.00021   2.01530   2.02742
 Alpha virt. eigenvalues --    2.04895   2.06162   2.07052   2.08522   2.09226
 Alpha virt. eigenvalues --    2.10648   2.11126   2.12143   2.13561   2.14133
 Alpha virt. eigenvalues --    2.15610   2.16518   2.19156   2.20344   2.22051
 Alpha virt. eigenvalues --    2.22546   2.23024   2.24969   2.26952   2.27699
 Alpha virt. eigenvalues --    2.28404   2.30685   2.31414   2.33073   2.34214
 Alpha virt. eigenvalues --    2.35833   2.35877   2.38391   2.39238   2.40125
 Alpha virt. eigenvalues --    2.43098   2.44428   2.46979   2.47646   2.48357
 Alpha virt. eigenvalues --    2.49710   2.51697   2.52067   2.54376   2.54785
 Alpha virt. eigenvalues --    2.58839   2.60217   2.61569   2.66047   2.68952
 Alpha virt. eigenvalues --    2.75077   2.75440   2.77615   2.82543   2.85582
 Alpha virt. eigenvalues --    2.87581   2.88329   2.91792   2.94547   3.00172
 Alpha virt. eigenvalues --    3.00506   3.04612   3.07039   3.07710   3.22138
 Alpha virt. eigenvalues --    3.25952   3.29939   3.34832   3.46009   3.53056
 Alpha virt. eigenvalues --    3.58834   3.74982   3.81109   4.15801   4.27106
          Condensed to atoms (all electrons):
               1          2          3          4          5          6
     1  C    9.909931  -1.952889  -0.725985  -0.839503  -0.173690  -0.328815
     2  C   -1.952889  11.506548  -3.445191   0.574472   0.281425   0.236593
     3  C   -0.725985  -3.445191  13.965924  -0.931964  -1.376914  -0.005039
     4  C   -0.839503   0.574472  -0.931964   5.722930   0.126746   0.038256
     5  C   -0.173690   0.281425  -1.376914   0.126746   6.844487  -0.021253
     6  H   -0.328815   0.236593  -0.005039   0.038256  -0.021253   1.657322
     7  S   -0.536533  -0.126917  -0.127602   0.129145   0.355750  -0.015843
     8  H    0.049207   0.129204  -0.057875   0.031928   0.146730  -0.067770
     9  C    0.159214   0.383613  -2.231372   0.143994   0.261761   0.010337
    10  S   -0.072127   0.381137  -0.559312   0.061472   0.012003   0.004531
    11  C    0.012220   0.114166  -0.283183  -0.024452   0.005954   0.000957
    12  C   -0.045715  -0.098964   0.395362   0.050839  -0.012762  -0.000135
    13  C    0.064590  -1.294240   0.790523  -0.265590  -0.179022  -0.010436
    14  H   -0.019157   0.072443   0.022288   0.014796   0.004383  -0.001413
    15  S    0.000827  -0.005988  -0.046346  -0.001269  -0.001184   0.000041
    16  C   -0.001766   0.001075   0.033492   0.002609   0.000096  -0.000087
    17  C    0.001976   0.036646  -0.405842  -0.027497  -0.002014  -0.000064
    18  H   -0.000110   0.000157   0.000441   0.000188  -0.000009  -0.000009
    19  H    0.000519   0.001701  -0.008069  -0.001124  -0.000291   0.000034
    20  H    0.028342   0.006753  -0.046077   0.202282   0.014903  -0.003168
    21  H   -0.015603   0.057157  -0.012840   0.354694   0.021376  -0.008492
    22  H   -0.055799   0.091875   0.144998   0.103202  -0.029900   0.001886
               7          8          9         10         11         12
     1  C   -0.536533   0.049207   0.159214  -0.072127   0.012220  -0.045715
     2  C   -0.126917   0.129204   0.383613   0.381137   0.114166  -0.098964
     3  C   -0.127602  -0.057875  -2.231372  -0.559312  -0.283183   0.395362
     4  C    0.129145   0.031928   0.143994   0.061472  -0.024452   0.050839
     5  C    0.355750   0.146730   0.261761   0.012003   0.005954  -0.012762
     6  H   -0.015843  -0.067770   0.010337   0.004531   0.000957  -0.000135
     7  S   16.189322  -0.138605  -0.433497  -0.121173   0.001580   0.019371
     8  H   -0.138605   1.258481   0.005212  -0.001890  -0.000452   0.000974
     9  C   -0.433497   0.005212  13.678926   0.413470  -0.510821  -0.396224
    10  S   -0.121173  -0.001890   0.413470  16.727738   0.276484  -0.358110
    11  C    0.001580  -0.000452  -0.510821   0.276484  10.952315  -0.908815
    12  C    0.019371   0.000974  -0.396224  -0.358110  -0.908815  12.817010
    13  C    0.398030   0.000207  -5.556260  -0.922886  -0.913202  -3.536320
    14  H    0.007923   0.000955   0.469802   0.035382  -0.107946   0.652098
    15  S   -0.000487  -0.000106  -0.354990   0.123828   0.061664  -0.405976
    16  C   -0.003314   0.000015   0.062837  -0.109026  -0.073509  -1.005182
    17  C    0.007442  -0.000159  -0.297178  -0.249566  -2.553861  -0.918695
    18  H   -0.000020   0.000002   0.003922   0.013074   0.121377  -0.084979
    19  H   -0.000228  -0.000023   0.094180   0.017874   0.531933   0.089741
    20  H    0.003171   0.001271   0.022255  -0.024539  -0.003199  -0.000677
    21  H    0.006008   0.001193  -0.033121   0.003634  -0.000581   0.003222
    22  H    0.006897   0.000124  -0.024255   0.003271  -0.001210   0.002534
              13         14         15         16         17         18
     1  C    0.064590  -0.019157   0.000827  -0.001766   0.001976  -0.000110
     2  C   -1.294240   0.072443  -0.005988   0.001075   0.036646   0.000157
     3  C    0.790523   0.022288  -0.046346   0.033492  -0.405842   0.000441
     4  C   -0.265590   0.014796  -0.001269   0.002609  -0.027497   0.000188
     5  C   -0.179022   0.004383  -0.001184   0.000096  -0.002014  -0.000009
     6  H   -0.010436  -0.001413   0.000041  -0.000087  -0.000064  -0.000009
     7  S    0.398030   0.007923  -0.000487  -0.003314   0.007442  -0.000020
     8  H    0.000207   0.000955  -0.000106   0.000015  -0.000159   0.000002
     9  C   -5.556260   0.469802  -0.354990   0.062837  -0.297178   0.003922
    10  S   -0.922886   0.035382   0.123828  -0.109026  -0.249566   0.013074
    11  C   -0.913202  -0.107946   0.061664  -0.073509  -2.553861   0.121377
    12  C   -3.536320   0.652098  -0.405976  -1.005182  -0.918695  -0.084979
    13  C   18.497721  -1.335690   0.095524  -0.086984  -0.009559   0.026673
    14  H   -1.335690   1.750231  -0.045421   0.015106  -0.042020   0.001670
    15  S    0.095524  -0.045421  16.008651   0.184154  -0.046051  -0.153283
    16  C   -0.086984   0.015106   0.184154   6.928157   0.085290   0.200081
    17  C   -0.009559  -0.042020  -0.046051   0.085290  10.367894   0.023359
    18  H    0.026673   0.001670  -0.153283   0.200081   0.023359   1.301566
    19  H   -0.072405  -0.001308  -0.006426  -0.135477  -0.540821  -0.070901
    20  H    0.025014   0.001708   0.000131   0.000095  -0.000213   0.000024
    21  H   -0.010459  -0.000112   0.000147   0.000118  -0.001661   0.000031
    22  H    0.003255   0.002261  -0.001877   0.000698  -0.006499  -0.000031
              19         20         21         22
     1  C    0.000519   0.028342  -0.015603  -0.055799
     2  C    0.001701   0.006753   0.057157   0.091875
     3  C   -0.008069  -0.046077  -0.012840   0.144998
     4  C   -0.001124   0.202282   0.354694   0.103202
     5  C   -0.000291   0.014903   0.021376  -0.029900
     6  H    0.000034  -0.003168  -0.008492   0.001886
     7  S   -0.000228   0.003171   0.006008   0.006897
     8  H   -0.000023   0.001271   0.001193   0.000124
     9  C    0.094180   0.022255  -0.033121  -0.024255
    10  S    0.017874  -0.024539   0.003634   0.003271
    11  C    0.531933  -0.003199  -0.000581  -0.001210
    12  C    0.089741  -0.000677   0.003222   0.002534
    13  C   -0.072405   0.025014  -0.010459   0.003255
    14  H   -0.001308   0.001708  -0.000112   0.002261
    15  S   -0.006426   0.000131   0.000147  -0.001877
    16  C   -0.135477   0.000095   0.000118   0.000698
    17  C   -0.540821  -0.000213  -0.001661  -0.006499
    18  H   -0.070901   0.000024   0.000031  -0.000031
    19  H    1.427365   0.000029   0.000026   0.000201
    20  H    0.000029   1.109032  -0.119761  -0.165460
    21  H    0.000026  -0.119761   0.753958  -0.123775
    22  H    0.000201  -0.165460  -0.123775   1.085749
 Mulliken charges:
               1
     1  C    0.540866
     2  C   -0.950775
     3  C    0.910582
     4  C    0.533845
     5  C   -0.278574
     6  H   -0.487433
     7  S    0.379578
     8  H   -0.358621
     9  C    0.128198
    10  S    0.344731
    11  C   -0.697417
    12  C   -0.258597
    13  C    0.291517
    14  H   -0.497981
    15  S    0.594439
    16  C   -0.098476
    17  C    0.579095
    18  H   -0.383226
    19  H   -0.326531
    20  H   -0.051917
    21  H    0.124840
    22  H   -0.038144
 Sum of Mulliken charges =   0.00000
 Mulliken charges with hydrogens summed into heavy atoms:
               1
     1  C    0.053433
     2  C   -0.950775
     3  C    0.910582
     4  C    0.568624
     5  C   -0.637195
     7  S    0.379578
     9  C    0.128198
    10  S    0.344731
    11  C   -0.697417
    12  C   -0.258597
    13  C   -0.206465
    15  S    0.594439
    16  C   -0.481701
    17  C    0.252564
 Electronic spatial extent (au):  <R**2>=           4349.2335
 Charge=              0.0000 electrons
 Dipole moment (field-independent basis, Debye):
    X=             -0.4902    Y=              1.1411    Z=              0.5054  Tot=              1.3409
 Quadrupole moment (field-independent basis, Debye-Ang):
   XX=            -86.4269   YY=           -101.0035   ZZ=           -109.0754
   XY=              2.2363   XZ=             -3.2000   YZ=             -1.0120
 Traceless Quadrupole moment (field-independent basis, Debye-Ang):
   XX=             12.4083   YY=             -2.1682   ZZ=            -10.2401
   XY=              2.2363   XZ=             -3.2000   YZ=             -1.0120
 Octapole moment (field-independent basis, Debye-Ang**2):
  XXX=             -0.7218  YYY=              4.3205  ZZZ=              2.5858  XYY=             -7.3147
  XXY=             13.8342  XXZ=             -7.1006  XZZ=             -1.3717  YZZ=              2.8459
  YYZ=             -0.6926  XYZ=            -15.2096
 Hexadecapole moment (field-independent basis, Debye-Ang**3):
 XXXX=          -4152.5953 YYYY=           -989.6112 ZZZZ=           -344.0855 XXXY=             94.2503
 XXXZ=            -29.4985 YYYX=             16.0500 YYYZ=            -12.6518 ZZZX=             -6.5478
 ZZZY=              1.7821 XXYY=           -927.0947 XXZZ=           -920.6915 YYZZ=           -216.4636
 XXYZ=             10.2175 YYXZ=             -6.3829 ZZXY=             -2.7229
 N-N= 1.123940338081D+03 E-N=-6.068052855649D+03  KE= 1.613734168355D+03
 Unable to Open any file for archive entry.
 1\1\GINC-CX3-3-14\FOpt\RHF\Aug-CC-pVDZ\C11H8S3\NS5018\26-Oct-2021\0\\#
  opt=modredundant hf/aug-cc-pvdz\\pBTTT_-50.pdb\\0,1\C,-4.2505142975,-
 1.5266971731,-0.3111358621\C,-2.9445781069,-1.0070491071,-0.6361469658
 \C,-1.9883068559,-1.9694789597,-0.5691401359\C,-2.7342649384,0.4489717
 274,-0.9640611876\C,-4.2513133247,-2.8409758114,-0.0125655427\H,-5.139
 1048665,-0.9135844269,-0.2961632185\S,-2.668667532,-3.5178873701,-0.12
 66953855\H,-5.0908411922,-3.4527048023,0.27117801\C,-0.5439103543,-1.8
 891569009,-0.8426613232\S,0.0588319514,-1.1688664301,-2.3306527262\C,1
 .69749547,-1.509105972,-1.8682703683\C,1.743452079,-2.1437985485,-0.66
 18296525\C,0.4591851069,-2.3639988693,-0.066885537\H,0.2939464089,-2.8
 372832173,0.8871145226\S,3.3822278699,-2.4825126792,-0.1949227969\C,3.
 9709763457,-1.7474433352,-1.6631966732\C,2.9858982187,-1.2747268569,-2
 .4550191703\H,5.0304723917,-1.7126828071,-1.8522562837\H,3.1566024774,
 -0.789397997,-3.4020755307\H,-3.3175272712,1.0702060251,-0.2843475411\
 H,-3.0640651499,0.6718112608,-1.9802173889\H,-1.6909944304,0.736362250
 7,-0.8760492426\\Version=ES64L-G16RevC.01\State=1-A\HF=-1613.8143652\R
 MSD=8.805e-09\RMSF=4.749e-04\Dipole=-0.2085782,0.4801259,-0.0653278\Qu
 adrupole=8.2052651,-4.2672865,-3.9379785,-0.2667708,-4.6517999,-3.0970
 229\PG=C01 [X(C11H8S3)]\\@
 The archive entry for this job was punched.


 THE BEST WAY TO CONVINCE A FOOL THAT HE IS WRONG 
 IS TO LET HIM HAVE HIS OWN WAY.

                                         JOSH BILLINGS
 Job cpu time:       0 days  9 hours 17 minutes  2.1 seconds.
 Elapsed time:       0 days  1 hours 10 minutes 22.8 seconds.
 File lengths (MBytes):  RWF=    103 Int=      0 D2E=      0 Chk=     13 Scr=      1
 Normal termination of Gaussian 16 at Tue Oct 26 01:08:18 2021.
