 Entering Gaussian System, Link 0=g16
 Input=pBTTT_-5.gjf
 Output=pBTTT_-5.log
 Initial command:
 /apps/gaussian/g16-c01-avx/g16/l1.exe "/tmp/pbs.4762177[170].pbs/Gau-3432657.inp" -scrdir="/tmp/pbs.4762177[170].pbs/"
 Entering Link 1 = /apps/gaussian/g16-c01-avx/g16/l1.exe PID=   3432658.
  
 Copyright (c) 1988-2019, Gaussian, Inc.  All Rights Reserved.
  
 This is part of the Gaussian(R) 16 program.  It is based on
 the Gaussian(R) 09 system (copyright 2009, Gaussian, Inc.),
 the Gaussian(R) 03 system (copyright 2003, Gaussian, Inc.),
 the Gaussian(R) 98 system (copyright 1998, Gaussian, Inc.),
 the Gaussian(R) 94 system (copyright 1995, Gaussian, Inc.),
 the Gaussian 92(TM) system (copyright 1992, Gaussian, Inc.),
 the Gaussian 90(TM) system (copyright 1990, Gaussian, Inc.),
 the Gaussian 88(TM) system (copyright 1988, Gaussian, Inc.),
 the Gaussian 86(TM) system (copyright 1986, Carnegie Mellon
 University), and the Gaussian 82(TM) system (copyright 1983,
 Carnegie Mellon University). Gaussian is a federally registered
 trademark of Gaussian, Inc.
  
 This software contains proprietary and confidential information,
 including trade secrets, belonging to Gaussian, Inc.
  
 This software is provided under written license and may be
 used, copied, transmitted, or stored only in accord with that
 written license.
  
 The following legend is applicable only to US Government
 contracts under FAR:
  
                    RESTRICTED RIGHTS LEGEND
  
 Use, reproduction and disclosure by the US Government is
 subject to restrictions as set forth in subparagraphs (a)
 and (c) of the Commercial Computer Software - Restricted
 Rights clause in FAR 52.227-19.
  
 Gaussian, Inc.
 340 Quinnipiac St., Bldg. 40, Wallingford CT 06492
  
  
 ---------------------------------------------------------------
 Warning -- This program may not be used in any manner that
 competes with the business of Gaussian, Inc. or will provide
 assistance to any competitor of Gaussian, Inc.  The licensee
 of this program is prohibited from giving any competitor of
 Gaussian, Inc. access to this program.  By using this program,
 the user acknowledges that Gaussian, Inc. is engaged in the
 business of creating and licensing software in the field of
 computational chemistry and represents and warrants to the
 licensee that it is not a competitor of Gaussian, Inc. and that
 it will not use this program in any manner prohibited above.
 ---------------------------------------------------------------
  

 Cite this work as:
 Gaussian 16, Revision C.01,
 M. J. Frisch, G. W. Trucks, H. B. Schlegel, G. E. Scuseria, 
 M. A. Robb, J. R. Cheeseman, G. Scalmani, V. Barone, 
 G. A. Petersson, H. Nakatsuji, X. Li, M. Caricato, A. V. Marenich, 
 J. Bloino, B. G. Janesko, R. Gomperts, B. Mennucci, H. P. Hratchian, 
 J. V. Ortiz, A. F. Izmaylov, J. L. Sonnenberg, D. Williams-Young, 
 F. Ding, F. Lipparini, F. Egidi, J. Goings, B. Peng, A. Petrone, 
 T. Henderson, D. Ranasinghe, V. G. Zakrzewski, J. Gao, N. Rega, 
 G. Zheng, W. Liang, M. Hada, M. Ehara, K. Toyota, R. Fukuda, 
 J. Hasegawa, M. Ishida, T. Nakajima, Y. Honda, O. Kitao, H. Nakai, 
 T. Vreven, K. Throssell, J. A. Montgomery, Jr., J. E. Peralta, 
 F. Ogliaro, M. J. Bearpark, J. J. Heyd, E. N. Brothers, K. N. Kudin, 
 V. N. Staroverov, T. A. Keith, R. Kobayashi, J. Normand, 
 K. Raghavachari, A. P. Rendell, J. C. Burant, S. S. Iyengar, 
 J. Tomasi, M. Cossi, J. M. Millam, M. Klene, C. Adamo, R. Cammi, 
 J. W. Ochterski, R. L. Martin, K. Morokuma, O. Farkas, 
 J. B. Foresman, and D. J. Fox, Gaussian, Inc., Wallingford CT, 2019.
 
 ******************************************
 Gaussian 16:  ES64L-G16RevC.01  3-Jul-2019
                26-Oct-2021 
 ******************************************
 %mem=100GB
 %nprocshared=8
 Will use up to    8 processors via shared memory.
 ---------------------------------
 # opt=modredundant hf/aug-cc-pvdz
 ---------------------------------
 1/18=120,19=15,38=1/1,3;
 2/9=110,12=2,17=6,18=5,40=1/2;
 3/5=16,7=10,11=9,25=1,30=1,71=1/1,2,3;
 4//1;
 5/5=2,38=5/2;
 6/7=2,8=2,9=2,10=2,28=1/1;
 7//1,2,3,16;
 1/18=20,19=15/3(2);
 2/9=110/2;
 99//99;
 2/9=110/2;
 3/5=16,7=10,11=9,25=1,30=1,71=1/1,2,3;
 4/5=5,16=3,69=1/1;
 5/5=2,38=5/2;
 7//1,2,3,16;
 1/18=20,19=15/3(-5);
 2/9=110/2;
 6/7=2,8=2,9=2,10=2,19=2,28=1/1;
 99/9=1/99;
 ------------
 pBTTT_-5.pdb
 ------------
 Symbolic Z-matrix:
 Charge =  0 Multiplicity = 1
 C                    -4.25     -1.36     -0.21 
 C                    -2.93     -0.95     -0.61 
 C                    -1.97     -2.05     -0.62 
 C                    -2.66      0.47     -0.96 
 C                    -4.33     -2.76      0.1 
 H                    -5.1      -0.7      -0.14 
 S                    -2.8      -3.56     -0.11 
 H                    -5.23     -3.27      0.41 
 C                    -0.56     -2.13     -0.97 
 S                     0.33     -0.732    -1.647 
 C                     1.811    -1.619    -1.754 
 C                     1.68     -2.967    -1.262 
 C                     0.355    -3.261    -0.803 
 H                     0.109    -4.157    -0.254 
 S                     3.181    -3.618    -0.691 
 C                     4.03     -2.127    -1.102 
 C                     3.145    -1.126    -1.654 
 H                     5.049    -1.937    -0.795 
 H                     3.411    -0.074    -1.71 
 H                    -3.55      1.09     -0.83 
 H                    -2.35      0.56     -2. 
 H                    -1.88      0.89     -0.31 
 
 The following ModRedundant input section has been read:
 D       2       3       9      10 F                                           
 

 GradGradGradGradGradGradGradGradGradGradGradGradGradGradGradGradGradGrad
 Berny optimization.
 Initialization pass.
                           ----------------------------
                           !    Initial Parameters    !
                           ! (Angstroms and Degrees)  !
 --------------------------                            --------------------------
 ! Name  Definition              Value          Derivative Info.                !
 --------------------------------------------------------------------------------
 ! R1    R(1,2)                  1.4389         estimate D2E/DX2                !
 ! R2    R(1,5)                  1.4361         estimate D2E/DX2                !
 ! R3    R(1,6)                  1.0784         estimate D2E/DX2                !
 ! R4    R(2,3)                  1.46           estimate D2E/DX2                !
 ! R5    R(2,4)                  1.4872         estimate D2E/DX2                !
 ! R6    R(3,7)                  1.797          estimate D2E/DX2                !
 ! R7    R(3,9)                  1.455          estimate D2E/DX2                !
 ! R8    R(4,20)                 1.0924         estimate D2E/DX2                !
 ! R9    R(4,21)                 1.0889         estimate D2E/DX2                !
 ! R10   R(4,22)                 1.0988         estimate D2E/DX2                !
 ! R11   R(5,7)                  1.7393         estimate D2E/DX2                !
 ! R12   R(5,8)                  1.0799         estimate D2E/DX2                !
 ! R13   R(9,10)                 1.7902         estimate D2E/DX2                !
 ! R14   R(9,13)                 1.4643         estimate D2E/DX2                !
 ! R15   R(10,11)                1.7296         estimate D2E/DX2                !
 ! R16   R(11,12)                1.4409         estimate D2E/DX2                !
 ! R17   R(11,17)                1.4257         estimate D2E/DX2                !
 ! R18   R(12,13)                1.4327         estimate D2E/DX2                !
 ! R19   R(12,15)                1.7329         estimate D2E/DX2                !
 ! R20   R(13,14)                1.0792         estimate D2E/DX2                !
 ! R21   R(15,16)                1.7643         estimate D2E/DX2                !
 ! R22   R(16,17)                1.4457         estimate D2E/DX2                !
 ! R23   R(16,18)                1.0811         estimate D2E/DX2                !
 ! R24   R(17,19)                1.0866         estimate D2E/DX2                !
 ! A1    A(2,1,5)              112.8843         estimate D2E/DX2                !
 ! A2    A(2,1,6)              124.5209         estimate D2E/DX2                !
 ! A3    A(5,1,6)              122.5942         estimate D2E/DX2                !
 ! A4    A(1,2,3)              112.9799         estimate D2E/DX2                !
 ! A5    A(1,2,4)              120.2665         estimate D2E/DX2                !
 ! A6    A(3,2,4)              126.7536         estimate D2E/DX2                !
 ! A7    A(2,3,7)              109.1138         estimate D2E/DX2                !
 ! A8    A(2,3,9)              132.8639         estimate D2E/DX2                !
 ! A9    A(7,3,9)              118.0132         estimate D2E/DX2                !
 ! A10   A(2,4,20)             111.468          estimate D2E/DX2                !
 ! A11   A(2,4,21)             110.8154         estimate D2E/DX2                !
 ! A12   A(2,4,22)             110.7706         estimate D2E/DX2                !
 ! A13   A(20,4,21)            107.3779         estimate D2E/DX2                !
 ! A14   A(20,4,22)            106.918          estimate D2E/DX2                !
 ! A15   A(21,4,22)            109.3476         estimate D2E/DX2                !
 ! A16   A(1,5,7)              111.9209         estimate D2E/DX2                !
 ! A17   A(1,5,8)              124.6643         estimate D2E/DX2                !
 ! A18   A(7,5,8)              123.4062         estimate D2E/DX2                !
 ! A19   A(3,7,5)               93.0997         estimate D2E/DX2                !
 ! A20   A(3,9,10)             121.9925         estimate D2E/DX2                !
 ! A21   A(3,9,13)             128.3577         estimate D2E/DX2                !
 ! A22   A(10,9,13)            109.611          estimate D2E/DX2                !
 ! A23   A(9,10,11)             92.786          estimate D2E/DX2                !
 ! A24   A(10,11,12)           112.3822         estimate D2E/DX2                !
 ! A25   A(10,11,17)           128.2806         estimate D2E/DX2                !
 ! A26   A(12,11,17)           112.6194         estimate D2E/DX2                !
 ! A27   A(11,12,13)           112.6703         estimate D2E/DX2                !
 ! A28   A(11,12,15)           112.6565         estimate D2E/DX2                !
 ! A29   A(13,12,15)           128.1996         estimate D2E/DX2                !
 ! A30   A(9,13,12)            112.5099         estimate D2E/DX2                !
 ! A31   A(9,13,14)            123.8361         estimate D2E/DX2                !
 ! A32   A(12,13,14)           122.9654         estimate D2E/DX2                !
 ! A33   A(12,15,16)            91.2937         estimate D2E/DX2                !
 ! A34   A(15,16,17)           112.3039         estimate D2E/DX2                !
 ! A35   A(15,16,18)           122.4085         estimate D2E/DX2                !
 ! A36   A(17,16,18)           124.3168         estimate D2E/DX2                !
 ! A37   A(11,17,16)           111.1095         estimate D2E/DX2                !
 ! A38   A(11,17,19)           124.0731         estimate D2E/DX2                !
 ! A39   A(16,17,19)           122.698          estimate D2E/DX2                !
 ! D1    D(5,1,2,3)              0.3915         estimate D2E/DX2                !
 ! D2    D(5,1,2,4)           -179.5973         estimate D2E/DX2                !
 ! D3    D(6,1,2,3)           -179.8811         estimate D2E/DX2                !
 ! D4    D(6,1,2,4)              0.13           estimate D2E/DX2                !
 ! D5    D(2,1,5,7)             -0.3845         estimate D2E/DX2                !
 ! D6    D(2,1,5,8)           -179.3471         estimate D2E/DX2                !
 ! D7    D(6,1,5,7)            179.8822         estimate D2E/DX2                !
 ! D8    D(6,1,5,8)              0.9196         estimate D2E/DX2                !
 ! D9    D(1,2,3,7)             -0.2224         estimate D2E/DX2                !
 ! D10   D(1,2,3,9)            178.6265         estimate D2E/DX2                !
 ! D11   D(4,2,3,7)            179.7656         estimate D2E/DX2                !
 ! D12   D(4,2,3,9)             -1.3855         estimate D2E/DX2                !
 ! D13   D(1,2,4,20)             2.1641         estimate D2E/DX2                !
 ! D14   D(1,2,4,21)          -117.3645         estimate D2E/DX2                !
 ! D15   D(1,2,4,22)           121.0843         estimate D2E/DX2                !
 ! D16   D(3,2,4,20)          -177.8231         estimate D2E/DX2                !
 ! D17   D(3,2,4,21)            62.6483         estimate D2E/DX2                !
 ! D18   D(3,2,4,22)           -58.9029         estimate D2E/DX2                !
 ! D19   D(2,3,7,5)              0.0033         estimate D2E/DX2                !
 ! D20   D(9,3,7,5)           -179.041          estimate D2E/DX2                !
 ! D21   D(2,3,9,10)            -5.0008         Frozen                          !
 ! D22   D(2,3,9,13)           172.4905         estimate D2E/DX2                !
 ! D23   D(7,3,9,10)           173.7672         estimate D2E/DX2                !
 ! D24   D(7,3,9,13)            -8.7415         estimate D2E/DX2                !
 ! D25   D(1,5,7,3)              0.2153         estimate D2E/DX2                !
 ! D26   D(8,5,7,3)            179.1932         estimate D2E/DX2                !
 ! D27   D(3,9,10,11)          179.7609         estimate D2E/DX2                !
 ! D28   D(13,9,10,11)           1.849          estimate D2E/DX2                !
 ! D29   D(3,9,13,12)         -179.8131         estimate D2E/DX2                !
 ! D30   D(3,9,13,14)           -9.094          estimate D2E/DX2                !
 ! D31   D(10,9,13,12)          -2.0717         estimate D2E/DX2                !
 ! D32   D(10,9,13,14)         168.6474         estimate D2E/DX2                !
 ! D33   D(9,10,11,12)          -1.1904         estimate D2E/DX2                !
 ! D34   D(9,10,11,17)        -149.936          estimate D2E/DX2                !
 ! D35   D(10,11,12,13)          0.1838         estimate D2E/DX2                !
 ! D36   D(10,11,12,15)       -154.0505         estimate D2E/DX2                !
 ! D37   D(17,11,12,13)        154.002          estimate D2E/DX2                !
 ! D38   D(17,11,12,15)         -0.2323         estimate D2E/DX2                !
 ! D39   D(10,11,17,16)        149.7407         estimate D2E/DX2                !
 ! D40   D(10,11,17,19)        -14.0409         estimate D2E/DX2                !
 ! D41   D(12,11,17,16)          1.0549         estimate D2E/DX2                !
 ! D42   D(12,11,17,19)       -162.7268         estimate D2E/DX2                !
 ! D43   D(11,12,13,9)           1.2527         estimate D2E/DX2                !
 ! D44   D(11,12,13,14)       -169.5597         estimate D2E/DX2                !
 ! D45   D(15,12,13,9)         150.5586         estimate D2E/DX2                !
 ! D46   D(15,12,13,14)        -20.2538         estimate D2E/DX2                !
 ! D47   D(11,12,15,16)         -0.5016         estimate D2E/DX2                !
 ! D48   D(13,12,15,16)       -149.8109         estimate D2E/DX2                !
 ! D49   D(12,15,16,17)          1.1072         estimate D2E/DX2                !
 ! D50   D(12,15,16,18)        170.2763         estimate D2E/DX2                !
 ! D51   D(15,16,17,11)         -1.4277         estimate D2E/DX2                !
 ! D52   D(15,16,17,19)        162.6153         estimate D2E/DX2                !
 ! D53   D(18,16,17,11)       -170.3537         estimate D2E/DX2                !
 ! D54   D(18,16,17,19)         -6.3106         estimate D2E/DX2                !
 --------------------------------------------------------------------------------
 Trust Radius=3.00D-01 FncErr=1.00D-07 GrdErr=1.00D-07 EigMax=2.50D+02 EigMin=1.00D-04
 Number of steps in this run=    127 maximum allowed number of steps=    132.
 GradGradGradGradGradGradGradGradGradGradGradGradGradGradGradGradGradGrad

                          Input orientation:                          
 ---------------------------------------------------------------------
 Center     Atomic      Atomic             Coordinates (Angstroms)
 Number     Number       Type             X           Y           Z
 ---------------------------------------------------------------------
      1          6           0       -4.250000   -1.360000   -0.210000
      2          6           0       -2.930000   -0.950000   -0.610000
      3          6           0       -1.970000   -2.050000   -0.620000
      4          6           0       -2.660000    0.470000   -0.960000
      5          6           0       -4.330000   -2.760000    0.100000
      6          1           0       -5.100000   -0.700000   -0.140000
      7         16           0       -2.800000   -3.560000   -0.110000
      8          1           0       -5.230000   -3.270000    0.410000
      9          6           0       -0.560000   -2.130000   -0.970000
     10         16           0        0.330000   -0.732000   -1.647000
     11          6           0        1.811000   -1.619000   -1.754000
     12          6           0        1.680000   -2.967000   -1.262000
     13          6           0        0.355000   -3.261000   -0.803000
     14          1           0        0.109000   -4.157000   -0.254000
     15         16           0        3.181000   -3.618000   -0.691000
     16          6           0        4.030000   -2.127000   -1.102000
     17          6           0        3.145000   -1.126000   -1.654000
     18          1           0        5.049000   -1.937000   -0.795000
     19          1           0        3.411000   -0.074000   -1.710000
     20          1           0       -3.550000    1.090000   -0.830000
     21          1           0       -2.350000    0.560000   -2.000000
     22          1           0       -1.880000    0.890000   -0.310000
 ---------------------------------------------------------------------
                    Distance matrix (angstroms):
                    1          2          3          4          5
     1  C    0.000000
     2  C    1.438923   0.000000
     3  C    2.417147   1.460034   0.000000
     4  C    2.537617   1.487212   2.634787   0.000000
     5  C    1.436141   2.395871   2.567509   3.787532   0.000000
     6  H    1.078425   2.234346   3.442354   2.827525   2.212261
     7  S    2.636759   2.660639   1.796970   4.121044   1.739253
     8  H    2.234480   3.422397   3.630000   4.740190   1.079907
     9  C    3.845335   2.671872   1.454991   3.342170   3.969219
    10  S    4.841049   3.427899   2.842860   3.294977   5.374048
    11  C    6.259931   4.922741   3.970854   4.998420   6.515449
    12  C    6.233302   5.074002   3.817794   5.544346   6.165873
    13  C    5.017118   4.021094   2.627857   4.799504   4.797461
    14  H    5.179385   4.432506   2.982557   5.438283   4.667081
    15  S    7.781368   6.668516   5.384837   7.134521   7.601116
    16  C    8.363154   7.075945   6.019822   7.177790   8.469657
    17  C    7.538297   6.166566   5.299637   6.060270   7.849974
    18  H    9.335232   8.041942   7.022091   8.077720   9.457484
    19  H    7.911682   6.495049   5.835052   6.141293   8.391292
    20  H    2.622384   2.143455   3.521378   1.092428   4.036806
    21  H    3.240447   2.132745   2.976726   1.088944   4.399182
    22  H    3.269465   2.139650   2.957668   1.098772   4.415099
                    6          7          8          9         10
     6  H    0.000000
     7  S    3.670218   0.000000
     8  H    2.631406   2.501879   0.000000
     9  C    4.831708   2.793224   5.001290   0.000000
    10  S    5.635333   4.489638   6.448744   1.790205   0.000000
    11  C    7.156220   5.266074   7.548800   2.549003   1.729618
    12  C    7.236475   4.663599   7.115862   2.409032   2.639309
    13  C    6.062616   3.244021   5.715214   1.464334   2.666234
    14  H    6.252801   2.973117   5.452759   2.251432   3.704040
    15  S    8.797345   6.009433   8.489890   4.035724   4.167869
    16  C    9.290784   7.048862   9.451994   4.591899   3.991622
    17  C    8.393670   6.606914   8.888051   3.899089   2.842448
    18  H   10.245067   8.044262  10.434882   5.615047   4.944380
    19  H    8.677206   7.299912   9.453872   4.532502   3.151110
    20  H    2.466313   4.764808   4.834211   4.396374   4.363665
    21  H    3.551014   4.555107   5.363898   3.391327   2.996043
    22  H    3.595191   4.548505   5.389480   3.361309   3.050009
                   11         12         13         14         15
    11  C    0.000000
    12  C    1.440947   0.000000
    13  C    2.391757   1.432739   0.000000
    14  H    3.404152   2.213641   1.079228   0.000000
    15  S    2.646294   1.732871   2.850661   3.149393   0.000000
    16  C    2.367938   2.500740   3.857588   4.496025   1.764314
    17  C    1.425695   2.385198   3.614765   4.512677   2.671840
    18  H    3.391968   3.553752   4.877159   5.442856   2.515154
    19  H    2.224626   3.400958   4.507633   5.449223   3.694753
    20  H    6.077234   6.633157   5.846448   6.422699   8.215287
    21  H    4.703454   5.406040   4.832171   5.598686   7.054157
    22  H    4.690810   5.334450   4.740156   5.425078   6.788295
                   16         17         18         19         20
    16  C    0.000000
    17  C    1.445659   0.000000
    18  H    1.081069   2.240718   0.000000
    19  H    2.228819   1.086552   2.644057   0.000000
    20  H    8.238900   7.100187   9.116291   7.112300   0.000000
    21  H    6.980743   5.758241   7.901407   5.803032   1.757783
    22  H    6.682638   5.578639   7.499213   5.557335   1.760483
                   21         22
    21  H    0.000000
    22  H    1.784909   0.000000
 Stoichiometry    C11H8S3
 Framework group  C1[X(C11H8S3)]
 Deg. of freedom    60
 Full point group                 C1      NOp   1
 Largest Abelian subgroup         C1      NOp   1
 Largest concise Abelian subgroup C1      NOp   1
                         Standard orientation:                         
 ---------------------------------------------------------------------
 Center     Atomic      Atomic             Coordinates (Angstroms)
 Number     Number       Type             X           Y           Z
 ---------------------------------------------------------------------
      1          6           0       -4.082646    0.307279    0.222952
      2          6           0       -2.763817    0.878858    0.155974
      3          6           0       -1.717021   -0.122707   -0.025099
      4          6           0       -2.577847    2.350061    0.269010
      5          6           0       -4.077581   -1.124066    0.105804
      6          1           0       -4.989569    0.876409    0.351727
      7         16           0       -2.468671   -1.753424   -0.094986
      8          1           0       -4.961186   -1.744719    0.121104
      9          6           0       -0.272386   -0.029288   -0.171050
     10         16           0        0.569728    1.546556   -0.282376
     11          6           0        2.124778    0.801504   -0.417646
     12          6           0        2.051655   -0.636228   -0.355142
     13          6           0        0.710116   -1.114703   -0.199971
     14          1           0        0.476199   -2.143245    0.028322
     15         16           0        3.519145   -1.354782    0.221916
     16          6           0        4.278616    0.229539    0.382958
     17          6           0        3.386336    1.305693    0.014639
     18          1           0        5.229344    0.368656    0.878410
     19          1           0        3.563354    2.338867    0.300668
     20          1           0       -3.528405    2.861447    0.437302
     21          1           0       -2.146901    2.756951   -0.644514
     22          1           0       -1.927285    2.596372    1.119539
 ---------------------------------------------------------------------
 Rotational constants (GHZ):           1.1865000           0.2803097           0.2299057
 Standard basis: Aug-CC-pVDZ (5D, 7F)
 There are   434 symmetry adapted cartesian basis functions of A   symmetry.
 There are   406 symmetry adapted basis functions of A   symmetry.
   406 basis functions,   804 primitive gaussians,   434 cartesian basis functions
    61 alpha electrons       61 beta electrons
       nuclear repulsion energy      1107.9295790443 Hartrees.
 NAtoms=   22 NActive=   22 NUniq=   22 SFac= 1.00D+00 NAtFMM=   60 NAOKFM=F Big=F
 Integral buffers will be    131072 words long.
 Raffenetti 1 integral format.
 Two-electron integral symmetry is turned on.
 One-electron integrals computed using PRISM.
 NBasis=   406 RedAO= T EigKep=  4.02D-06  NBF=   406
 NBsUse=   406 1.00D-06 EigRej= -1.00D+00 NBFU=   406
 ExpMin= 2.97D-02 ExpMax= 1.11D+05 ExpMxC= 1.07D+03 IAcc=3 IRadAn=         5 AccDes= 0.00D+00
 Harris functional with IExCor=  205 and IRadAn=       5 diagonalized for initial guess.
 HarFok:  IExCor=  205 AccDes= 0.00D+00 IRadAn=         5 IDoV= 1 UseB2=F ITyADJ=14
 ICtDFT=  3500011 ScaDFX=  1.000000  1.000000  1.000000  1.000000
 FoFCou: FMM=F IPFlag=           0 FMFlag=      100000 FMFlg1=           0
         NFxFlg=           0 DoJE=T BraDBF=F KetDBF=T FulRan=T
         wScrn=  0.000000 ICntrl=       500 IOpCl=  0 I1Cent=   200000004 NGrid=           0
         NMat0=    1 NMatS0=      1 NMatT0=    0 NMatD0=    1 NMtDS0=    0 NMtDT0=    0
 Petite list used in FoFCou.
 Requested convergence on RMS density matrix=1.00D-08 within 128 cycles.
 Requested convergence on MAX density matrix=1.00D-06.
 Requested convergence on             energy=1.00D-06.
 No special actions if energy rises.
 SCF Done:  E(RHF) =  -1613.75355022     A.U. after   18 cycles
            NFock= 18  Conv=0.10D-07     -V/T= 2.0009

 **********************************************************************

            Population analysis using the SCF Density.

 **********************************************************************

 Orbital symmetries:
       Occupied  (A) (A) (A) (A) (A) (A) (A) (A) (A) (A) (A) (A)
                 (A) (A) (A) (A) (A) (A) (A) (A) (A) (A) (A) (A)
                 (A) (A) (A) (A) (A) (A) (A) (A) (A) (A) (A) (A)
                 (A) (A) (A) (A) (A) (A) (A) (A) (A) (A) (A) (A)
                 (A) (A) (A) (A) (A) (A) (A) (A) (A) (A) (A) (A)
                 (A)
       Virtual   (A) (A) (A) (A) (A) (A) (A) (A) (A) (A) (A) (A)
                 (A) (A) (A) (A) (A) (A) (A) (A) (A) (A) (A) (A)
                 (A) (A) (A) (A) (A) (A) (A) (A) (A) (A) (A) (A)
                 (A) (A) (A) (A) (A) (A) (A) (A) (A) (A) (A) (A)
                 (A) (A) (A) (A) (A) (A) (A) (A) (A) (A) (A) (A)
                 (A) (A) (A) (A) (A) (A) (A) (A) (A) (A) (A) (A)
                 (A) (A) (A) (A) (A) (A) (A) (A) (A) (A) (A) (A)
                 (A) (A) (A) (A) (A) (A) (A) (A) (A) (A) (A) (A)
                 (A) (A) (A) (A) (A) (A) (A) (A) (A) (A) (A) (A)
                 (A) (A) (A) (A) (A) (A) (A) (A) (A) (A) (A) (A)
                 (A) (A) (A) (A) (A) (A) (A) (A) (A) (A) (A) (A)
                 (A) (A) (A) (A) (A) (A) (A) (A) (A) (A) (A) (A)
                 (A) (A) (A) (A) (A) (A) (A) (A) (A) (A) (A) (A)
                 (A) (A) (A) (A) (A) (A) (A) (A) (A) (A) (A) (A)
                 (A) (A) (A) (A) (A) (A) (A) (A) (A) (A) (A) (A)
                 (A) (A) (A) (A) (A) (A) (A) (A) (A) (A) (A) (A)
                 (A) (A) (A) (A) (A) (A) (A) (A) (A) (A) (A) (A)
                 (A) (A) (A) (A) (A) (A) (A) (A) (A) (A) (A) (A)
                 (A) (A) (A) (A) (A) (A) (A) (A) (A) (A) (A) (A)
                 (A) (A) (A) (A) (A) (A) (A) (A) (A) (A) (A) (A)
                 (A) (A) (A) (A) (A) (A) (A) (A) (A) (A) (A) (A)
                 (A) (A) (A) (A) (A) (A) (A) (A) (A) (A) (A) (A)
                 (A) (A) (A) (A) (A) (A) (A) (A) (A) (A) (A) (A)
                 (A) (A) (A) (A) (A) (A) (A) (A) (A) (A) (A) (A)
                 (A) (A) (A) (A) (A) (A) (A) (A) (A) (A) (A) (A)
                 (A) (A) (A) (A) (A) (A) (A) (A) (A) (A) (A) (A)
                 (A) (A) (A) (A) (A) (A) (A) (A) (A) (A) (A) (A)
                 (A) (A) (A) (A) (A) (A) (A) (A) (A) (A) (A) (A)
                 (A) (A) (A) (A) (A) (A) (A) (A) (A)
 The electronic state is 1-A.
 Alpha  occ. eigenvalues --  -91.99929 -91.99823 -91.99781 -11.31208 -11.29827
 Alpha  occ. eigenvalues --  -11.29096 -11.28999 -11.28679 -11.28289 -11.27625
 Alpha  occ. eigenvalues --  -11.27171 -11.27094 -11.25943 -11.24211  -8.99987
 Alpha  occ. eigenvalues --   -8.99896  -8.99782  -6.68153  -6.68064  -6.68064
 Alpha  occ. eigenvalues --   -6.67971  -6.67946  -6.67875  -6.67850  -6.67778
 Alpha  occ. eigenvalues --   -6.67682  -1.19777  -1.16360  -1.10405  -1.04202
 Alpha  occ. eigenvalues --   -1.03069  -1.00700  -0.94573  -0.93631  -0.91074
 Alpha  occ. eigenvalues --   -0.82167  -0.77615  -0.76420  -0.71124  -0.69977
 Alpha  occ. eigenvalues --   -0.66571  -0.65799  -0.60380  -0.59296  -0.58828
 Alpha  occ. eigenvalues --   -0.56496  -0.55414  -0.54463  -0.53919  -0.52241
 Alpha  occ. eigenvalues --   -0.51521  -0.50880  -0.49956  -0.47209  -0.45798
 Alpha  occ. eigenvalues --   -0.45710  -0.39525  -0.34525  -0.34341  -0.31936
 Alpha  occ. eigenvalues --   -0.25166
 Alpha virt. eigenvalues --    0.03329   0.03530   0.03844   0.04016   0.04828
 Alpha virt. eigenvalues --    0.05021   0.05983   0.06100   0.07405   0.08367
 Alpha virt. eigenvalues --    0.09037   0.09722   0.10098   0.10361   0.10749
 Alpha virt. eigenvalues --    0.11496   0.12142   0.12347   0.12553   0.12843
 Alpha virt. eigenvalues --    0.13248   0.13694   0.14059   0.14276   0.14739
 Alpha virt. eigenvalues --    0.15042   0.15276   0.15479   0.15823   0.16647
 Alpha virt. eigenvalues --    0.17011   0.17406   0.17743   0.17864   0.18051
 Alpha virt. eigenvalues --    0.18460   0.18773   0.19066   0.19474   0.19732
 Alpha virt. eigenvalues --    0.20297   0.20726   0.20998   0.21233   0.21928
 Alpha virt. eigenvalues --    0.22146   0.22314   0.23537   0.23747   0.24070
 Alpha virt. eigenvalues --    0.24819   0.25106   0.25478   0.26131   0.26424
 Alpha virt. eigenvalues --    0.26942   0.27382   0.27718   0.27990   0.28568
 Alpha virt. eigenvalues --    0.29258   0.29468   0.30641   0.31520   0.31702
 Alpha virt. eigenvalues --    0.32073   0.32332   0.32958   0.33295   0.33917
 Alpha virt. eigenvalues --    0.34521   0.34611   0.35740   0.35773   0.36730
 Alpha virt. eigenvalues --    0.37125   0.37673   0.38231   0.38775   0.39421
 Alpha virt. eigenvalues --    0.40000   0.40377   0.40812   0.41399   0.41857
 Alpha virt. eigenvalues --    0.42618   0.43464   0.43573   0.44018   0.44240
 Alpha virt. eigenvalues --    0.45171   0.45622   0.45879   0.46904   0.47302
 Alpha virt. eigenvalues --    0.47934   0.48735   0.48924   0.49140   0.49958
 Alpha virt. eigenvalues --    0.50779   0.51238   0.51811   0.52924   0.53746
 Alpha virt. eigenvalues --    0.54406   0.54822   0.55887   0.56478   0.57223
 Alpha virt. eigenvalues --    0.58226   0.59010   0.59636   0.59869   0.60444
 Alpha virt. eigenvalues --    0.61642   0.61941   0.62387   0.62461   0.63225
 Alpha virt. eigenvalues --    0.63820   0.64449   0.65155   0.65671   0.65894
 Alpha virt. eigenvalues --    0.66393   0.66849   0.67358   0.67855   0.68321
 Alpha virt. eigenvalues --    0.68680   0.68978   0.69224   0.70391   0.70967
 Alpha virt. eigenvalues --    0.71277   0.71999   0.72466   0.72757   0.73823
 Alpha virt. eigenvalues --    0.74187   0.74391   0.75296   0.76221   0.76486
 Alpha virt. eigenvalues --    0.77027   0.77301   0.77963   0.79287   0.79751
 Alpha virt. eigenvalues --    0.80457   0.80482   0.81640   0.82225   0.82889
 Alpha virt. eigenvalues --    0.83597   0.83778   0.84641   0.85249   0.86542
 Alpha virt. eigenvalues --    0.87048   0.88050   0.88647   0.88759   0.89689
 Alpha virt. eigenvalues --    0.90369   0.91286   0.92258   0.92814   0.93289
 Alpha virt. eigenvalues --    0.94376   0.94906   0.95258   0.95695   0.96451
 Alpha virt. eigenvalues --    0.97176   0.97702   0.98906   0.99599   1.00331
 Alpha virt. eigenvalues --    1.01333   1.01774   1.02288   1.02755   1.03443
 Alpha virt. eigenvalues --    1.05670   1.05741   1.07052   1.08365   1.09674
 Alpha virt. eigenvalues --    1.10107   1.10979   1.12100   1.13400   1.15545
 Alpha virt. eigenvalues --    1.16589   1.16995   1.17786   1.18671   1.20055
 Alpha virt. eigenvalues --    1.20409   1.21743   1.23074   1.23651   1.24429
 Alpha virt. eigenvalues --    1.25877   1.26584   1.27181   1.27885   1.28670
 Alpha virt. eigenvalues --    1.29342   1.30050   1.30323   1.30770   1.32391
 Alpha virt. eigenvalues --    1.32748   1.33969   1.35749   1.37151   1.38571
 Alpha virt. eigenvalues --    1.39298   1.40280   1.41499   1.43200   1.43940
 Alpha virt. eigenvalues --    1.45666   1.47526   1.48551   1.52200   1.52412
 Alpha virt. eigenvalues --    1.53130   1.55082   1.55909   1.56282   1.57782
 Alpha virt. eigenvalues --    1.58445   1.60126   1.61603   1.62468   1.62954
 Alpha virt. eigenvalues --    1.64700   1.65135   1.65946   1.66788   1.67847
 Alpha virt. eigenvalues --    1.67993   1.69498   1.70377   1.71842   1.73234
 Alpha virt. eigenvalues --    1.73476   1.74674   1.76099   1.76682   1.78054
 Alpha virt. eigenvalues --    1.79352   1.79597   1.80425   1.81035   1.82265
 Alpha virt. eigenvalues --    1.82917   1.83960   1.85770   1.86556   1.86955
 Alpha virt. eigenvalues --    1.89019   1.91385   1.92325   1.93237   1.94144
 Alpha virt. eigenvalues --    1.95091   1.96422   1.97415   1.98262   1.99259
 Alpha virt. eigenvalues --    2.00963   2.02130   2.04880   2.06982   2.07887
 Alpha virt. eigenvalues --    2.08939   2.09492   2.10936   2.12479   2.13312
 Alpha virt. eigenvalues --    2.14070   2.16046   2.16979   2.18148   2.18661
 Alpha virt. eigenvalues --    2.19714   2.19977   2.21506   2.24156   2.25453
 Alpha virt. eigenvalues --    2.25648   2.27037   2.29172   2.30173   2.30997
 Alpha virt. eigenvalues --    2.33275   2.34219   2.36394   2.37302   2.39011
 Alpha virt. eigenvalues --    2.40194   2.41549   2.42585   2.44443   2.46338
 Alpha virt. eigenvalues --    2.47887   2.50807   2.51101   2.52258   2.53151
 Alpha virt. eigenvalues --    2.54536   2.56599   2.61020   2.63076   2.67842
 Alpha virt. eigenvalues --    2.70853   2.72042   2.75283   2.76761   2.81338
 Alpha virt. eigenvalues --    2.82321   2.84978   2.86294   2.89745   2.95705
 Alpha virt. eigenvalues --    2.96588   3.00283   3.00499   3.04901   3.13307
 Alpha virt. eigenvalues --    3.14227   3.21104   3.29616   3.30519   3.34506
 Alpha virt. eigenvalues --    3.55867   3.69575   3.75025   4.02926   4.16080
          Condensed to atoms (all electrons):
               1          2          3          4          5          6
     1  C    9.828040  -1.580757  -0.593427  -1.154369   0.223158  -0.490054
     2  C   -1.580757  10.378988  -1.685928   0.406068   0.065027   0.341374
     3  C   -0.593427  -1.685928  13.798753  -0.625098  -1.212929   0.101831
     4  C   -1.154369   0.406068  -0.625098   5.901562   0.037997   0.080290
     5  C    0.223158   0.065027  -1.212929   0.037997   6.797192  -0.083680
     6  H   -0.490054   0.341374   0.101831   0.080290  -0.083680   1.736351
     7  S   -0.533330  -0.108394  -0.149829   0.082719   0.062840  -0.021176
     8  H    0.057845   0.060217  -0.030867   0.017968   0.180097  -0.073497
     9  C   -0.167131  -0.697861  -3.710071   0.025503   0.557321  -0.049184
    10  S   -0.120461   0.123806  -0.437945   0.053384   0.082647   0.006406
    11  C   -0.023632  -0.043957   0.076466   0.000049   0.027760   0.001713
    12  C   -0.011248  -0.012047   0.162841   0.026948  -0.083588  -0.002822
    13  C   -0.006685  -0.809996   0.113090  -0.004349  -0.351983   0.003747
    14  H   -0.008920   0.067781  -0.022483   0.006844   0.009243  -0.000394
    15  S   -0.001048  -0.005884  -0.002400   0.002382  -0.000070  -0.000055
    16  C   -0.001343  -0.008287   0.024899  -0.001712  -0.000627  -0.000003
    17  C    0.005056   0.048515  -0.145612  -0.030229   0.003516   0.000284
    18  H   -0.000041  -0.000119   0.000512  -0.000097  -0.000053  -0.000001
    19  H    0.000242   0.001291   0.001412  -0.000188   0.000617   0.000020
    20  H    0.077287  -0.048645   0.033728   0.043248   0.032948  -0.032753
    21  H    0.009434   0.007264  -0.002628   0.244334  -0.011179   0.007520
    22  H   -0.008222   0.025774  -0.081209   0.312660  -0.009737   0.006066
               7          8          9         10         11         12
     1  C   -0.533330   0.057845  -0.167131  -0.120461  -0.023632  -0.011248
     2  C   -0.108394   0.060217  -0.697861   0.123806  -0.043957  -0.012047
     3  C   -0.149829  -0.030867  -3.710071  -0.437945   0.076466   0.162841
     4  C    0.082719   0.017968   0.025503   0.053384   0.000049   0.026948
     5  C    0.062840   0.180097   0.557321   0.082647   0.027760  -0.083588
     6  H   -0.021176  -0.073497  -0.049184   0.006406   0.001713  -0.002822
     7  S   16.323155  -0.126345  -0.074678   0.077747   0.022219  -0.154998
     8  H   -0.126345   1.274156   0.012492   0.001880   0.000212   0.000337
     9  C   -0.074678   0.012492  13.267664   0.488814  -0.537963  -0.856723
    10  S    0.077747   0.001880   0.488814  16.613278  -0.239437  -0.248794
    11  C    0.022219   0.000212  -0.537963  -0.239437   8.209262   0.125948
    12  C   -0.154998   0.000337  -0.856723  -0.248794   0.125948   9.744282
    13  C   -0.010373  -0.004061  -2.817550  -0.888014  -0.273807  -2.067401
    14  H    0.021062   0.001980   0.793573   0.042268  -0.093072  -0.027001
    15  S   -0.000375  -0.000084  -0.148306  -0.011037   0.039823   0.032091
    16  C   -0.000919  -0.000052   0.049210  -0.149730   0.121767  -0.335939
    17  C    0.006678   0.000195  -0.082500   0.037841  -1.027009   0.190967
    18  H   -0.000121  -0.000002  -0.000455   0.000361   0.011000  -0.022971
    19  H    0.000539   0.000018   0.028218  -0.003136   0.204881  -0.026417
    20  H   -0.008972   0.000921  -0.010709  -0.029096  -0.008274   0.000196
    21  H    0.009921   0.000600  -0.011937   0.021555   0.011026   0.001390
    22  H    0.006633   0.000770   0.015834   0.031728   0.014811   0.002693
              13         14         15         16         17         18
     1  C   -0.006685  -0.008920  -0.001048  -0.001343   0.005056  -0.000041
     2  C   -0.809996   0.067781  -0.005884  -0.008287   0.048515  -0.000119
     3  C    0.113090  -0.022483  -0.002400   0.024899  -0.145612   0.000512
     4  C   -0.004349   0.006844   0.002382  -0.001712  -0.030229  -0.000097
     5  C   -0.351983   0.009243  -0.000070  -0.000627   0.003516  -0.000053
     6  H    0.003747  -0.000394  -0.000055  -0.000003   0.000284  -0.000001
     7  S   -0.010373   0.021062  -0.000375  -0.000919   0.006678  -0.000121
     8  H   -0.004061   0.001980  -0.000084  -0.000052   0.000195  -0.000002
     9  C   -2.817550   0.793573  -0.148306   0.049210  -0.082500  -0.000455
    10  S   -0.888014   0.042268  -0.011037  -0.149730   0.037841   0.000361
    11  C   -0.273807  -0.093072   0.039823   0.121767  -1.027009   0.011000
    12  C   -2.067401  -0.027001   0.032091  -0.335939   0.190967  -0.022971
    13  C   13.656491  -0.940009   0.035940  -0.087321   0.072843   0.028491
    14  H   -0.940009   1.739701  -0.079631  -0.000241  -0.003521   0.001230
    15  S    0.035940  -0.079631  15.753589   0.192810  -0.314517  -0.122325
    16  C   -0.087321  -0.000241   0.192810   5.877381   0.185538   0.229567
    17  C    0.072843  -0.003521  -0.314517   0.185538   6.690228   0.029220
    18  H    0.028491   0.001230  -0.122325   0.229567   0.029220   1.256586
    19  H   -0.014845   0.000172   0.007918  -0.057613  -0.127212  -0.058619
    20  H    0.021100   0.000092   0.000245  -0.000258  -0.000138   0.000002
    21  H   -0.022778   0.001396  -0.000328   0.000132   0.001092  -0.000032
    22  H   -0.036581   0.000755  -0.000288   0.001515  -0.004867   0.000015
              19         20         21         22
     1  C    0.000242   0.077287   0.009434  -0.008222
     2  C    0.001291  -0.048645   0.007264   0.025774
     3  C    0.001412   0.033728  -0.002628  -0.081209
     4  C   -0.000188   0.043248   0.244334   0.312660
     5  C    0.000617   0.032948  -0.011179  -0.009737
     6  H    0.000020  -0.032753   0.007520   0.006066
     7  S    0.000539  -0.008972   0.009921   0.006633
     8  H    0.000018   0.000921   0.000600   0.000770
     9  C    0.028218  -0.010709  -0.011937   0.015834
    10  S   -0.003136  -0.029096   0.021555   0.031728
    11  C    0.204881  -0.008274   0.011026   0.014811
    12  C   -0.026417   0.000196   0.001390   0.002693
    13  C   -0.014845   0.021100  -0.022778  -0.036581
    14  H    0.000172   0.000092   0.001396   0.000755
    15  S    0.007918   0.000245  -0.000328  -0.000288
    16  C   -0.057613  -0.000258   0.000132   0.001515
    17  C   -0.127212  -0.000138   0.001092  -0.004867
    18  H   -0.058619   0.000002  -0.000032   0.000015
    19  H    1.374767   0.000270   0.000494  -0.000282
    20  H    0.000270   1.490454  -0.157026  -0.160341
    21  H    0.000494  -0.157026   0.853676  -0.108631
    22  H   -0.000282  -0.160341  -0.108631   0.840183
 Mulliken charges:
               1
     1  C    0.499603
     2  C   -0.524228
     3  C    0.386895
     4  C    0.574084
     5  C   -0.326516
     6  H   -0.531985
     7  S    0.575995
     8  H   -0.374781
     9  C   -0.073561
    10  S    0.545936
    11  C   -0.619784
    12  C   -0.437747
    13  C    0.404052
    14  H   -0.510822
    15  S    0.621551
    16  C   -0.038774
    17  C    0.463631
    18  H   -0.352148
    19  H   -0.332548
    20  H   -0.244279
    21  H    0.144705
    22  H    0.150721
 Sum of Mulliken charges =  -0.00000
 Mulliken charges with hydrogens summed into heavy atoms:
               1
     1  C   -0.032381
     2  C   -0.524228
     3  C    0.386895
     4  C    0.625231
     5  C   -0.701297
     7  S    0.575995
     9  C   -0.073561
    10  S    0.545936
    11  C   -0.619784
    12  C   -0.437747
    13  C   -0.106771
    15  S    0.621551
    16  C   -0.390922
    17  C    0.131083
 Electronic spatial extent (au):  <R**2>=           4442.7210
 Charge=              0.0000 electrons
 Dipole moment (field-independent basis, Debye):
    X=             -1.1719    Y=              1.2057    Z=              1.3099  Tot=              2.1314
 Quadrupole moment (field-independent basis, Debye-Ang):
   XX=            -88.7357   YY=            -97.9767   ZZ=           -112.4220
   XY=              1.3523   XZ=              3.5357   YZ=              1.0852
 Traceless Quadrupole moment (field-independent basis, Debye-Ang):
   XX=             10.9757   YY=              1.7348   ZZ=            -12.7105
   XY=              1.3523   XZ=              3.5357   YZ=              1.0852
 Octapole moment (field-independent basis, Debye-Ang**2):
  XXX=            -33.4354  YYY=              4.3290  ZZZ=              3.0774  XYY=             -9.4979
  XXY=             14.0928  XXZ=             32.1379  XZZ=              3.5882  YZZ=              2.7574
  YYZ=              4.3880  XYZ=              0.3611
 Hexadecapole moment (field-independent basis, Debye-Ang**3):
 XXXX=          -4351.8190 YYYY=          -1182.9245 ZZZZ=           -194.0398 XXXY=             76.4300
 XXXZ=            114.9249 YYYX=             19.2589 YYYZ=              4.3056 ZZZX=             11.7386
 ZZZY=              1.4202 XXYY=           -942.3507 XXZZ=           -923.4389 YYZZ=           -246.2149
 XXYZ=             16.3965 YYXZ=              7.0345 ZZXY=            -10.9561
 N-N= 1.107929579044D+03 E-N=-6.034218137940D+03  KE= 1.612247738017D+03
 Calling FoFJK, ICntrl=      2127 FMM=F ISym2X=0 I1Cent= 0 IOpClX= 0 NMat=1 NMatS=1 NMatT=0.
 ***** Axes restored to original set *****
 -------------------------------------------------------------------
 Center     Atomic                   Forces (Hartrees/Bohr)
 Number     Number              X              Y              Z
 -------------------------------------------------------------------
      1        6           0.017753853   -0.078048395    0.012844138
      2        6           0.027667766   -0.060293449    0.005673831
      3        6          -0.061301170    0.024148633    0.007245865
      4        6           0.008845298    0.013408274    0.000643710
      5        6           0.011719070    0.067393589   -0.017544489
      6        1           0.001251019    0.000418971   -0.000469451
      7       16          -0.005899499    0.030400576   -0.006166257
      8        1           0.004999654   -0.003182732    0.000421565
      9        6           0.057657615   -0.042972680    0.004599870
     10       16          -0.011958430   -0.019614199   -0.002201282
     11        6           0.007852488   -0.045455846    0.031060616
     12        6          -0.019717809    0.054108384    0.000349127
     13        6          -0.039361017    0.061421402   -0.012370002
     14        1          -0.004655794   -0.000076344   -0.004782129
     15       16           0.010295212    0.015867346   -0.015030618
     16        6          -0.052968824    0.051903881   -0.023359918
     17        6           0.044113142   -0.051870373    0.039470319
     18        1          -0.000631725   -0.006760688   -0.005847824
     19        1           0.002925613   -0.007883095   -0.008646200
     20        1           0.000959080   -0.004273240    0.000151772
     21        1           0.002564679    0.002439043    0.000075790
     22        1          -0.002110219   -0.001079060   -0.006118432
 -------------------------------------------------------------------
 Cartesian Forces:  Max     0.078048395 RMS     0.028191856

 GradGradGradGradGradGradGradGradGradGradGradGradGradGradGradGradGradGrad
 Berny optimization.
 FormGI is forming the generalized inverse of G from B-inverse, IUseBI=4.
 Internal  Forces:  Max     0.083292163 RMS     0.016679692
 Search for a local minimum.
 Step number   1 out of a maximum of  127
 All quantities printed in internal units (Hartrees-Bohrs-Radians)
 Mixed Optimization -- RFO/linear search
 Second derivative matrix not updated -- first step.
 ITU=  0
     Eigenvalues ---    0.00935   0.00982   0.01057   0.01215   0.01241
     Eigenvalues ---    0.01276   0.01298   0.01418   0.01457   0.01493
     Eigenvalues ---    0.01498   0.01592   0.01596   0.01770   0.02198
     Eigenvalues ---    0.02650   0.07307   0.07353   0.15072   0.15682
     Eigenvalues ---    0.15739   0.15997   0.16000   0.16000   0.16000
     Eigenvalues ---    0.16000   0.18002   0.22444   0.22545   0.23321
     Eigenvalues ---    0.23980   0.24718   0.24979   0.24995   0.25000
     Eigenvalues ---    0.26147   0.26559   0.28453   0.30920   0.31271
     Eigenvalues ---    0.31610   0.33757   0.33818   0.34533   0.34829
     Eigenvalues ---    0.34935   0.35214   0.35865   0.35877   0.36006
     Eigenvalues ---    0.36088   0.36185   0.36311   0.37598   0.38223
     Eigenvalues ---    0.38438   0.39458   0.39684   0.406701000.00000
     Eigenvalues --- 1000.000001000.000001000.000001000.000001000.00000
     Eigenvalues --- 1000.000001000.000001000.000001000.000001000.00000
     Eigenvalues --- 1000.000001000.000001000.000001000.000001000.00000
     Eigenvalues --- 1000.000001000.000001000.000001000.000001000.00000
     Eigenvalues --- 1000.000001000.000001000.000001000.000001000.00000
     Eigenvalues --- 1000.000001000.000001000.000001000.000001000.00000
     Eigenvalues --- 1000.000001000.000001000.000001000.000001000.00000
     Eigenvalues --- 1000.000001000.000001000.000001000.000001000.00000
     Eigenvalues --- 1000.000001000.000001000.000001000.000001000.00000
     Eigenvalues --- 1000.000001000.000001000.000001000.000001000.00000
     Eigenvalues --- 1000.000001000.000001000.000001000.000001000.00000
     Eigenvalues --- 1000.000001000.00000
 RFO step:  Lambda=-7.89094987D-02 EMin= 9.35106172D-03
 Linear search not attempted -- first point.
 Maximum step size (   0.300) exceeded in Quadratic search.
    -- Step size scaled by   0.733
 Iteration  1 RMS(Cart)=  0.06268996 RMS(Int)=  0.00131282
 Iteration  2 RMS(Cart)=  0.00203773 RMS(Int)=  0.00038494
 Iteration  3 RMS(Cart)=  0.00000206 RMS(Int)=  0.00038494
 Iteration  4 RMS(Cart)=  0.00000000 RMS(Int)=  0.00038494
 Iteration  1 RMS(Cart)=  0.00000726 RMS(Int)=  0.00000326
 Iteration  2 RMS(Cart)=  0.00000395 RMS(Int)=  0.00000365
 Iteration  3 RMS(Cart)=  0.00000215 RMS(Int)=  0.00000412
 Iteration  4 RMS(Cart)=  0.00000117 RMS(Int)=  0.00000443
 Iteration  5 RMS(Cart)=  0.00000064 RMS(Int)=  0.00000461
 Variable       Old X    -DE/DX   Delta X   Delta X   Delta X     New X
                                 (Linear)    (Quad)   (Total)
    R1        2.71917  -0.01265   0.00000  -0.02139  -0.02132   2.69785
    R2        2.71391  -0.07334   0.00000  -0.11331  -0.11334   2.60058
    R3        2.03793  -0.00076   0.00000  -0.00126  -0.00126   2.03666
    R4        2.75906  -0.07624   0.00000  -0.12492  -0.12483   2.63423
    R5        2.81042   0.01312   0.00000   0.02310   0.02310   2.83353
    R6        3.39578  -0.02821   0.00000  -0.05790  -0.05791   3.33787
    R7        2.74954  -0.00751   0.00000  -0.01210  -0.01210   2.73743
    R8        2.06439  -0.00319   0.00000  -0.00551  -0.00551   2.05888
    R9        2.05781   0.00086   0.00000   0.00147   0.00147   2.05928
   R10        2.07638  -0.00553   0.00000  -0.00972  -0.00972   2.06665
   R11        3.28671  -0.02242   0.00000  -0.04054  -0.04064   3.24607
   R12        2.04073  -0.00254   0.00000  -0.00425  -0.00425   2.03648
   R13        3.38300  -0.01833   0.00000  -0.03496  -0.03539   3.34760
   R14        2.76719  -0.08329   0.00000  -0.13766  -0.13784   2.62935
   R15        3.26850  -0.00393   0.00000  -0.00605  -0.00604   3.26247
   R16        2.72300  -0.05536   0.00000  -0.08920  -0.08842   2.63458
   R17        2.69417   0.00204   0.00000   0.00079   0.00116   2.69533
   R18        2.70748  -0.00999   0.00000  -0.01759  -0.01730   2.69019
   R19        3.27465  -0.00333   0.00000  -0.00454  -0.00463   3.27002
   R20        2.03945  -0.00131   0.00000  -0.00218  -0.00218   2.03726
   R21        3.33407  -0.01719   0.00000  -0.03148  -0.03192   3.30215
   R22        2.73190  -0.08085   0.00000  -0.12736  -0.12745   2.60445
   R23        2.04292  -0.00344   0.00000  -0.00577  -0.00577   2.03715
   R24        2.05329  -0.00647   0.00000  -0.01101  -0.01101   2.04228
    A1        1.97020   0.00890   0.00000   0.01638   0.01642   1.98662
    A2        2.17330  -0.00565   0.00000  -0.01186  -0.01189   2.16141
    A3        2.13967  -0.00325   0.00000  -0.00451  -0.00453   2.13514
    A4        1.97187  -0.00246   0.00000  -0.00893  -0.00877   1.96310
    A5        2.09905   0.00915   0.00000   0.02213   0.02205   2.12110
    A6        2.21227  -0.00670   0.00000  -0.01320  -0.01328   2.19898
    A7        1.90440   0.00493   0.00000   0.01277   0.01285   1.91725
    A8        2.31891  -0.00932   0.00000  -0.02172  -0.02176   2.29715
    A9        2.05972   0.00439   0.00000   0.00888   0.00883   2.06855
   A10        1.94548  -0.00498   0.00000  -0.01490  -0.01486   1.93062
   A11        1.93409   0.00364   0.00000   0.01084   0.01084   1.94494
   A12        1.93331   0.00299   0.00000   0.00912   0.00912   1.94244
   A13        1.87410   0.00076   0.00000   0.00246   0.00250   1.87660
   A14        1.86607   0.00149   0.00000   0.00523   0.00527   1.87134
   A15        1.90848  -0.00411   0.00000  -0.01338  -0.01341   1.89507
   A16        1.95339  -0.00352   0.00000  -0.00966  -0.00978   1.94361
   A17        2.17580   0.00716   0.00000   0.02141   0.02148   2.19728
   A18        2.15384  -0.00364   0.00000  -0.01175  -0.01169   2.14216
   A19        1.62490  -0.00785   0.00000  -0.01055  -0.01075   1.61415
   A20        2.12917   0.00091   0.00000   0.00206   0.00204   2.13122
   A21        2.24026  -0.00623   0.00000  -0.01390  -0.01392   2.22634
   A22        1.91307   0.00541   0.00000   0.01232   0.01228   1.92536
   A23        1.61942  -0.00615   0.00000  -0.00952  -0.00944   1.60998
   A24        1.96144  -0.01230   0.00000  -0.02374  -0.02437   1.93707
   A25        2.23892   0.00894   0.00000   0.03438   0.03306   2.27198
   A26        1.96558   0.00750   0.00000   0.01597   0.01628   1.98185
   A27        1.96647   0.00943   0.00000   0.01928   0.01938   1.98585
   A28        1.96623  -0.01473   0.00000  -0.02817  -0.02878   1.93745
   A29        2.23751   0.00951   0.00000   0.03571   0.03445   2.27196
   A30        1.96367   0.00364   0.00000   0.00178   0.00226   1.96592
   A31        2.16135  -0.00495   0.00000  -0.00887  -0.00939   2.15196
   A32        2.14615   0.00199   0.00000   0.01240   0.01186   2.15801
   A33        1.59338   0.00076   0.00000   0.00430   0.00440   1.59777
   A34        1.96007  -0.00006   0.00000  -0.00130  -0.00149   1.95858
   A35        2.13643  -0.00346   0.00000  -0.00756  -0.00816   2.12827
   A36        2.16974   0.00478   0.00000   0.01824   0.01773   2.18747
   A37        1.93923   0.00653   0.00000   0.00915   0.00952   1.94874
   A38        2.16548  -0.00010   0.00000   0.01036   0.00925   2.17473
   A39        2.14148  -0.00412   0.00000  -0.00271  -0.00386   2.13763
    D1        0.00683  -0.00032   0.00000  -0.00434  -0.00434   0.00250
    D2       -3.13456  -0.00007   0.00000  -0.00221  -0.00218  -3.13675
    D3       -3.13952  -0.00031   0.00000  -0.00341  -0.00344   3.14023
    D4        0.00227  -0.00006   0.00000  -0.00128  -0.00128   0.00099
    D5       -0.00671  -0.00017   0.00000  -0.00189  -0.00192  -0.00863
    D6       -3.13020  -0.00034   0.00000  -0.00223  -0.00228  -3.13247
    D7        3.13954  -0.00017   0.00000  -0.00278  -0.00278   3.13675
    D8        0.01605  -0.00035   0.00000  -0.00312  -0.00314   0.01291
    D9       -0.00388   0.00074   0.00000   0.00846   0.00847   0.00459
   D10        3.11762   0.00108   0.00000   0.00412   0.00411   3.12173
   D11        3.13750   0.00047   0.00000   0.00617   0.00620  -3.13948
   D12       -0.02418   0.00081   0.00000   0.00183   0.00185  -0.02234
   D13        0.03777  -0.00022   0.00000  -0.00129  -0.00130   0.03647
   D14       -2.04840  -0.00033   0.00000  -0.00180  -0.00178  -2.05018
   D15        2.11332   0.00038   0.00000   0.00160   0.00157   2.11489
   D16       -3.10360   0.00007   0.00000   0.00116   0.00116  -3.10244
   D17        1.09342  -0.00004   0.00000   0.00064   0.00068   1.09410
   D18       -1.02805   0.00066   0.00000   0.00404   0.00402  -1.02403
   D19        0.00006  -0.00065   0.00000  -0.00801  -0.00808  -0.00802
   D20       -3.12486  -0.00075   0.00000  -0.00399  -0.00395  -3.12881
   D21       -0.08728  -0.00209   0.00000   0.00000  -0.00000  -0.08728
   D22        3.01053   0.00093   0.00000   0.01608   0.01615   3.02668
   D23        3.03281  -0.00173   0.00000  -0.00465  -0.00467   3.02814
   D24       -0.15257   0.00128   0.00000   0.01143   0.01148  -0.14109
   D25        0.00376   0.00050   0.00000   0.00581   0.00574   0.00950
   D26        3.12751   0.00081   0.00000   0.00654   0.00648   3.13399
   D27        3.13742   0.00137   0.00000   0.00902   0.00913  -3.13663
   D28        0.03227  -0.00089   0.00000  -0.00379  -0.00396   0.02832
   D29       -3.13833  -0.00237   0.00000  -0.01338  -0.01319   3.13167
   D30       -0.15872   0.00253   0.00000   0.02339   0.02344  -0.13528
   D31       -0.03616   0.00028   0.00000   0.00097   0.00127  -0.03488
   D32        2.94345   0.00519   0.00000   0.03774   0.03790   2.98135
   D33       -0.02078   0.00170   0.00000   0.00656   0.00649  -0.01428
   D34       -2.61688  -0.00834   0.00000  -0.05234  -0.05249  -2.66937
   D35        0.00321  -0.00141   0.00000  -0.00648  -0.00630  -0.00309
   D36       -2.68869  -0.01194   0.00000  -0.06605  -0.06458  -2.75327
   D37        2.68784   0.00866   0.00000   0.05131   0.05035   2.73819
   D38       -0.00405  -0.00187   0.00000  -0.00827  -0.00793  -0.01198
   D39        2.61347   0.00670   0.00000   0.05629   0.05730   2.67077
   D40       -0.24506  -0.00137   0.00000  -0.00587  -0.00541  -0.25047
   D41        0.01841   0.00161   0.00000   0.00724   0.00709   0.02550
   D42       -2.84012  -0.00645   0.00000  -0.05492  -0.05562  -2.89574
   D43        0.02186   0.00083   0.00000   0.00358   0.00339   0.02526
   D44       -2.95938  -0.00327   0.00000  -0.03055  -0.03109  -2.99047
   D45        2.62774   0.00568   0.00000   0.05319   0.05423   2.68197
   D46       -0.35350   0.00158   0.00000   0.01906   0.01974  -0.33376
   D47       -0.00875   0.00158   0.00000   0.00587   0.00573  -0.00302
   D48       -2.61469  -0.00926   0.00000  -0.05549  -0.05542  -2.67011
   D49        0.01932  -0.00054   0.00000  -0.00155  -0.00159   0.01774
   D50        2.97188   0.00697   0.00000   0.05233   0.05189   3.02377
   D51       -0.02492  -0.00035   0.00000  -0.00267  -0.00241  -0.02733
   D52        2.83817   0.00832   0.00000   0.06094   0.06118   2.89935
   D53       -2.97323  -0.00696   0.00000  -0.05441  -0.05465  -3.02788
   D54       -0.11014   0.00171   0.00000   0.00919   0.00894  -0.10120
         Item               Value     Threshold  Converged?
 Maximum Force            0.083289     0.000450     NO 
 RMS     Force            0.016749     0.000300     NO 
 Maximum Displacement     0.230835     0.001800     NO 
 RMS     Displacement     0.062880     0.001200     NO 
 Predicted change in Energy=-4.161949D-02
 GradGradGradGradGradGradGradGradGradGradGradGradGradGradGradGradGradGrad

                          Input orientation:                          
 ---------------------------------------------------------------------
 Center     Atomic      Atomic             Coordinates (Angstroms)
 Number     Number       Type             X           Y           Z
 ---------------------------------------------------------------------
      1          6           0       -4.210190   -1.411224   -0.228037
      2          6           0       -2.896956   -0.999609   -0.607712
      3          6           0       -1.984182   -2.053124   -0.596664
      4          6           0       -2.594283    0.424844   -0.964971
      5          6           0       -4.307893   -2.750696    0.072130
      6          1           0       -5.055661   -0.745075   -0.173437
      7         16           0       -2.796852   -3.545786   -0.115595
      8          1           0       -5.204905   -3.267197    0.372039
      9          6           0       -0.574317   -2.108035   -0.924793
     10         16           0        0.295318   -0.710264   -1.579081
     11          6           0        1.777314   -1.590782   -1.673496
     12          6           0        1.614595   -2.893830   -1.205238
     13          6           0        0.292518   -3.184557   -0.764577
     14          1           0        0.020322   -4.092185   -0.250413
     15         16           0        3.129462   -3.569637   -0.712475
     16          6           0        3.977114   -2.103004   -1.141389
     17          6           0        3.126200   -1.130314   -1.620241
     18          1           0        5.022057   -1.961850   -0.917153
     19          1           0        3.426943   -0.097846   -1.727631
     20          1           0       -3.482368    1.045757   -0.851800
     21          1           0       -2.261172    0.514032   -1.998692
     22          1           0       -1.822063    0.842382   -0.312777
 ---------------------------------------------------------------------
                    Distance matrix (angstroms):
                    1          2          3          4          5
     1  C    0.000000
     2  C    1.427643   0.000000
     3  C    2.345854   1.393977   0.000000
     4  C    2.554481   1.499437   2.578410   0.000000
     5  C    1.376165   2.349305   2.516650   3.754476   0.000000
     6  H    1.077755   2.216617   3.365129   2.837890   2.154524
     7  S    2.562523   2.595229   1.766323   4.065511   1.717748
     8  H    2.189563   3.380606   3.575670   4.715306   1.077659
     9  C    3.767039   2.593029   1.448587   3.239962   3.917456
    10  S    4.755656   3.349312   2.822151   3.164710   5.299001
    11  C    6.162126   4.830547   3.939820   4.865760   6.436021
    12  C    6.089431   4.929422   3.745444   5.365257   6.060365
    13  C    4.868980   3.869282   2.547881   4.626181   4.695966
    14  H    5.008521   4.266403   2.880225   5.267855   4.542805
    15  S    7.665763   6.552383   5.335033   6.984331   7.523332
    16  C    8.267086   6.982487   5.986340   7.043038   8.398421
    17  C    7.472601   6.109068   5.292948   5.964212   7.794582
    18  H    9.274290   7.983260   7.014160   7.981681   9.415357
    19  H    7.893006   6.485299   5.863657   6.091800   8.372840
    20  H    2.637339   2.141450   3.451480   1.089511   3.993518
    21  H    3.261978   2.151780   2.938145   1.089723   4.374451
    22  H    3.284672   2.152978   2.913903   1.093626   4.386082
                    6          7          8          9         10
     6  H    0.000000
     7  S    3.598548   0.000000
     8  H    2.584747   2.472675   0.000000
     9  C    4.743905   2.767957   4.946491   0.000000
    10  S    5.532632   4.443365   6.371595   1.771475   0.000000
    11  C    7.046627   5.212685   7.466322   2.521563   1.726424
    12  C    7.083367   4.590559   7.009479   2.342533   2.578413
    13  C    5.907921   3.177399   5.614301   1.391392   2.604909
    14  H    6.080680   2.872837   5.326448   2.178356   3.643950
    15  S    8.675537   5.956343   8.410072   3.987398   4.118178
    16  C    9.185419   7.001463   9.378448   4.556585   3.960672
    17  C    8.317722   6.571226   8.828520   3.890169   2.862172
    18  H   10.178117   8.017898  10.390222   5.598289   4.934236
    19  H    8.648064   7.295380   9.431978   4.549230   3.194402
    20  H    2.478408   4.700446   4.802758   4.290511   4.228883
    21  H    3.567363   4.507231   5.346366   3.297571   2.865416
    22  H    3.604940   4.499457   5.366678   3.261348   2.915053
                   11         12         13         14         15
    11  C    0.000000
    12  C    1.394158   0.000000
    13  C    2.360270   1.423585   0.000000
    14  H    3.371825   2.211210   1.078074   0.000000
    15  S    2.582195   1.730419   2.863434   3.186426   0.000000
    16  C    2.320480   2.492183   3.858496   4.517398   1.747425
    17  C    1.426310   2.359484   3.603031   4.505062   2.602757
    18  H    3.352328   3.544345   4.887416   5.477246   2.491744
    19  H    2.225548   3.372688   4.503319   5.453621   3.629375
    20  H    5.940604   6.451690   5.670355   6.247315   8.064587
    21  H    4.565672   5.221558   4.660894   5.429450   6.884013
    22  H    4.552731   5.154259   4.570756   5.267658   6.644040
                   16         17         18         19         20
    16  C    0.000000
    17  C    1.378216   0.000000
    18  H    1.078014   2.186335   0.000000
    19  H    2.160329   1.080726   2.583751   0.000000
    20  H    8.102001   6.999925   9.020821   7.057867   0.000000
    21  H    6.819094   5.645429   7.768214   5.727349   1.757672
    22  H    6.556855   5.485098   7.420982   5.517056   1.757418
                   21         22
    21  H    0.000000
    22  H    1.772833   0.000000
 Stoichiometry    C11H8S3
 Framework group  C1[X(C11H8S3)]
 Deg. of freedom    60
 Full point group                 C1      NOp   1
 Largest Abelian subgroup         C1      NOp   1
 Largest concise Abelian subgroup C1      NOp   1
                         Standard orientation:                         
 ---------------------------------------------------------------------
 Center     Atomic      Atomic             Coordinates (Angstroms)
 Number     Number       Type             X           Y           Z
 ---------------------------------------------------------------------
      1          6           0       -4.015695    0.304566    0.193005
      2          6           0       -2.700009    0.855914    0.136880
      3          6           0       -1.718279   -0.122167   -0.013903
      4          6           0       -2.463921    2.333201    0.237859
      5          6           0       -4.048294   -1.067433    0.091097
      6          1           0       -4.909654    0.895465    0.308040
      7         16           0       -2.469297   -1.719062   -0.090024
      8          1           0       -4.934175   -1.680977    0.102454
      9          6           0       -0.277960   -0.028670   -0.136960
     10         16           0        0.558836    1.529068   -0.243495
     11          6           0        2.103694    0.767861   -0.363989
     12          6           0        1.982487   -0.619788   -0.305547
     13          6           0        0.640996   -1.073179   -0.159146
     14          1           0        0.375409   -2.099428    0.037116
     15         16           0        3.468965   -1.351870    0.193240
     16          6           0        4.249884    0.206468    0.316696
     17          6           0        3.395433    1.243368    0.009724
     18          1           0        5.243606    0.316066    0.719956
     19          1           0        3.627588    2.273754    0.238587
     20          1           0       -3.404060    2.862446    0.389759
     21          1           0       -2.008934    2.726832   -0.670733
     22          1           0       -1.815837    2.574824    1.084985
 ---------------------------------------------------------------------
 Rotational constants (GHZ):           1.2369120           0.2875876           0.2358807
 Standard basis: Aug-CC-pVDZ (5D, 7F)
 There are   434 symmetry adapted cartesian basis functions of A   symmetry.
 There are   406 symmetry adapted basis functions of A   symmetry.
   406 basis functions,   804 primitive gaussians,   434 cartesian basis functions
    61 alpha electrons       61 beta electrons
       nuclear repulsion energy      1124.9219719350 Hartrees.
 NAtoms=   22 NActive=   22 NUniq=   22 SFac= 1.00D+00 NAtFMM=   60 NAOKFM=F Big=F
 Integral buffers will be    131072 words long.
 Raffenetti 1 integral format.
 Two-electron integral symmetry is turned on.
 One-electron integrals computed using PRISM.
 NBasis=   406 RedAO= T EigKep=  2.97D-06  NBF=   406
 NBsUse=   406 1.00D-06 EigRej= -1.00D+00 NBFU=   406
 Initial guess from the checkpoint file:  "/tmp/pbs.4762177[170].pbs/Gau-3432658.chk"
 B after Tr=    -0.000000   -0.000000    0.000000
         Rot=    0.999991   -0.000366   -0.000587    0.004113 Ang=  -0.48 deg.
 ExpMin= 2.97D-02 ExpMax= 1.11D+05 ExpMxC= 1.07D+03 IAcc=3 IRadAn=         5 AccDes= 0.00D+00
 Harris functional with IExCor=  205 and IRadAn=       5 diagonalized for initial guess.
 HarFok:  IExCor=  205 AccDes= 0.00D+00 IRadAn=         5 IDoV= 1 UseB2=F ITyADJ=14
 ICtDFT=  3500011 ScaDFX=  1.000000  1.000000  1.000000  1.000000
 FoFCou: FMM=F IPFlag=           0 FMFlag=      100000 FMFlg1=           0
         NFxFlg=           0 DoJE=T BraDBF=F KetDBF=T FulRan=T
         wScrn=  0.000000 ICntrl=       500 IOpCl=  0 I1Cent=   200000004 NGrid=           0
         NMat0=    1 NMatS0=      1 NMatT0=    0 NMatD0=    1 NMtDS0=    0 NMtDT0=    0
 Petite list used in FoFCou.
 Requested convergence on RMS density matrix=1.00D-08 within 128 cycles.
 Requested convergence on MAX density matrix=1.00D-06.
 Requested convergence on             energy=1.00D-06.
 No special actions if energy rises.
 SCF Done:  E(RHF) =  -1613.79448617     A.U. after   16 cycles
            NFock= 16  Conv=0.42D-08     -V/T= 2.0003
 Calling FoFJK, ICntrl=      2127 FMM=F ISym2X=0 I1Cent= 0 IOpClX= 0 NMat=1 NMatS=1 NMatT=0.
 ***** Axes restored to original set *****
 -------------------------------------------------------------------
 Center     Atomic                   Forces (Hartrees/Bohr)
 Number     Number              X              Y              Z
 -------------------------------------------------------------------
      1        6          -0.003073079   -0.030374480    0.007829714
      2        6           0.020019435   -0.019600616    0.000005961
      3        6          -0.033968967    0.006916451    0.003255239
      4        6           0.001824755    0.007243359    0.000593459
      5        6           0.000502743    0.029001706   -0.007011544
      6        1           0.000336649    0.001656191   -0.000474217
      7       16           0.002951795    0.006348049   -0.002419768
      8        1           0.002851540   -0.002587421    0.000596159
      9        6           0.032104772   -0.016510544    0.000309597
     10       16          -0.007818278   -0.004216839   -0.006556481
     11        6          -0.001241970   -0.020743027    0.019031994
     12        6           0.000266537    0.028396272    0.003784300
     13        6          -0.021381823    0.022038554   -0.003131485
     14        1          -0.001974523   -0.001474898   -0.004258114
     15       16           0.009040874   -0.002800357   -0.006903777
     16        6          -0.022359260    0.022395276   -0.007048127
     17        6           0.021316784   -0.015837718    0.016407223
     18        1           0.000361936   -0.005241295   -0.003652193
     19        1           0.000811870   -0.002986204   -0.008177836
     20        1          -0.000121405   -0.001702797    0.000048677
     21        1           0.000611552    0.000851723    0.000621540
     22        1          -0.001061937   -0.000771385   -0.002850321
 -------------------------------------------------------------------
 Cartesian Forces:  Max     0.033968967 RMS     0.012505687

 GradGradGradGradGradGradGradGradGradGradGradGradGradGradGradGradGradGrad
 Berny optimization.
 Using GEDIIS/GDIIS optimizer.
 FormGI is forming the generalized inverse of G from B-inverse, IUseBI=4.
 Internal  Forces:  Max     0.030754461 RMS     0.006285446
 Search for a local minimum.
 Step number   2 out of a maximum of  127
 All quantities printed in internal units (Hartrees-Bohrs-Radians)
 Mixed Optimization -- RFO/linear search
 Update second derivatives using D2CorX and points    1    2
 DE= -4.09D-02 DEPred=-4.16D-02 R= 9.84D-01
 TightC=F SS=  1.41D+00  RLast= 3.54D-01 DXNew= 5.0454D-01 1.0630D+00
 Trust test= 9.84D-01 RLast= 3.54D-01 DXMaxT set to 5.05D-01
 ITU=  1  0
 Use linear search instead of GDIIS.
     Eigenvalues ---    0.00935   0.00981   0.01051   0.01211   0.01240
     Eigenvalues ---    0.01274   0.01292   0.01381   0.01461   0.01479
     Eigenvalues ---    0.01500   0.01588   0.01592   0.01712   0.02046
     Eigenvalues ---    0.02362   0.07230   0.07390   0.15452   0.15779
     Eigenvalues ---    0.15829   0.15960   0.15999   0.16000   0.16000
     Eigenvalues ---    0.16018   0.18720   0.22460   0.22561   0.23408
     Eigenvalues ---    0.24284   0.24589   0.24826   0.24995   0.25089
     Eigenvalues ---    0.26261   0.26710   0.28522   0.30685   0.31041
     Eigenvalues ---    0.31478   0.33667   0.33809   0.34534   0.34762
     Eigenvalues ---    0.34943   0.35218   0.35420   0.35866   0.36006
     Eigenvalues ---    0.36074   0.36091   0.36201   0.36822   0.38186
     Eigenvalues ---    0.38899   0.39533   0.40453   0.459411000.00000
     Eigenvalues --- 1000.000001000.000001000.000001000.000001000.00000
     Eigenvalues --- 1000.000001000.000001000.000001000.000001000.00000
     Eigenvalues --- 1000.000001000.000001000.000001000.000001000.00000
     Eigenvalues --- 1000.000001000.000001000.000001000.000001000.00000
     Eigenvalues --- 1000.000001000.000001000.000001000.000001000.00000
     Eigenvalues --- 1000.000001000.000001000.000001000.000001000.00000
     Eigenvalues --- 1000.000001000.000001000.000001000.000001000.00000
     Eigenvalues --- 1000.000001000.000001000.000001000.000001000.00000
     Eigenvalues --- 1000.000001000.000001000.000001000.000001000.00000
     Eigenvalues --- 1000.000001000.000001000.000001000.000001000.00000
     Eigenvalues --- 1000.000001000.000001000.000001000.000001000.00000
     Eigenvalues --- 1000.000001000.00000
 RFO step:  Lambda=-9.33738149D-03 EMin= 9.35097603D-03
 Quartic linear search produced a step of  0.48318.
 Iteration  1 RMS(Cart)=  0.10078913 RMS(Int)=  0.00672443
 Iteration  2 RMS(Cart)=  0.00866782 RMS(Int)=  0.00226817
 Iteration  3 RMS(Cart)=  0.00003995 RMS(Int)=  0.00226790
 Iteration  4 RMS(Cart)=  0.00000005 RMS(Int)=  0.00226790
 Iteration  1 RMS(Cart)=  0.00003836 RMS(Int)=  0.00001803
 Iteration  2 RMS(Cart)=  0.00002096 RMS(Int)=  0.00002014
 Iteration  3 RMS(Cart)=  0.00001145 RMS(Int)=  0.00002276
 Iteration  4 RMS(Cart)=  0.00000626 RMS(Int)=  0.00002448
 Iteration  5 RMS(Cart)=  0.00000342 RMS(Int)=  0.00002550
 Iteration  6 RMS(Cart)=  0.00000187 RMS(Int)=  0.00002607
 Iteration  7 RMS(Cart)=  0.00000102 RMS(Int)=  0.00002639
 Iteration  8 RMS(Cart)=  0.00000056 RMS(Int)=  0.00002656
 Variable       Old X    -DE/DX   Delta X   Delta X   Delta X     New X
                                 (Linear)    (Quad)   (Total)
    R1        2.69785   0.00381  -0.01030   0.02958   0.01930   2.71715
    R2        2.60058  -0.02651  -0.05476  -0.00697  -0.06178   2.53880
    R3        2.03666   0.00074  -0.00061   0.00391   0.00330   2.03996
    R4        2.63423  -0.02474  -0.06032   0.00390  -0.05635   2.57788
    R5        2.83353   0.00597   0.01116   0.00635   0.01752   2.85104
    R6        3.33787  -0.00953  -0.02798   0.00115  -0.02681   3.31105
    R7        2.73743   0.00881  -0.00585   0.04304   0.03719   2.77462
    R8        2.05888  -0.00087  -0.00266   0.00089  -0.00177   2.05710
    R9        2.05928  -0.00033   0.00071  -0.00255  -0.00183   2.05744
   R10        2.06665  -0.00274  -0.00470  -0.00363  -0.00833   2.05832
   R11        3.24607  -0.00288  -0.01964   0.02106   0.00137   3.24745
   R12        2.03648  -0.00097  -0.00205  -0.00043  -0.00248   2.03400
   R13        3.34760  -0.00541  -0.01710   0.01271  -0.00702   3.34058
   R14        2.62935  -0.03075  -0.06660  -0.00628  -0.07451   2.55484
   R15        3.26247   0.00340  -0.00292   0.01835   0.01611   3.27858
   R16        2.63458  -0.02130  -0.04272  -0.02097  -0.05912   2.57546
   R17        2.69533   0.00519   0.00056   0.01318   0.01533   2.71066
   R18        2.69019   0.00234  -0.00836   0.01772   0.01074   2.70093
   R19        3.27002   0.00374  -0.00224   0.01963   0.01722   3.28724
   R20        2.03726  -0.00029  -0.00105   0.00060  -0.00046   2.03681
   R21        3.30215  -0.00488  -0.01542   0.01188  -0.00561   3.29655
   R22        2.60445  -0.02829  -0.06158  -0.00094  -0.06319   2.54126
   R23        2.03715  -0.00110  -0.00279   0.00027  -0.00252   2.03463
   R24        2.04228  -0.00181  -0.00532   0.00153  -0.00379   2.03848
    A1        1.98662   0.00178   0.00793  -0.00697   0.00093   1.98756
    A2        2.16141  -0.00251  -0.00574  -0.00663  -0.01236   2.14905
    A3        2.13514   0.00073  -0.00219   0.01361   0.01144   2.14658
    A4        1.96310  -0.00155  -0.00424  -0.00216  -0.00633   1.95676
    A5        2.12110  -0.00084   0.01066  -0.02379  -0.01318   2.10792
    A6        2.19898   0.00238  -0.00642   0.02595   0.01948   2.21847
    A7        1.91725   0.00289   0.00621   0.00612   0.01241   1.92965
    A8        2.29715  -0.00077  -0.01052   0.01438   0.00383   2.30098
    A9        2.06855  -0.00211   0.00427  -0.02047  -0.01624   2.05231
   A10        1.93062  -0.00232  -0.00718  -0.00429  -0.01143   1.91919
   A11        1.94494   0.00135   0.00524  -0.00048   0.00476   1.94969
   A12        1.94244   0.00123   0.00441   0.00159   0.00600   1.94844
   A13        1.87660   0.00036   0.00121  -0.00083   0.00040   1.87701
   A14        1.87134   0.00088   0.00254   0.00327   0.00585   1.87719
   A15        1.89507  -0.00155  -0.00648   0.00087  -0.00564   1.88943
   A16        1.94361  -0.00013  -0.00473   0.00719   0.00234   1.94595
   A17        2.19728   0.00385   0.01038   0.01160   0.02200   2.21927
   A18        2.14216  -0.00371  -0.00565  -0.01858  -0.02421   2.11795
   A19        1.61415  -0.00299  -0.00519  -0.00414  -0.00940   1.60475
   A20        2.13122   0.00333   0.00099   0.01585   0.01677   2.14799
   A21        2.22634  -0.00563  -0.00673  -0.02051  -0.02729   2.19905
   A22        1.92536   0.00235   0.00594   0.00530   0.01073   1.93609
   A23        1.60998  -0.00318  -0.00456  -0.01294  -0.01550   1.59448
   A24        1.93707  -0.00298  -0.01178   0.01407  -0.00013   1.93694
   A25        2.27198   0.00444   0.01598   0.04468   0.05006   2.32204
   A26        1.98185   0.00154   0.00786  -0.00272   0.00441   1.98626
   A27        1.98585   0.00119   0.00936  -0.00717   0.00106   1.98691
   A28        1.93745  -0.00274  -0.01391   0.02078   0.00397   1.94142
   A29        2.27196   0.00454   0.01665   0.04321   0.04908   2.32104
   A30        1.96592   0.00266   0.00109   0.00150   0.00438   1.97030
   A31        2.15196  -0.00171  -0.00454   0.00969   0.00185   2.15381
   A32        2.15801  -0.00049   0.00573  -0.00162   0.00075   2.15876
   A33        1.59777  -0.00278   0.00213  -0.02554  -0.02048   1.57730
   A34        1.95858   0.00282  -0.00072   0.02203   0.01965   1.97824
   A35        2.12827  -0.00469  -0.00394  -0.02120  -0.03020   2.09808
   A36        2.18747   0.00263   0.00857   0.01583   0.01928   2.20674
   A37        1.94874   0.00118   0.00460  -0.01375  -0.00737   1.94137
   A38        2.17473  -0.00045   0.00447   0.00835   0.00608   2.18082
   A39        2.13763   0.00060  -0.00186   0.02981   0.02136   2.15898
    D1        0.00250  -0.00022  -0.00209  -0.00841  -0.01052  -0.00802
    D2       -3.13675  -0.00003  -0.00105  -0.00298  -0.00412  -3.14086
    D3        3.14023  -0.00019  -0.00166  -0.00444  -0.00619   3.13405
    D4        0.00099   0.00001  -0.00062   0.00099   0.00022   0.00121
    D5       -0.00863   0.00008  -0.00093   0.00795   0.00696  -0.00167
    D6       -3.13247  -0.00030  -0.00110  -0.00499  -0.00625  -3.13872
    D7        3.13675   0.00005  -0.00134   0.00411   0.00269   3.13945
    D8        0.01291  -0.00033  -0.00152  -0.00884  -0.01052   0.00239
    D9        0.00459   0.00029   0.00409   0.00491   0.00903   0.01362
   D10        3.12173   0.00087   0.00199   0.00656   0.00847   3.13020
   D11       -3.13948   0.00008   0.00300  -0.00090   0.00207  -3.13741
   D12       -0.02234   0.00066   0.00089   0.00075   0.00151  -0.02082
   D13        0.03647  -0.00019  -0.00063   0.00006  -0.00058   0.03589
   D14       -2.05018   0.00001  -0.00086   0.00427   0.00341  -2.04677
   D15        2.11489   0.00019   0.00076   0.00238   0.00309   2.11798
   D16       -3.10244   0.00003   0.00056   0.00632   0.00690  -3.09553
   D17        1.09410   0.00024   0.00033   0.01052   0.01089   1.10499
   D18       -1.02403   0.00042   0.00194   0.00864   0.01058  -1.01345
   D19       -0.00802  -0.00019  -0.00390  -0.00041  -0.00447  -0.01249
   D20       -3.12881  -0.00069  -0.00191  -0.00231  -0.00425  -3.13305
   D21       -0.08728  -0.00217  -0.00000   0.00000   0.00000  -0.08728
   D22        3.02668   0.00052   0.00780   0.03208   0.04028   3.06695
   D23        3.02814  -0.00149  -0.00226   0.00212  -0.00025   3.02789
   D24       -0.14109   0.00120   0.00555   0.03420   0.04003  -0.10106
   D25        0.00950   0.00006   0.00277  -0.00425  -0.00151   0.00798
   D26        3.13399   0.00051   0.00313   0.00857   0.01135  -3.13785
   D27       -3.13663   0.00109   0.00441   0.00871   0.01374  -3.12289
   D28        0.02832  -0.00106  -0.00191  -0.01798  -0.02057   0.00775
   D29        3.13167  -0.00150  -0.00637  -0.00725  -0.01289   3.11878
   D30       -0.13528   0.00236   0.01132   0.07444   0.08639  -0.04890
[...]
     22          1           0       -1.926388    2.625266    0.964499
 ---------------------------------------------------------------------
 Rotational constants (GHZ):           1.2625452           0.2847028           0.2328207

 **********************************************************************

            Population analysis using the SCF Density.

 **********************************************************************

 Orbital symmetries:
       Occupied  (A) (A) (A) (A) (A) (A) (A) (A) (A) (A) (A) (A)
                 (A) (A) (A) (A) (A) (A) (A) (A) (A) (A) (A) (A)
                 (A) (A) (A) (A) (A) (A) (A) (A) (A) (A) (A) (A)
                 (A) (A) (A) (A) (A) (A) (A) (A) (A) (A) (A) (A)
                 (A) (A) (A) (A) (A) (A) (A) (A) (A) (A) (A) (A)
                 (A)
       Virtual   (A) (A) (A) (A) (A) (A) (A) (A) (A) (A) (A) (A)
                 (A) (A) (A) (A) (A) (A) (A) (A) (A) (A) (A) (A)
                 (A) (A) (A) (A) (A) (A) (A) (A) (A) (A) (A) (A)
                 (A) (A) (A) (A) (A) (A) (A) (A) (A) (A) (A) (A)
                 (A) (A) (A) (A) (A) (A) (A) (A) (A) (A) (A) (A)
                 (A) (A) (A) (A) (A) (A) (A) (A) (A) (A) (A) (A)
                 (A) (A) (A) (A) (A) (A) (A) (A) (A) (A) (A) (A)
                 (A) (A) (A) (A) (A) (A) (A) (A) (A) (A) (A) (A)
                 (A) (A) (A) (A) (A) (A) (A) (A) (A) (A) (A) (A)
                 (A) (A) (A) (A) (A) (A) (A) (A) (A) (A) (A) (A)
                 (A) (A) (A) (A) (A) (A) (A) (A) (A) (A) (A) (A)
                 (A) (A) (A) (A) (A) (A) (A) (A) (A) (A) (A) (A)
                 (A) (A) (A) (A) (A) (A) (A) (A) (A) (A) (A) (A)
                 (A) (A) (A) (A) (A) (A) (A) (A) (A) (A) (A) (A)
                 (A) (A) (A) (A) (A) (A) (A) (A) (A) (A) (A) (A)
                 (A) (A) (A) (A) (A) (A) (A) (A) (A) (A) (A) (A)
                 (A) (A) (A) (A) (A) (A) (A) (A) (A) (A) (A) (A)
                 (A) (A) (A) (A) (A) (A) (A) (A) (A) (A) (A) (A)
                 (A) (A) (A) (A) (A) (A) (A) (A) (A) (A) (A) (A)
                 (A) (A) (A) (A) (A) (A) (A) (A) (A) (A) (A) (A)
                 (A) (A) (A) (A) (A) (A) (A) (A) (A) (A) (A) (A)
                 (A) (A) (A) (A) (A) (A) (A) (A) (A) (A) (A) (A)
                 (A) (A) (A) (A) (A) (A) (A) (A) (A) (A) (A) (A)
                 (A) (A) (A) (A) (A) (A) (A) (A) (A) (A) (A) (A)
                 (A) (A) (A) (A) (A) (A) (A) (A) (A) (A) (A) (A)
                 (A) (A) (A) (A) (A) (A) (A) (A) (A) (A) (A) (A)
                 (A) (A) (A) (A) (A) (A) (A) (A) (A) (A) (A) (A)
                 (A) (A) (A) (A) (A) (A) (A) (A) (A) (A) (A) (A)
                 (A) (A) (A) (A) (A) (A) (A) (A) (A)
 The electronic state is 1-A.
 Alpha  occ. eigenvalues --  -91.99126 -91.99004 -91.98476 -11.29359 -11.28100
 Alpha  occ. eigenvalues --  -11.27717 -11.27289 -11.27225 -11.27090 -11.25828
 Alpha  occ. eigenvalues --  -11.25748 -11.25494 -11.24481 -11.23876  -8.99311
 Alpha  occ. eigenvalues --   -8.99185  -8.98741  -6.67477  -6.67398  -6.67351
 Alpha  occ. eigenvalues --   -6.67274  -6.67187  -6.67067  -6.66914  -6.66820
 Alpha  occ. eigenvalues --   -6.66626  -1.21837  -1.18734  -1.12895  -1.04185
 Alpha  occ. eigenvalues --   -1.02839  -1.01793  -0.95550  -0.94760  -0.92262
 Alpha  occ. eigenvalues --   -0.82355  -0.78034  -0.76694  -0.71593  -0.70507
 Alpha  occ. eigenvalues --   -0.67685  -0.66988  -0.60480  -0.59327  -0.59100
 Alpha  occ. eigenvalues --   -0.56786  -0.56610  -0.55020  -0.53963  -0.52203
 Alpha  occ. eigenvalues --   -0.52053  -0.51700  -0.49649  -0.47155  -0.46838
 Alpha  occ. eigenvalues --   -0.45776  -0.39426  -0.35709  -0.34415  -0.32346
 Alpha  occ. eigenvalues --   -0.27655
 Alpha virt. eigenvalues --    0.03404   0.03457   0.03991   0.04756   0.05027
 Alpha virt. eigenvalues --    0.05942   0.06084   0.06486   0.07422   0.08450
 Alpha virt. eigenvalues --    0.09656   0.10023   0.10334   0.10723   0.11049
 Alpha virt. eigenvalues --    0.12121   0.12205   0.12591   0.12889   0.13183
 Alpha virt. eigenvalues --    0.13308   0.13787   0.14251   0.14715   0.14925
 Alpha virt. eigenvalues --    0.15258   0.15331   0.15817   0.16236   0.16683
 Alpha virt. eigenvalues --    0.17206   0.17366   0.17563   0.18238   0.18795
 Alpha virt. eigenvalues --    0.18922   0.19140   0.19843   0.19991   0.20100
 Alpha virt. eigenvalues --    0.20440   0.20896   0.21216   0.21930   0.22068
 Alpha virt. eigenvalues --    0.22666   0.23101   0.23339   0.24093   0.24351
 Alpha virt. eigenvalues --    0.25024   0.25518   0.25778   0.26303   0.26726
 Alpha virt. eigenvalues --    0.27283   0.27421   0.27702   0.28177   0.28677
 Alpha virt. eigenvalues --    0.29553   0.30184   0.31081   0.31448   0.32164
 Alpha virt. eigenvalues --    0.32648   0.33338   0.33737   0.33890   0.34592
 Alpha virt. eigenvalues --    0.34958   0.35747   0.36187   0.36585   0.37038
 Alpha virt. eigenvalues --    0.37401   0.38388   0.39073   0.39697   0.40576
 Alpha virt. eigenvalues --    0.40656   0.41252   0.42129   0.42540   0.43286
 Alpha virt. eigenvalues --    0.43523   0.44027   0.44320   0.44438   0.45251
 Alpha virt. eigenvalues --    0.46166   0.46451   0.47105   0.47698   0.47833
 Alpha virt. eigenvalues --    0.48056   0.48636   0.49191   0.50261   0.51187
 Alpha virt. eigenvalues --    0.51541   0.52018   0.53435   0.53957   0.54889
 Alpha virt. eigenvalues --    0.54991   0.55955   0.57233   0.58044   0.59272
 Alpha virt. eigenvalues --    0.59688   0.60444   0.61240   0.61905   0.62140
 Alpha virt. eigenvalues --    0.62843   0.63333   0.63548   0.64151   0.64720
 Alpha virt. eigenvalues --    0.65002   0.65812   0.66247   0.66844   0.67169
 Alpha virt. eigenvalues --    0.67231   0.68119   0.68659   0.69232   0.69374
 Alpha virt. eigenvalues --    0.69549   0.70715   0.70761   0.71128   0.71987
 Alpha virt. eigenvalues --    0.72351   0.72827   0.73859   0.74021   0.74403
 Alpha virt. eigenvalues --    0.74946   0.75302   0.76298   0.77616   0.78177
 Alpha virt. eigenvalues --    0.78377   0.78834   0.79481   0.80490   0.80857
 Alpha virt. eigenvalues --    0.81573   0.82238   0.83117   0.83245   0.83943
 Alpha virt. eigenvalues --    0.85040   0.85251   0.85780   0.86407   0.87086
 Alpha virt. eigenvalues --    0.87365   0.88261   0.89534   0.90012   0.90751
 Alpha virt. eigenvalues --    0.90985   0.92604   0.93215   0.93697   0.94549
 Alpha virt. eigenvalues --    0.95512   0.95961   0.97054   0.97359   0.97812
 Alpha virt. eigenvalues --    0.98777   0.99140   0.99852   1.01618   1.02408
 Alpha virt. eigenvalues --    1.02806   1.04198   1.04370   1.05144   1.06518
 Alpha virt. eigenvalues --    1.07770   1.08513   1.08884   1.10003   1.10266
 Alpha virt. eigenvalues --    1.11045   1.11810   1.12383   1.13281   1.16647
 Alpha virt. eigenvalues --    1.17388   1.17940   1.18775   1.19949   1.20780
 Alpha virt. eigenvalues --    1.22227   1.23453   1.23895   1.24859   1.26146
 Alpha virt. eigenvalues --    1.27862   1.28522   1.29255   1.29757   1.30460
 Alpha virt. eigenvalues --    1.31697   1.32068   1.33592   1.33847   1.34811
 Alpha virt. eigenvalues --    1.35503   1.36631   1.37784   1.39316   1.40833
 Alpha virt. eigenvalues --    1.41138   1.42603   1.43793   1.44691   1.47690
 Alpha virt. eigenvalues --    1.49415   1.49782   1.52057   1.52942   1.54343
 Alpha virt. eigenvalues --    1.55580   1.56751   1.57206   1.57865   1.58879
 Alpha virt. eigenvalues --    1.61254   1.62184   1.62908   1.64597   1.66051
 Alpha virt. eigenvalues --    1.66349   1.67938   1.69084   1.69613   1.70457
 Alpha virt. eigenvalues --    1.71350   1.71787   1.72894   1.73713   1.73955
 Alpha virt. eigenvalues --    1.75996   1.77140   1.77632   1.78787   1.80151
 Alpha virt. eigenvalues --    1.81669   1.81970   1.82325   1.84227   1.85079
 Alpha virt. eigenvalues --    1.85571   1.86901   1.88238   1.89250   1.90648
 Alpha virt. eigenvalues --    1.91290   1.92142   1.95564   1.95689   1.96405
 Alpha virt. eigenvalues --    1.97749   1.98789   2.00127   2.01672   2.01914
 Alpha virt. eigenvalues --    2.03504   2.04021   2.07769   2.08668   2.10610
 Alpha virt. eigenvalues --    2.10962   2.12299   2.12999   2.13864   2.16113
 Alpha virt. eigenvalues --    2.17965   2.18870   2.19134   2.19465   2.21768
 Alpha virt. eigenvalues --    2.21902   2.24205   2.25623   2.28103   2.28792
 Alpha virt. eigenvalues --    2.29144   2.31719   2.34786   2.36315   2.36646
 Alpha virt. eigenvalues --    2.37045   2.37554   2.38493   2.40403   2.42642
 Alpha virt. eigenvalues --    2.42777   2.43678   2.46166   2.49477   2.49717
 Alpha virt. eigenvalues --    2.50960   2.53579   2.53738   2.55055   2.56781
 Alpha virt. eigenvalues --    2.58643   2.63275   2.66384   2.68932   2.71644
 Alpha virt. eigenvalues --    2.73511   2.78827   2.81952   2.83727   2.86482
 Alpha virt. eigenvalues --    2.88431   2.92733   2.93749   2.97854   3.01555
 Alpha virt. eigenvalues --    3.02221   3.08747   3.12717   3.14510   3.21300
 Alpha virt. eigenvalues --    3.29441   3.34759   3.39137   3.45695   3.57387
 Alpha virt. eigenvalues --    3.70865   3.78560   3.95910   4.11636   4.21752
          Condensed to atoms (all electrons):
               1          2          3          4          5          6
     1  C   11.037558  -1.723347  -1.262745  -1.090093  -0.104308  -0.645854
     2  C   -1.723347  13.375203  -3.906160   0.394585  -0.122967   0.327988
     3  C   -1.262745  -3.906160  18.459538  -0.867863  -1.539343   0.132899
     4  C   -1.090093   0.394585  -0.867863   6.071381   0.008114   0.096210
     5  C   -0.104308  -0.122967  -1.539343   0.008114   7.552837  -0.041242
     6  H   -0.645854   0.327988   0.132899   0.096210  -0.041242   1.832941
     7  S   -0.685838  -0.001581  -0.636106   0.120974   0.171153  -0.019071
     8  H    0.135123   0.130172  -0.093016   0.027641   0.067893  -0.064450
     9  C    0.089283  -0.800961  -4.947317  -0.021338   0.839057  -0.070708
    10  S   -0.185850   0.285080  -0.896688   0.090013   0.160688   0.011256
    11  C   -0.016117   0.076367  -0.139885  -0.104467   0.056984   0.004012
    12  C   -0.050040  -0.014841   0.636446   0.075545  -0.068979  -0.005152
    13  C   -0.064377  -1.486445   1.066236   0.000765  -0.692141   0.002519
    14  H   -0.020625   0.109316  -0.061053   0.016437   0.019647  -0.001034
    15  S    0.000926  -0.014136  -0.045768  -0.002121   0.002259   0.000048
    16  C   -0.001259  -0.006717   0.017755  -0.006301   0.001790   0.000133
    17  C    0.004046   0.052998  -0.344612  -0.047872   0.004587   0.000364
    18  H    0.000109   0.000517  -0.001122  -0.000428   0.000008   0.000011
    19  H   -0.000425   0.001735  -0.000549  -0.000833   0.000742  -0.000008
    20  H    0.078889  -0.045391   0.080403  -0.031997   0.036639  -0.034586
    21  H    0.000895   0.004386  -0.055624   0.326046  -0.010336   0.005777
    22  H   -0.020896   0.023236  -0.073143   0.302683  -0.016379   0.007310
               7          8          9         10         11         12
     1  C   -0.685838   0.135123   0.089283  -0.185850  -0.016117  -0.050040
     2  C   -0.001581   0.130172  -0.800961   0.285080   0.076367  -0.014841
     3  C   -0.636106  -0.093016  -4.947317  -0.896688  -0.139885   0.636446
     4  C    0.120974   0.027641  -0.021338   0.090013  -0.104467   0.075545
     5  C    0.171153   0.067893   0.839057   0.160688   0.056984  -0.068979
     6  H   -0.019071  -0.064450  -0.070708   0.011256   0.004012  -0.005152
     7  S   16.698278  -0.119720  -0.043007   0.138181   0.049830  -0.177378
     8  H   -0.119720   1.300301   0.009254   0.004325  -0.000275   0.001490
     9  C   -0.043007   0.009254  19.620554   0.563463  -1.204279  -0.949522
    10  S    0.138181   0.004325   0.563463  17.510703   0.240180  -0.887768
    11  C    0.049830  -0.000275  -1.204279   0.240180  12.962879  -1.527559
    12  C   -0.177378   0.001490  -0.949522  -0.887768  -1.527559  15.302508
    13  C   -0.175627  -0.012805  -7.673923  -1.630208  -0.950143  -3.721214
    14  H    0.019855   0.003691   1.443067   0.051692  -0.223089   0.418950
    15  S    0.020296  -0.000088  -0.518273   0.183844   0.230489  -0.781920
    16  C    0.013145   0.000014  -0.007844  -0.205249  -0.149640  -1.178987
    17  C    0.001317   0.000132  -0.321450  -0.059239  -3.298774  -0.870912
    18  H    0.000235  -0.000003   0.008789   0.015325   0.156973  -0.110412
    19  H    0.000552   0.000017   0.060628   0.060113   0.650384   0.028603
    20  H   -0.013865  -0.000064  -0.013047  -0.047992  -0.008469   0.005072
    21  H    0.012212   0.001350   0.005965   0.025774   0.011896   0.003761
    22  H    0.014058   0.001273   0.028203   0.032867   0.012113   0.004160
              13         14         15         16         17         18
     1  C   -0.064377  -0.020625   0.000926  -0.001259   0.004046   0.000109
     2  C   -1.486445   0.109316  -0.014136  -0.006717   0.052998   0.000517
     3  C    1.066236  -0.061053  -0.045768   0.017755  -0.344612  -0.001122
     4  C    0.000765   0.016437  -0.002121  -0.006301  -0.047872  -0.000428
     5  C   -0.692141   0.019647   0.002259   0.001790   0.004587   0.000008
     6  H    0.002519  -0.001034   0.000048   0.000133   0.000364   0.000011
     7  S   -0.175627   0.019855   0.020296   0.013145   0.001317   0.000235
     8  H   -0.012805   0.003691  -0.000088   0.000014   0.000132  -0.000003
     9  C   -7.673923   1.443067  -0.518273  -0.007844  -0.321450   0.008789
    10  S   -1.630208   0.051692   0.183844  -0.205249  -0.059239   0.015325
    11  C   -0.950143  -0.223089   0.230489  -0.149640  -3.298774   0.156973
    12  C   -3.721214   0.418950  -0.781920  -1.178987  -0.870912  -0.110412
    13  C   23.119122  -2.101072   0.282231   0.165885  -0.537325   0.019337
    14  H   -2.101072   1.966051  -0.072378   0.015942  -0.044089   0.002073
    15  S    0.282231  -0.072378  16.239206   0.247773  -0.124469  -0.139439
    16  C    0.165885   0.015942   0.247773   7.084945   0.101275   0.179961
    17  C   -0.537325  -0.044089  -0.124469   0.101275  11.654364   0.006338
    18  H    0.019337   0.002073  -0.139439   0.179961   0.006338   1.327181
    19  H   -0.040089  -0.000353  -0.002684  -0.104677  -0.668138  -0.071402
    20  H    0.037188   0.000532   0.000174  -0.000527   0.001124  -0.000017
    21  H   -0.040304   0.001397  -0.000501   0.000890  -0.010393   0.000040
    22  H   -0.044182   0.002030  -0.000716   0.000800  -0.011558   0.000034
              19         20         21         22
     1  C   -0.000425   0.078889   0.000895  -0.020896
     2  C    0.001735  -0.045391   0.004386   0.023236
     3  C   -0.000549   0.080403  -0.055624  -0.073143
     4  C   -0.000833  -0.031997   0.326046   0.302683
     5  C    0.000742   0.036639  -0.010336  -0.016379
     6  H   -0.000008  -0.034586   0.005777   0.007310
     7  S    0.000552  -0.013865   0.012212   0.014058
     8  H    0.000017  -0.000064   0.001350   0.001273
     9  C    0.060628  -0.013047   0.005965   0.028203
    10  S    0.060113  -0.047992   0.025774   0.032867
    11  C    0.650384  -0.008469   0.011896   0.012113
    12  C    0.028603   0.005072   0.003761   0.004160
    13  C   -0.040089   0.037188  -0.040304  -0.044182
    14  H   -0.000353   0.000532   0.001397   0.002030
    15  S   -0.002684   0.000174  -0.000501  -0.000716
    16  C   -0.104677  -0.000527   0.000890   0.000800
    17  C   -0.668138   0.001124  -0.010393  -0.011558
    18  H   -0.071402  -0.000017   0.000040   0.000034
    19  H    1.416784   0.000405   0.000326   0.000258
    20  H    0.000405   1.580684  -0.185622  -0.200285
    21  H    0.000326  -0.185622   0.824163  -0.109923
    22  H    0.000258  -0.200285  -0.109923   0.861116
 Mulliken charges:
               1
     1  C    0.524946
     2  C   -0.659038
     3  C    0.477717
     4  C    0.642917
     5  C   -0.326702
     6  H   -0.539364
     7  S    0.612108
     8  H   -0.392255
     9  C   -0.096594
    10  S    0.539488
    11  C   -0.829409
    12  C   -0.131849
    13  C    0.476571
    14  H   -0.546987
    15  S    0.495249
    16  C   -0.169108
    17  C    0.512287
    18  H   -0.394110
    19  H   -0.331388
    20  H   -0.239246
    21  H    0.187826
    22  H    0.186942
 Sum of Mulliken charges =  -0.00000
 Mulliken charges with hydrogens summed into heavy atoms:
               1
     1  C   -0.014418
     2  C   -0.659038
     3  C    0.477717
     4  C    0.778438
     5  C   -0.718957
     7  S    0.612108
     9  C   -0.096594
    10  S    0.539488
    11  C   -0.829409
    12  C   -0.131849
    13  C   -0.070416
    15  S    0.495249
    16  C   -0.563218
    17  C    0.180899
 Electronic spatial extent (au):  <R**2>=           4366.0912
 Charge=              0.0000 electrons
 Dipole moment (field-independent basis, Debye):
    X=             -0.6648    Y=              1.2626    Z=              0.0556  Tot=              1.4281
 Quadrupole moment (field-independent basis, Debye-Ang):
   XX=            -85.8452   YY=            -98.5133   ZZ=           -111.7556
   XY=              2.3615   XZ=             -0.3484   YZ=             -0.1077
 Traceless Quadrupole moment (field-independent basis, Debye-Ang):
   XX=             12.8595   YY=              0.1914   ZZ=            -13.0509
   XY=              2.3615   XZ=             -0.3484   YZ=             -0.1077
 Octapole moment (field-independent basis, Debye-Ang**2):
  XXX=             -3.4954  YYY=              4.6388  ZZZ=              0.2155  XYY=             -8.0922
  XXY=             16.4646  XXZ=             -0.8018  XZZ=             -1.0306  YZZ=              2.4530
  YYZ=             -0.0583  XYZ=             -1.9636
 Hexadecapole moment (field-independent basis, Debye-Ang**3):
 XXXX=          -4156.5245 YYYY=          -1153.7262 ZZZZ=           -150.3311 XXXY=             94.5440
 XXXZ=             -4.2054 YYYX=             27.7656 YYYZ=             -1.7628 ZZZX=              0.2578
 ZZZY=              0.6343 XXYY=           -927.1531 XXZZ=           -925.4350 YYZZ=           -234.6607
 XXYZ=              1.8550 YYXZ=             -1.1795 ZZXY=             -8.3845
 N-N= 1.125379192452D+03 E-N=-6.070833118164D+03  KE= 1.613752695865D+03
 Unable to Open any file for archive entry.
 1\1\GINC-CX3-2-12\FOpt\RHF\Aug-CC-pVDZ\C11H8S3\NS5018\26-Oct-2021\0\\#
  opt=modredundant hf/aug-cc-pvdz\\pBTTT_-5.pdb\\0,1\C,-4.2520712196,-1
 .4707595934,-0.3383096058\C,-2.9150536321,-1.0116288731,-0.6217653435\
 C,-2.0012942626,-2.0193979388,-0.5326512816\C,-2.6505917883,0.43462451
 25,-0.9648712211\C,-4.3283533624,-2.7834889638,-0.0491126246\H,-5.1095
 456379,-0.8157659846,-0.3562782934\S,-2.7770633961,-3.5319129818,-0.10
 96825496\H,-5.2040584898,-3.3592149422,0.1969279686\C,-0.5468985574,-2
 .0212137419,-0.7388160529\S,0.3301119668,-0.5987285851,-1.3065071961\C
 ,1.8339328968,-1.4609648758,-1.2631887858\C,1.6502889241,-2.7431313309
 ,-0.8395943163\C,0.2922907457,-3.0696087634,-0.5370937837\H,-0.0319923
 707,-4.0351325733,-0.1864799037\S,3.1565568615,-3.6074979866,-0.791514
 0253\C,4.0071570471,-2.1910488004,-1.3535598373\C,3.1975567792,-1.1319
 18053,-1.5630359474\H,5.0735042956,-2.2333234217,-1.4965568341\H,3.541
 9519229,-0.1714886854,-1.9103191542\H,-3.5736455837,1.0052974834,-0.88
 72721258\H,-2.2777542622,0.5446860425,-1.9828879401\H,-1.9240288769,0.
 8836180568,-0.2894311461\\Version=ES64L-G16RevC.01\State=1-A\HF=-1613.
 8118445\RMSD=3.156e-09\RMSF=1.590e-04\Dipole=-0.2335082,0.5056578,-0.0
 738048\Quadrupole=9.2786369,-0.6862447,-8.5923922,0.5526042,-3.0769929
 ,-2.4442514\PG=C01 [X(C11H8S3)]\\@
 The archive entry for this job was punched.


 THE WORLD IS NOT A HAMBURGER - YOU CAN'T HAVE IT YOUR WAY.
 Job cpu time:       0 days  4 hours 57 minutes 38.2 seconds.
 Elapsed time:       0 days  0 hours 37 minutes 28.6 seconds.
 File lengths (MBytes):  RWF=    103 Int=      0 D2E=      0 Chk=     13 Scr=      1
 Normal termination of Gaussian 16 at Tue Oct 26 00:52:46 2021.
