 Entering Gaussian System, Link 0=g16
 Input=pBTTT_-175.gjf
 Output=pBTTT_-175.log
 Initial command:
 /apps/gaussian/g16-c01-avx/g16/l1.exe "/tmp/pbs.4762177[0].pbs/Gau-93022.inp" -scrdir="/tmp/pbs.4762177[0].pbs/"
 Entering Link 1 = /apps/gaussian/g16-c01-avx/g16/l1.exe PID=     93023.
  
 Copyright (c) 1988-2019, Gaussian, Inc.  All Rights Reserved.
  
 This is part of the Gaussian(R) 16 program.  It is based on
 the Gaussian(R) 09 system (copyright 2009, Gaussian, Inc.),
 the Gaussian(R) 03 system (copyright 2003, Gaussian, Inc.),
 the Gaussian(R) 98 system (copyright 1998, Gaussian, Inc.),
 the Gaussian(R) 94 system (copyright 1995, Gaussian, Inc.),
 the Gaussian 92(TM) system (copyright 1992, Gaussian, Inc.),
 the Gaussian 90(TM) system (copyright 1990, Gaussian, Inc.),
 the Gaussian 88(TM) system (copyright 1988, Gaussian, Inc.),
 the Gaussian 86(TM) system (copyright 1986, Carnegie Mellon
 University), and the Gaussian 82(TM) system (copyright 1983,
 Carnegie Mellon University). Gaussian is a federally registered
 trademark of Gaussian, Inc.
  
 This software contains proprietary and confidential information,
 including trade secrets, belonging to Gaussian, Inc.
  
 This software is provided under written license and may be
 used, copied, transmitted, or stored only in accord with that
 written license.
  
 The following legend is applicable only to US Government
 contracts under FAR:
  
                    RESTRICTED RIGHTS LEGEND
  
 Use, reproduction and disclosure by the US Government is
 subject to restrictions as set forth in subparagraphs (a)
 and (c) of the Commercial Computer Software - Restricted
 Rights clause in FAR 52.227-19.
  
 Gaussian, Inc.
 340 Quinnipiac St., Bldg. 40, Wallingford CT 06492
  
  
 ---------------------------------------------------------------
 Warning -- This program may not be used in any manner that
 competes with the business of Gaussian, Inc. or will provide
 assistance to any competitor of Gaussian, Inc.  The licensee
 of this program is prohibited from giving any competitor of
 Gaussian, Inc. access to this program.  By using this program,
 the user acknowledges that Gaussian, Inc. is engaged in the
 business of creating and licensing software in the field of
 computational chemistry and represents and warrants to the
 licensee that it is not a competitor of Gaussian, Inc. and that
 it will not use this program in any manner prohibited above.
 ---------------------------------------------------------------
  

 Cite this work as:
 Gaussian 16, Revision C.01,
 M. J. Frisch, G. W. Trucks, H. B. Schlegel, G. E. Scuseria, 
 M. A. Robb, J. R. Cheeseman, G. Scalmani, V. Barone, 
 G. A. Petersson, H. Nakatsuji, X. Li, M. Caricato, A. V. Marenich, 
 J. Bloino, B. G. Janesko, R. Gomperts, B. Mennucci, H. P. Hratchian, 
 J. V. Ortiz, A. F. Izmaylov, J. L. Sonnenberg, D. Williams-Young, 
 F. Ding, F. Lipparini, F. Egidi, J. Goings, B. Peng, A. Petrone, 
 T. Henderson, D. Ranasinghe, V. G. Zakrzewski, J. Gao, N. Rega, 
 G. Zheng, W. Liang, M. Hada, M. Ehara, K. Toyota, R. Fukuda, 
 J. Hasegawa, M. Ishida, T. Nakajima, Y. Honda, O. Kitao, H. Nakai, 
 T. Vreven, K. Throssell, J. A. Montgomery, Jr., J. E. Peralta, 
 F. Ogliaro, M. J. Bearpark, J. J. Heyd, E. N. Brothers, K. N. Kudin, 
 V. N. Staroverov, T. A. Keith, R. Kobayashi, J. Normand, 
 K. Raghavachari, A. P. Rendell, J. C. Burant, S. S. Iyengar, 
 J. Tomasi, M. Cossi, J. M. Millam, M. Klene, C. Adamo, R. Cammi, 
 J. W. Ochterski, R. L. Martin, K. Morokuma, O. Farkas, 
 J. B. Foresman, and D. J. Fox, Gaussian, Inc., Wallingford CT, 2019.
 
 ******************************************
 Gaussian 16:  ES64L-G16RevC.01  3-Jul-2019
                25-Oct-2021 
 ******************************************
 %mem=100GB
 %nprocshared=8
 Will use up to    8 processors via shared memory.
 ---------------------------------
 # opt=modredundant hf/aug-cc-pvdz
 ---------------------------------
 1/18=120,19=15,38=1/1,3;
 2/9=110,12=2,17=6,18=5,40=1/2;
 3/5=16,7=10,11=9,25=1,30=1,71=1/1,2,3;
 4//1;
 5/5=2,38=5/2;
 6/7=2,8=2,9=2,10=2,28=1/1;
 7//1,2,3,16;
 1/18=20,19=15/3(2);
 2/9=110/2;
 99//99;
 2/9=110/2;
 3/5=16,7=10,11=9,25=1,30=1,71=1/1,2,3;
 4/5=5,16=3,69=1/1;
 5/5=2,38=5/2;
 7//1,2,3,16;
 1/18=20,19=15/3(-5);
 2/9=110/2;
 6/7=2,8=2,9=2,10=2,19=2,28=1/1;
 99/9=1/99;
 --------------
 pBTTT_-175.pdb
 --------------
 Symbolic Z-matrix:
 Charge =  0 Multiplicity = 1
 C                    -4.25     -1.36     -0.21 
 C                    -2.93     -0.95     -0.61 
 C                    -1.97     -2.05     -0.62 
 C                    -2.66      0.47     -0.96 
 C                    -4.33     -2.76      0.1 
 H                    -5.1      -0.7      -0.14 
 S                    -2.8      -3.56     -0.11 
 H                    -5.23     -3.27      0.41 
 C                    -0.56     -2.13     -0.97 
 S                     0.323    -3.687    -1. 
 C                     1.804    -2.934    -1.48 
 C                     1.665    -1.511    -1.655 
 C                     0.336    -1.049    -1.387 
 H                     0.002    -0.05     -1.621 
 S                     2.822    -0.858    -2.768 
 C                     3.535    -2.453    -3.023 
 C                     2.859    -3.483    -2.268 
 H                     4.263    -2.644    -3.798 
 H                     2.963    -4.541    -2.494 
 H                    -3.55      1.09     -0.83 
 H                    -2.35      0.56     -2. 
 H                    -1.88      0.89     -0.31 
 
 The following ModRedundant input section has been read:
 D       2       3       9      10 F                                           
 

 GradGradGradGradGradGradGradGradGradGradGradGradGradGradGradGradGradGrad
 Berny optimization.
 Initialization pass.
                           ----------------------------
                           !    Initial Parameters    !
                           ! (Angstroms and Degrees)  !
 --------------------------                            --------------------------
 ! Name  Definition              Value          Derivative Info.                !
 --------------------------------------------------------------------------------
 ! R1    R(1,2)                  1.4389         estimate D2E/DX2                !
 ! R2    R(1,5)                  1.4361         estimate D2E/DX2                !
 ! R3    R(1,6)                  1.0784         estimate D2E/DX2                !
 ! R4    R(2,3)                  1.46           estimate D2E/DX2                !
 ! R5    R(2,4)                  1.4872         estimate D2E/DX2                !
 ! R6    R(3,7)                  1.797          estimate D2E/DX2                !
 ! R7    R(3,9)                  1.455          estimate D2E/DX2                !
 ! R8    R(4,20)                 1.0924         estimate D2E/DX2                !
 ! R9    R(4,21)                 1.0889         estimate D2E/DX2                !
 ! R10   R(4,22)                 1.0988         estimate D2E/DX2                !
 ! R11   R(5,7)                  1.7393         estimate D2E/DX2                !
 ! R12   R(5,8)                  1.0799         estimate D2E/DX2                !
 ! R13   R(9,10)                 1.7902         estimate D2E/DX2                !
 ! R14   R(9,13)                 1.4647         estimate D2E/DX2                !
 ! R15   R(10,11)                1.7294         estimate D2E/DX2                !
 ! R16   R(11,12)                1.4404         estimate D2E/DX2                !
 ! R17   R(11,17)                1.4267         estimate D2E/DX2                !
 ! R18   R(12,13)                1.4323         estimate D2E/DX2                !
 ! R19   R(12,15)                1.7332         estimate D2E/DX2                !
 ! R20   R(13,14)                1.079          estimate D2E/DX2                !
 ! R21   R(15,16)                1.7656         estimate D2E/DX2                !
 ! R22   R(16,17)                1.445          estimate D2E/DX2                !
 ! R23   R(16,18)                1.0803         estimate D2E/DX2                !
 ! R24   R(17,19)                1.0869         estimate D2E/DX2                !
 ! A1    A(2,1,5)              112.8843         estimate D2E/DX2                !
 ! A2    A(2,1,6)              124.5209         estimate D2E/DX2                !
 ! A3    A(5,1,6)              122.5942         estimate D2E/DX2                !
 ! A4    A(1,2,3)              112.9799         estimate D2E/DX2                !
 ! A5    A(1,2,4)              120.2665         estimate D2E/DX2                !
 ! A6    A(3,2,4)              126.7536         estimate D2E/DX2                !
 ! A7    A(2,3,7)              109.1138         estimate D2E/DX2                !
 ! A8    A(2,3,9)              132.8639         estimate D2E/DX2                !
 ! A9    A(7,3,9)              118.0132         estimate D2E/DX2                !
 ! A10   A(2,4,20)             111.468          estimate D2E/DX2                !
 ! A11   A(2,4,21)             110.8154         estimate D2E/DX2                !
 ! A12   A(2,4,22)             110.7706         estimate D2E/DX2                !
 ! A13   A(20,4,21)            107.3779         estimate D2E/DX2                !
 ! A14   A(20,4,22)            106.918          estimate D2E/DX2                !
 ! A15   A(21,4,22)            109.3476         estimate D2E/DX2                !
 ! A16   A(1,5,7)              111.9209         estimate D2E/DX2                !
 ! A17   A(1,5,8)              124.6643         estimate D2E/DX2                !
 ! A18   A(7,5,8)              123.4062         estimate D2E/DX2                !
 ! A19   A(3,7,5)               93.0997         estimate D2E/DX2                !
 ! A20   A(3,9,10)             121.9946         estimate D2E/DX2                !
 ! A21   A(3,9,13)             128.3695         estimate D2E/DX2                !
 ! A22   A(10,9,13)            109.5968         estimate D2E/DX2                !
 ! A23   A(9,10,11)             92.7716         estimate D2E/DX2                !
 ! A24   A(10,11,12)           112.4095         estimate D2E/DX2                !
 ! A25   A(10,11,17)           128.2452         estimate D2E/DX2                !
 ! A26   A(12,11,17)           112.6071         estimate D2E/DX2                !
 ! A27   A(11,12,13)           112.6721         estimate D2E/DX2                !
 ! A28   A(11,12,15)           112.6938         estimate D2E/DX2                !
 ! A29   A(13,12,15)           128.1737         estimate D2E/DX2                !
 ! A30   A(9,13,12)            112.5089         estimate D2E/DX2                !
 ! A31   A(9,13,14)            123.7584         estimate D2E/DX2                !
 ! A32   A(12,13,14)           123.0428         estimate D2E/DX2                !
 ! A33   A(12,15,16)            91.2587         estimate D2E/DX2                !
 ! A34   A(15,16,17)           112.3061         estimate D2E/DX2                !
 ! A35   A(15,16,18)           122.3744         estimate D2E/DX2                !
 ! A36   A(17,16,18)           124.3378         estimate D2E/DX2                !
 ! A37   A(11,17,16)           111.1157         estimate D2E/DX2                !
 ! A38   A(11,17,19)           124.0703         estimate D2E/DX2                !
 ! A39   A(16,17,19)           122.7165         estimate D2E/DX2                !
 ! D1    D(5,1,2,3)              0.3915         estimate D2E/DX2                !
 ! D2    D(5,1,2,4)           -179.5973         estimate D2E/DX2                !
 ! D3    D(6,1,2,3)           -179.8811         estimate D2E/DX2                !
 ! D4    D(6,1,2,4)              0.13           estimate D2E/DX2                !
 ! D5    D(2,1,5,7)             -0.3845         estimate D2E/DX2                !
 ! D6    D(2,1,5,8)           -179.3471         estimate D2E/DX2                !
 ! D7    D(6,1,5,7)            179.8822         estimate D2E/DX2                !
 ! D8    D(6,1,5,8)              0.9196         estimate D2E/DX2                !
 ! D9    D(1,2,3,7)             -0.2224         estimate D2E/DX2                !
 ! D10   D(1,2,3,9)            178.6265         estimate D2E/DX2                !
 ! D11   D(4,2,3,7)            179.7656         estimate D2E/DX2                !
 ! D12   D(4,2,3,9)             -1.3855         estimate D2E/DX2                !
 ! D13   D(1,2,4,20)             2.1641         estimate D2E/DX2                !
 ! D14   D(1,2,4,21)          -117.3645         estimate D2E/DX2                !
 ! D15   D(1,2,4,22)           121.0843         estimate D2E/DX2                !
 ! D16   D(3,2,4,20)          -177.8231         estimate D2E/DX2                !
 ! D17   D(3,2,4,21)            62.6483         estimate D2E/DX2                !
 ! D18   D(3,2,4,22)           -58.9029         estimate D2E/DX2                !
 ! D19   D(2,3,7,5)              0.0033         estimate D2E/DX2                !
 ! D20   D(9,3,7,5)           -179.041          estimate D2E/DX2                !
 ! D21   D(2,3,9,10)          -174.9967         Frozen                          !
 ! D22   D(2,3,9,13)             2.4834         estimate D2E/DX2                !
 ! D23   D(7,3,9,10)             3.7712         estimate D2E/DX2                !
 ! D24   D(7,3,9,13)          -178.7487         estimate D2E/DX2                !
 ! D25   D(1,5,7,3)              0.2153         estimate D2E/DX2                !
 ! D26   D(8,5,7,3)            179.1932         estimate D2E/DX2                !
 ! D27   D(3,9,10,11)          179.7674         estimate D2E/DX2                !
 ! D28   D(13,9,10,11)           1.8643         estimate D2E/DX2                !
 ! D29   D(3,9,13,12)         -179.8109         estimate D2E/DX2                !
 ! D30   D(3,9,13,14)           -9.092          estimate D2E/DX2                !
 ! D31   D(10,9,13,12)          -2.0793         estimate D2E/DX2                !
 ! D32   D(10,9,13,14)         168.6397         estimate D2E/DX2                !
 ! D33   D(9,10,11,12)          -1.2108         estimate D2E/DX2                !
 ! D34   D(9,10,11,17)        -149.9123         estimate D2E/DX2                !
 ! D35   D(10,11,12,13)          0.203          estimate D2E/DX2                !
 ! D36   D(10,11,12,15)       -154.0479         estimate D2E/DX2                !
 ! D37   D(17,11,12,13)        153.9743         estimate D2E/DX2                !
 ! D38   D(17,11,12,15)         -0.2765         estimate D2E/DX2                !
 ! D39   D(10,11,17,16)        149.7744         estimate D2E/DX2                !
 ! D40   D(10,11,17,19)        -14.0926         estimate D2E/DX2                !
 ! D41   D(12,11,17,16)          1.1227         estimate D2E/DX2                !
 ! D42   D(12,11,17,19)       -162.7443         estimate D2E/DX2                !
 ! D43   D(11,12,13,9)           1.2459         estimate D2E/DX2                !
 ! D44   D(11,12,13,14)       -169.5498         estimate D2E/DX2                !
 ! D45   D(15,12,13,9)         150.5935         estimate D2E/DX2                !
 ! D46   D(15,12,13,14)        -20.2023         estimate D2E/DX2                !
 ! D47   D(11,12,15,16)         -0.4944         estimate D2E/DX2                !
 ! D48   D(13,12,15,16)       -149.8366         estimate D2E/DX2                !
 ! D49   D(12,15,16,17)          1.1391         estimate D2E/DX2                !
 ! D50   D(12,15,16,18)        170.2513         estimate D2E/DX2                !
 ! D51   D(15,16,17,11)         -1.49           estimate D2E/DX2                !
 ! D52   D(15,16,17,19)        162.633          estimate D2E/DX2                !
 ! D53   D(18,16,17,11)       -170.3506         estimate D2E/DX2                !
 ! D54   D(18,16,17,19)         -6.2276         estimate D2E/DX2                !
 --------------------------------------------------------------------------------
 Trust Radius=3.00D-01 FncErr=1.00D-07 GrdErr=1.00D-07 EigMax=2.50D+02 EigMin=1.00D-04
 Number of steps in this run=    127 maximum allowed number of steps=    132.
 GradGradGradGradGradGradGradGradGradGradGradGradGradGradGradGradGradGrad

                          Input orientation:                          
 ---------------------------------------------------------------------
 Center     Atomic      Atomic             Coordinates (Angstroms)
 Number     Number       Type             X           Y           Z
 ---------------------------------------------------------------------
      1          6           0       -4.250000   -1.360000   -0.210000
      2          6           0       -2.930000   -0.950000   -0.610000
      3          6           0       -1.970000   -2.050000   -0.620000
      4          6           0       -2.660000    0.470000   -0.960000
      5          6           0       -4.330000   -2.760000    0.100000
      6          1           0       -5.100000   -0.700000   -0.140000
      7         16           0       -2.800000   -3.560000   -0.110000
      8          1           0       -5.230000   -3.270000    0.410000
      9          6           0       -0.560000   -2.130000   -0.970000
     10         16           0        0.323000   -3.687000   -1.000000
     11          6           0        1.804000   -2.934000   -1.480000
     12          6           0        1.665000   -1.511000   -1.655000
     13          6           0        0.336000   -1.049000   -1.387000
     14          1           0        0.002000   -0.050000   -1.621000
     15         16           0        2.822000   -0.858000   -2.768000
     16          6           0        3.535000   -2.453000   -3.023000
     17          6           0        2.859000   -3.483000   -2.268000
     18          1           0        4.263000   -2.644000   -3.798000
     19          1           0        2.963000   -4.541000   -2.494000
     20          1           0       -3.550000    1.090000   -0.830000
     21          1           0       -2.350000    0.560000   -2.000000
     22          1           0       -1.880000    0.890000   -0.310000
 ---------------------------------------------------------------------
                    Distance matrix (angstroms):
                    1          2          3          4          5
     1  C    0.000000
     2  C    1.438923   0.000000
     3  C    2.417147   1.460034   0.000000
     4  C    2.537617   1.487212   2.634787   0.000000
     5  C    1.436141   2.395871   2.567509   3.787532   0.000000
     6  H    1.078425   2.234346   3.442354   2.827525   2.212261
     7  S    2.636759   2.660639   1.796970   4.121044   1.739253
     8  H    2.234480   3.422397   3.630000   4.740190   1.079907
     9  C    3.845335   2.671872   1.454991   3.342170   3.969219
    10  S    5.191470   4.269107   2.842889   5.116692   4.870291
    11  C    6.382891   5.206142   3.970407   5.637811   6.336610
    12  C    6.090817   4.745605   3.817718   4.807599   6.370247
    13  C    4.744834   3.358614   2.628293   3.386105   5.187509
    14  H    4.667604   3.229357   2.981742   2.791696   5.391861
    15  S    7.537145   6.144179   5.384982   5.923240   7.936884
    16  C    8.349482   7.062422   6.020120   7.153875   8.467916
    17  C    7.699375   6.532808   5.299871   6.913497   7.603412
    18  H    9.327034   8.048120   7.021596   8.104269   9.436499
    19  H    8.207484   7.153474   5.835362   7.686443   7.942836
    20  H    2.622384   2.143455   3.521378   1.092428   4.036806
    21  H    3.240447   2.132745   2.976726   1.088944   4.399182
    22  H    3.269465   2.139650   2.957668   1.098772   4.415099
                    6          7          8          9         10
     6  H    0.000000
     7  S    3.670218   0.000000
     8  H    2.631406   2.501879   0.000000
     9  C    4.831708   2.793224   5.001290   0.000000
    10  S    6.250656   3.249824   5.744371   1.790206   0.000000
    11  C    7.379131   4.844130   7.291238   2.548531   1.729384
    12  C    6.979840   5.149918   7.409408   2.408944   2.639122
    13  C    5.588104   4.215489   6.256389   1.464673   2.666267
    14  H    5.352221   4.738610   6.470486   2.250788   3.703573
    15  S    8.348020   6.780314   8.986219   4.035928   4.168221
    16  C    9.270810   7.059975   9.448714   4.592185   3.991520
    17  C    8.695927   6.056994   8.523437   3.899356   2.842664
    18  H   10.238451   8.020372  10.402701   5.614544   4.943708
    19  H    9.236155   6.313318   8.784868   4.532883   3.151341
    20  H    2.466313   4.764808   4.834211   4.396374   6.152134
    21  H    3.551014   4.555107   5.363898   3.391327   5.116829
    22  H    3.595191   4.548505   5.389480   3.361309   5.126230
                   11         12         13         14         15
    11  C    0.000000
    12  C    1.440443   0.000000
    13  C    2.391004   1.432309   0.000000
    14  H    3.403607   2.213876   1.079033   0.000000
    15  S    2.646704   1.733155   2.850235   3.149742   0.000000
    16  C    2.368242   2.501137   3.857630   4.496899   1.765621
    17  C    1.426664   2.385412   3.614699   4.512931   2.672451
    18  H    3.391741   3.553272   4.876297   5.442820   2.515388
    19  H    2.225742   3.401415   4.507842   5.449654   3.695869
    20  H    6.729071   5.885750   4.470634   3.813395   6.939231
    21  H    5.452903   4.530816   3.190493   2.459196   5.417576
    22  H    5.437254   4.487856   3.135332   2.478759   5.586240
                   16         17         18         19         20
    16  C    0.000000
    17  C    1.444957   0.000000
    18  H    1.080319   2.239651   0.000000
    19  H    2.228625   1.086856   2.643676   0.000000
    20  H    8.219448   8.003465   9.153947   8.769049   0.000000
    21  H    6.690136   6.599345   7.565064   7.381884   1.757783
    22  H    6.917965   6.739066   7.898845   7.597385   1.760483
                   21         22
    21  H    0.000000
    22  H    1.784909   0.000000
 Stoichiometry    C11H8S3
 Framework group  C1[X(C11H8S3)]
 Deg. of freedom    60
 Full point group                 C1      NOp   1
 Largest Abelian subgroup         C1      NOp   1
 Largest concise Abelian subgroup C1      NOp   1
                         Standard orientation:                         
 ---------------------------------------------------------------------
 Center     Atomic      Atomic             Coordinates (Angstroms)
 Number     Number       Type             X           Y           Z
 ---------------------------------------------------------------------
      1          6           0        4.009663    0.801365    0.188076
      2          6           0        2.634062    1.196295    0.038910
      3          6           0        1.721809    0.060201   -0.054825
      4          6           0        2.268505    2.637183   -0.005938
      5          6           0        4.182963   -0.624204    0.202880
      6          1           0        4.836537    1.488039    0.276165
      7         16           0        2.668079   -1.464118    0.045807
      8          1           0        5.132362   -1.126393    0.315346
      9          6           0        0.276045   -0.040224   -0.183976
     10         16           0       -0.572632   -1.615978   -0.144161
     11          6           0       -2.125164   -0.879763   -0.340130
     12          6           0       -2.046648    0.556774   -0.411357
     13          6           0       -0.702997    1.042040   -0.308263
     14          1           0       -0.462833    2.085819   -0.177269
     15         16           0       -3.508259    1.332689    0.103886
     16          6           0       -4.273013   -0.227975    0.415175
     17          6           0       -3.386769   -1.336689    0.144577
     18          1           0       -5.220724   -0.316068    0.926227
     19          1           0       -3.565927   -2.338551    0.525933
     20          1           0        3.153089    3.275942    0.047892
     21          1           0        1.626178    2.899750    0.833272
     22          1           0        1.755584    2.879951   -0.946829
 ---------------------------------------------------------------------
 Rotational constants (GHZ):           1.1963736           0.2804142           0.2297007
 Standard basis: Aug-CC-pVDZ (5D, 7F)
 There are   434 symmetry adapted cartesian basis functions of A   symmetry.
 There are   406 symmetry adapted basis functions of A   symmetry.
   406 basis functions,   804 primitive gaussians,   434 cartesian basis functions
    61 alpha electrons       61 beta electrons
       nuclear repulsion energy      1108.4331281397 Hartrees.
 NAtoms=   22 NActive=   22 NUniq=   22 SFac= 1.00D+00 NAtFMM=   60 NAOKFM=F Big=F
 Integral buffers will be    131072 words long.
 Raffenetti 1 integral format.
 Two-electron integral symmetry is turned on.
 One-electron integrals computed using PRISM.
 NBasis=   406 RedAO= T EigKep=  3.98D-06  NBF=   406
 NBsUse=   406 1.00D-06 EigRej= -1.00D+00 NBFU=   406
 ExpMin= 2.97D-02 ExpMax= 1.11D+05 ExpMxC= 1.07D+03 IAcc=3 IRadAn=         5 AccDes= 0.00D+00
 Harris functional with IExCor=  205 and IRadAn=       5 diagonalized for initial guess.
 HarFok:  IExCor=  205 AccDes= 0.00D+00 IRadAn=         5 IDoV= 1 UseB2=F ITyADJ=14
 ICtDFT=  3500011 ScaDFX=  1.000000  1.000000  1.000000  1.000000
 FoFCou: FMM=F IPFlag=           0 FMFlag=      100000 FMFlg1=           0
         NFxFlg=           0 DoJE=T BraDBF=F KetDBF=T FulRan=T
         wScrn=  0.000000 ICntrl=       500 IOpCl=  0 I1Cent=   200000004 NGrid=           0
         NMat0=    1 NMatS0=      1 NMatT0=    0 NMatD0=    1 NMtDS0=    0 NMtDT0=    0
 Petite list used in FoFCou.
 Requested convergence on RMS density matrix=1.00D-08 within 128 cycles.
 Requested convergence on MAX density matrix=1.00D-06.
 Requested convergence on             energy=1.00D-06.
 No special actions if energy rises.
 SCF Done:  E(RHF) =  -1613.75229694     A.U. after   18 cycles
            NFock= 18  Conv=0.81D-08     -V/T= 2.0009

 **********************************************************************

            Population analysis using the SCF Density.

 **********************************************************************

 Orbital symmetries:
       Occupied  (A) (A) (A) (A) (A) (A) (A) (A) (A) (A) (A) (A)
                 (A) (A) (A) (A) (A) (A) (A) (A) (A) (A) (A) (A)
                 (A) (A) (A) (A) (A) (A) (A) (A) (A) (A) (A) (A)
                 (A) (A) (A) (A) (A) (A) (A) (A) (A) (A) (A) (A)
                 (A) (A) (A) (A) (A) (A) (A) (A) (A) (A) (A) (A)
                 (A)
       Virtual   (A) (A) (A) (A) (A) (A) (A) (A) (A) (A) (A) (A)
                 (A) (A) (A) (A) (A) (A) (A) (A) (A) (A) (A) (A)
                 (A) (A) (A) (A) (A) (A) (A) (A) (A) (A) (A) (A)
                 (A) (A) (A) (A) (A) (A) (A) (A) (A) (A) (A) (A)
                 (A) (A) (A) (A) (A) (A) (A) (A) (A) (A) (A) (A)
                 (A) (A) (A) (A) (A) (A) (A) (A) (A) (A) (A) (A)
                 (A) (A) (A) (A) (A) (A) (A) (A) (A) (A) (A) (A)
                 (A) (A) (A) (A) (A) (A) (A) (A) (A) (A) (A) (A)
                 (A) (A) (A) (A) (A) (A) (A) (A) (A) (A) (A) (A)
                 (A) (A) (A) (A) (A) (A) (A) (A) (A) (A) (A) (A)
                 (A) (A) (A) (A) (A) (A) (A) (A) (A) (A) (A) (A)
                 (A) (A) (A) (A) (A) (A) (A) (A) (A) (A) (A) (A)
                 (A) (A) (A) (A) (A) (A) (A) (A) (A) (A) (A) (A)
                 (A) (A) (A) (A) (A) (A) (A) (A) (A) (A) (A) (A)
                 (A) (A) (A) (A) (A) (A) (A) (A) (A) (A) (A) (A)
                 (A) (A) (A) (A) (A) (A) (A) (A) (A) (A) (A) (A)
                 (A) (A) (A) (A) (A) (A) (A) (A) (A) (A) (A) (A)
                 (A) (A) (A) (A) (A) (A) (A) (A) (A) (A) (A) (A)
                 (A) (A) (A) (A) (A) (A) (A) (A) (A) (A) (A) (A)
                 (A) (A) (A) (A) (A) (A) (A) (A) (A) (A) (A) (A)
                 (A) (A) (A) (A) (A) (A) (A) (A) (A) (A) (A) (A)
                 (A) (A) (A) (A) (A) (A) (A) (A) (A) (A) (A) (A)
                 (A) (A) (A) (A) (A) (A) (A) (A) (A) (A) (A) (A)
                 (A) (A) (A) (A) (A) (A) (A) (A) (A) (A) (A) (A)
                 (A) (A) (A) (A) (A) (A) (A) (A) (A) (A) (A) (A)
                 (A) (A) (A) (A) (A) (A) (A) (A) (A) (A) (A) (A)
                 (A) (A) (A) (A) (A) (A) (A) (A) (A) (A) (A) (A)
                 (A) (A) (A) (A) (A) (A) (A) (A) (A) (A) (A) (A)
                 (A) (A) (A) (A) (A) (A) (A) (A) (A)
 The electronic state is 1-A.
 Alpha  occ. eigenvalues --  -92.00027 -91.99808 -91.99755 -11.31182 -11.29866
 Alpha  occ. eigenvalues --  -11.29212 -11.28864 -11.28671 -11.28456 -11.27536
 Alpha  occ. eigenvalues --  -11.27254 -11.27199 -11.25944 -11.24461  -9.00079
 Alpha  occ. eigenvalues --   -8.99896  -8.99768  -6.68246  -6.68157  -6.68065
 Alpha  occ. eigenvalues --   -6.67971  -6.67968  -6.67931  -6.67833  -6.67774
 Alpha  occ. eigenvalues --   -6.67666  -1.19843  -1.16348  -1.10453  -1.04227
 Alpha  occ. eigenvalues --   -1.03068  -1.00806  -0.94374  -0.93947  -0.91087
 Alpha  occ. eigenvalues --   -0.82188  -0.77324  -0.76649  -0.71734  -0.69903
 Alpha  occ. eigenvalues --   -0.66448  -0.65781  -0.60554  -0.59405  -0.58638
 Alpha  occ. eigenvalues --   -0.56298  -0.55628  -0.54593  -0.54163  -0.51927
 Alpha  occ. eigenvalues --   -0.51391  -0.50959  -0.50157  -0.47632  -0.45650
 Alpha  occ. eigenvalues --   -0.45627  -0.39597  -0.34640  -0.34310  -0.31913
 Alpha  occ. eigenvalues --   -0.25198
 Alpha virt. eigenvalues --    0.03288   0.03564   0.03723   0.03966   0.05004
 Alpha virt. eigenvalues --    0.05053   0.05764   0.06581   0.07907   0.08189
 Alpha virt. eigenvalues --    0.09489   0.09623   0.09855   0.10522   0.10824
 Alpha virt. eigenvalues --    0.11316   0.12094   0.12250   0.12332   0.12757
 Alpha virt. eigenvalues --    0.13056   0.13726   0.13827   0.14453   0.14591
 Alpha virt. eigenvalues --    0.14735   0.14868   0.15647   0.15916   0.16661
 Alpha virt. eigenvalues --    0.16983   0.17280   0.17461   0.17644   0.17992
 Alpha virt. eigenvalues --    0.18651   0.19035   0.19313   0.19637   0.19759
 Alpha virt. eigenvalues --    0.20362   0.20519   0.21183   0.21838   0.22001
 Alpha virt. eigenvalues --    0.22614   0.22864   0.23232   0.23973   0.24297
 Alpha virt. eigenvalues --    0.24886   0.25202   0.25646   0.26197   0.26453
 Alpha virt. eigenvalues --    0.27043   0.27320   0.28042   0.28627   0.28927
 Alpha virt. eigenvalues --    0.29194   0.29703   0.30252   0.30568   0.30973
 Alpha virt. eigenvalues --    0.32046   0.32476   0.32604   0.33314   0.33805
 Alpha virt. eigenvalues --    0.34470   0.34805   0.35386   0.35758   0.36041
 Alpha virt. eigenvalues --    0.36962   0.37821   0.38101   0.38513   0.39008
 Alpha virt. eigenvalues --    0.39959   0.40230   0.40956   0.41569   0.42575
 Alpha virt. eigenvalues --    0.42836   0.43204   0.43448   0.43723   0.44215
 Alpha virt. eigenvalues --    0.45059   0.45643   0.46437   0.46928   0.47492
 Alpha virt. eigenvalues --    0.47768   0.47994   0.48762   0.48866   0.50325
 Alpha virt. eigenvalues --    0.51025   0.51595   0.52700   0.53082   0.53961
 Alpha virt. eigenvalues --    0.54775   0.54948   0.55974   0.56336   0.56655
 Alpha virt. eigenvalues --    0.58280   0.59072   0.59917   0.60602   0.60961
 Alpha virt. eigenvalues --    0.61314   0.61964   0.62716   0.62809   0.63481
 Alpha virt. eigenvalues --    0.64460   0.64726   0.65096   0.65392   0.65814
 Alpha virt. eigenvalues --    0.66692   0.67335   0.67531   0.67795   0.68249
 Alpha virt. eigenvalues --    0.68760   0.69433   0.70296   0.70625   0.71110
 Alpha virt. eigenvalues --    0.71812   0.72151   0.72632   0.73017   0.73990
 Alpha virt. eigenvalues --    0.74159   0.75081   0.75464   0.75793   0.75902
 Alpha virt. eigenvalues --    0.76828   0.77237   0.78103   0.79000   0.79552
 Alpha virt. eigenvalues --    0.80457   0.81208   0.82418   0.82439   0.83414
 Alpha virt. eigenvalues --    0.83981   0.84600   0.85581   0.85725   0.86058
 Alpha virt. eigenvalues --    0.86829   0.88045   0.88141   0.88949   0.89741
 Alpha virt. eigenvalues --    0.90504   0.90844   0.91942   0.92957   0.93143
 Alpha virt. eigenvalues --    0.93728   0.94485   0.95577   0.96477   0.97018
 Alpha virt. eigenvalues --    0.97695   0.98385   0.98992   0.99407   1.00321
 Alpha virt. eigenvalues --    1.00573   1.01345   1.02671   1.03103   1.04912
 Alpha virt. eigenvalues --    1.06005   1.06421   1.08128   1.08720   1.09594
 Alpha virt. eigenvalues --    1.10397   1.11019   1.12799   1.13536   1.14184
 Alpha virt. eigenvalues --    1.16172   1.16625   1.18174   1.19759   1.20417
 Alpha virt. eigenvalues --    1.20981   1.21823   1.22843   1.23407   1.24389
 Alpha virt. eigenvalues --    1.25485   1.26181   1.26967   1.27332   1.28124
 Alpha virt. eigenvalues --    1.29231   1.30068   1.31310   1.31772   1.31933
 Alpha virt. eigenvalues --    1.32905   1.33837   1.35429   1.36758   1.37026
 Alpha virt. eigenvalues --    1.39422   1.41232   1.42390   1.43188   1.44254
 Alpha virt. eigenvalues --    1.45257   1.47336   1.48522   1.49495   1.51079
 Alpha virt. eigenvalues --    1.52697   1.55696   1.55904   1.56961   1.58606
 Alpha virt. eigenvalues --    1.59800   1.60230   1.62073   1.63154   1.64026
 Alpha virt. eigenvalues --    1.64762   1.65033   1.65428   1.67443   1.67649
 Alpha virt. eigenvalues --    1.69189   1.69328   1.70314   1.70885   1.72691
 Alpha virt. eigenvalues --    1.73717   1.75076   1.76994   1.77508   1.78248
 Alpha virt. eigenvalues --    1.78825   1.79143   1.80186   1.81815   1.82445
 Alpha virt. eigenvalues --    1.84317   1.84734   1.85705   1.87268   1.87999
 Alpha virt. eigenvalues --    1.89214   1.90128   1.92431   1.93758   1.95328
 Alpha virt. eigenvalues --    1.95631   1.96400   1.97346   1.98361   2.00171
 Alpha virt. eigenvalues --    2.01836   2.03472   2.03628   2.05049   2.08305
 Alpha virt. eigenvalues --    2.08505   2.09752   2.10341   2.11772   2.13891
 Alpha virt. eigenvalues --    2.15328   2.15927   2.17433   2.18075   2.18778
 Alpha virt. eigenvalues --    2.19168   2.20051   2.21498   2.22017   2.25249
 Alpha virt. eigenvalues --    2.25589   2.26385   2.29076   2.29618   2.31501
 Alpha virt. eigenvalues --    2.32184   2.34611   2.35022   2.36169   2.37159
 Alpha virt. eigenvalues --    2.39560   2.42054   2.43440   2.44344   2.45854
 Alpha virt. eigenvalues --    2.46371   2.48797   2.51330   2.53074   2.53796
 Alpha virt. eigenvalues --    2.56912   2.58028   2.61670   2.63299   2.65740
 Alpha virt. eigenvalues --    2.71495   2.71983   2.76069   2.76876   2.81487
 Alpha virt. eigenvalues --    2.82364   2.85395   2.88222   2.89915   2.95304
 Alpha virt. eigenvalues --    2.98246   3.00311   3.02547   3.05925   3.11470
 Alpha virt. eigenvalues --    3.17633   3.24194   3.24886   3.30041   3.38098
 Alpha virt. eigenvalues --    3.57175   3.72180   3.77696   4.03583   4.21553
          Condensed to atoms (all electrons):
               1          2          3          4          5          6
     1  C   10.420064  -2.360311  -0.696346  -1.181024   0.137620  -0.594248
     2  C   -2.360311  11.416563  -2.002235   0.455698   0.034764   0.394559
     3  C   -0.696346  -2.002235  13.455775  -0.879664  -0.960707   0.243953
     4  C   -1.181024   0.455698  -0.879664   6.209668   0.044567   0.061273
     5  C    0.137620   0.034764  -0.960707   0.044567   6.939493  -0.111452
     6  H   -0.594248   0.394559   0.243953   0.061273  -0.111452   1.748196
     7  S   -0.457749  -0.245770  -0.025249   0.130742  -0.079983  -0.065326
     8  H    0.020654   0.060037  -0.036294   0.025261   0.144902  -0.070993
     9  C    0.468790  -0.802480  -3.535935   0.450521   0.180707  -0.084427
    10  S   -0.002653   0.108198  -0.334347   0.060424  -0.105656  -0.009916
    11  C    0.017575   0.091591   0.117500  -0.015396  -0.028899  -0.001790
    12  C   -0.119229  -0.206509   0.471853  -0.036610  -0.004317   0.003062
    13  C   -0.282857  -0.660626   0.186731  -0.408967   0.047791   0.047485
    14  H    0.039762   0.014019  -0.003304   0.068397  -0.003862   0.003622
    15  S   -0.003007  -0.002440  -0.007032  -0.001729  -0.000601  -0.000095
    16  C   -0.001239  -0.014430   0.019929  -0.002530  -0.000567  -0.000014
    17  C    0.005386   0.013544  -0.087774  -0.002792   0.003002   0.000251
    18  H   -0.000001  -0.000633  -0.000196  -0.000449  -0.000051   0.000007
    19  H   -0.000266   0.003446   0.003623   0.000848   0.000563  -0.000030
    20  H    0.047981   0.007765   0.127496  -0.090324   0.023429  -0.026943
    21  H   -0.023153   0.019000  -0.063384   0.313593  -0.008268   0.000083
    22  H   -0.027121   0.023133  -0.071054   0.299770  -0.007721   0.002425
               7          8          9         10         11         12
     1  C   -0.457749   0.020654   0.468790  -0.002653   0.017575  -0.119229
     2  C   -0.245770   0.060037  -0.802480   0.108198   0.091591  -0.206509
     3  C   -0.025249  -0.036294  -3.535935  -0.334347   0.117500   0.471853
     4  C    0.130742   0.025261   0.450521   0.060424  -0.015396  -0.036610
     5  C   -0.079983   0.144902   0.180707  -0.105656  -0.028899  -0.004317
     6  H   -0.065326  -0.070993  -0.084427  -0.009916  -0.001790   0.003062
     7  S   16.503803  -0.061496  -0.128763   0.093315  -0.067050  -0.005592
     8  H   -0.061496   1.284692   0.002661   0.012463   0.003292  -0.002707
     9  C   -0.128763   0.002661  12.859459   0.363556  -0.728629  -0.965318
    10  S    0.093315   0.012463   0.363556  16.698047  -0.221761  -0.229318
    11  C   -0.067050   0.003292  -0.728629  -0.221761   8.032332   0.048595
    12  C   -0.005592  -0.002707  -0.965318  -0.229318   0.048595   9.962195
    13  C   -0.108132  -0.009469  -2.358152  -0.945517  -0.080941  -2.332325
    14  H    0.003947  -0.000631   0.484831   0.024830  -0.075022  -0.015211
    15  S   -0.001973  -0.000042  -0.100479  -0.021638   0.011200   0.043922
    16  C   -0.005532  -0.000042   0.028279  -0.136596   0.163541  -0.299457
    17  C    0.018920   0.000056   0.018612   0.050364  -1.059277   0.185437
    18  H   -0.000018  -0.000006  -0.004708  -0.005270  -0.010866  -0.006602
    19  H    0.000496   0.000056   0.038409  -0.017912   0.222356  -0.025940
    20  H   -0.014095   0.000624  -0.067627  -0.001723  -0.000581   0.010140
    21  H    0.008120   0.001455   0.055485   0.000849  -0.000670  -0.002697
    22  H    0.009019   0.001365   0.048247   0.004437  -0.002569  -0.013587
              13         14         15         16         17         18
     1  C   -0.282857   0.039762  -0.003007  -0.001239   0.005386  -0.000001
     2  C   -0.660626   0.014019  -0.002440  -0.014430   0.013544  -0.000633
     3  C    0.186731  -0.003304  -0.007032   0.019929  -0.087774  -0.000196
     4  C   -0.408967   0.068397  -0.001729  -0.002530  -0.002792  -0.000449
     5  C    0.047791  -0.003862  -0.000601  -0.000567   0.003002  -0.000051
     6  H    0.047485   0.003622  -0.000095  -0.000014   0.000251   0.000007
     7  S   -0.108132   0.003947  -0.001973  -0.005532   0.018920  -0.000018
     8  H   -0.009469  -0.000631  -0.000042  -0.000042   0.000056  -0.000006
     9  C   -2.358152   0.484831  -0.100479   0.028279   0.018612  -0.004708
    10  S   -0.945517   0.024830  -0.021638  -0.136596   0.050364  -0.005270
    11  C   -0.080941  -0.075022   0.011200   0.163541  -1.059277  -0.010866
    12  C   -2.332325  -0.015211   0.043922  -0.299457   0.185437  -0.006602
    13  C   13.295141  -0.879909   0.021827  -0.141464   0.033404   0.038683
    14  H   -0.879909   2.118601  -0.070206  -0.004845  -0.017547   0.003256
    15  S    0.021827  -0.070206  15.719674   0.208526  -0.322759  -0.119143
    16  C   -0.141464  -0.004845   0.208526   5.875597   0.183534   0.233784
    17  C    0.033404  -0.017547  -0.322759   0.183534   6.642979   0.029533
    18  H    0.038683   0.003256  -0.119143   0.233784   0.029533   1.255972
    19  H   -0.021775  -0.001135   0.006684  -0.059690  -0.131817  -0.058990
    20  H    0.023114   0.038744  -0.001002  -0.000102   0.000041  -0.000002
    21  H    0.003101  -0.046620   0.000748  -0.000030   0.001587  -0.000183
    22  H    0.018505  -0.064623   0.002835  -0.000431   0.000803  -0.000112
              19         20         21         22
     1  C   -0.000266   0.047981  -0.023153  -0.027121
     2  C    0.003446   0.007765   0.019000   0.023133
     3  C    0.003623   0.127496  -0.063384  -0.071054
     4  C    0.000848  -0.090324   0.313593   0.299770
     5  C    0.000563   0.023429  -0.008268  -0.007721
     6  H   -0.000030  -0.026943   0.000083   0.002425
     7  S    0.000496  -0.014095   0.008120   0.009019
     8  H    0.000056   0.000624   0.001455   0.001365
     9  C    0.038409  -0.067627   0.055485   0.048247
    10  S   -0.017912  -0.001723   0.000849   0.004437
    11  C    0.222356  -0.000581  -0.000670  -0.002569
    12  C   -0.025940   0.010140  -0.002697  -0.013587
    13  C   -0.021775   0.023114   0.003101   0.018505
    14  H   -0.001135   0.038744  -0.046620  -0.064623
    15  S    0.006684  -0.001002   0.000748   0.002835
    16  C   -0.059690  -0.000102  -0.000030  -0.000431
    17  C   -0.131817   0.000041   0.001587   0.000803
    18  H   -0.058990  -0.000002  -0.000183  -0.000112
    19  H    1.374560   0.000013   0.000233   0.000258
    20  H    0.000013   1.569397  -0.172914  -0.165702
    21  H    0.000233  -0.172914   0.837051  -0.108872
    22  H    0.000258  -0.165702  -0.108872   0.839476
 Mulliken charges:
               1
     1  C    0.591372
     2  C   -0.346881
     3  C    0.076663
     4  C    0.498723
     5  C   -0.244754
     6  H   -0.539683
     7  S    0.498365
     8  H   -0.375837
     9  C   -0.223038
    10  S    0.615824
    11  C   -0.414531
    12  C   -0.459788
    13  C    0.514352
    14  H   -0.617093
    15  S    0.636730
    16  C   -0.046218
    17  C    0.434515
    18  H   -0.354005
    19  H   -0.333989
    20  H   -0.307727
    21  H    0.185485
    22  H    0.211517
 Sum of Mulliken charges =  -0.00000
 Mulliken charges with hydrogens summed into heavy atoms:
               1
     1  C    0.051689
     2  C   -0.346881
     3  C    0.076663
     4  C    0.587998
     5  C   -0.620591
     7  S    0.498365
     9  C   -0.223038
    10  S    0.615824
    11  C   -0.414531
    12  C   -0.459788
    13  C   -0.102741
    15  S    0.636730
    16  C   -0.400223
    17  C    0.100525
 Electronic spatial extent (au):  <R**2>=           4439.7530
 Charge=             -0.0000 electrons
 Dipole moment (field-independent basis, Debye):
    X=              0.9024    Y=              1.2421    Z=              1.2451  Tot=              1.9767
 Quadrupole moment (field-independent basis, Debye-Ang):
   XX=            -89.3158   YY=            -97.6719   ZZ=           -112.2802
   XY=              6.1164   XZ=             -3.8582   YZ=             -1.2732
 Traceless Quadrupole moment (field-independent basis, Debye-Ang):
   XX=             10.4402   YY=              2.0840   ZZ=            -12.5242
   XY=              6.1164   XZ=             -3.8582   YZ=             -1.2732
 Octapole moment (field-independent basis, Debye-Ang**2):
  XXX=             31.1392  YYY=              6.6504  ZZZ=              2.5392  XYY=              9.0154
  XXY=            -10.6383  XXZ=             35.3303  XZZ=             -4.6619  YZZ=              1.4419
  YYZ=              4.6297  XYZ=              3.0638
 Hexadecapole moment (field-independent basis, Debye-Ang**3):
 XXXX=          -4337.4520 YYYY=          -1192.9990 ZZZZ=           -186.4918 XXXY=             18.9983
 XXXZ=           -107.9085 YYYX=             41.1774 YYYZ=             -8.4245 ZZZX=            -12.2344
 ZZZY=             -0.3521 XXYY=           -951.3214 XXZZ=           -918.2306 YYZZ=           -245.3384
 XXYZ=            -16.0655 YYXZ=             -9.0178 ZZXY=             -0.3943
 N-N= 1.108433128140D+03 E-N=-6.035179109773D+03  KE= 1.612249255503D+03
 Calling FoFJK, ICntrl=      2127 FMM=F ISym2X=0 I1Cent= 0 IOpClX= 0 NMat=1 NMatS=1 NMatT=0.
 ***** Axes restored to original set *****
 -------------------------------------------------------------------
 Center     Atomic                   Forces (Hartrees/Bohr)
 Number     Number              X              Y              Z
 -------------------------------------------------------------------
      1        6           0.018965906   -0.077517464    0.012120979
      2        6           0.026663337   -0.058348059    0.006095143
      3        6          -0.059720216    0.022881183    0.010761113
      4        6           0.008949304    0.011953729    0.001284858
      5        6           0.011413004    0.066162671   -0.018096061
      6        1           0.001248804    0.000427604   -0.000380231
      7       16          -0.008078030    0.031898289   -0.004169159
      8        1           0.005057376   -0.003241629    0.000117452
      9        6           0.055692130    0.054007216   -0.025258367
     10       16          -0.008042012    0.019485694    0.010607466
     11        6           0.000533170    0.050859092   -0.025312750
     12        6          -0.023816437   -0.051947676    0.000934187
     13        6          -0.039085121   -0.057632093    0.020189172
     14        1          -0.000636777   -0.001685753    0.006922848
     15       16           0.013820374   -0.020120578    0.005769103
     16        6          -0.044249232   -0.050639852    0.038054827
     17        6           0.027822232    0.055201560   -0.046702431
     18        1           0.003506763    0.005370785    0.005974623
     19        1           0.007583833    0.006088895    0.007310823
     20        1           0.001139194   -0.004105902   -0.000009052
     21        1           0.002820162    0.002084701   -0.000718117
     22        1          -0.001587765   -0.001182411   -0.005496426
 -------------------------------------------------------------------
 Cartesian Forces:  Max     0.077517464 RMS     0.028332315

 GradGradGradGradGradGradGradGradGradGradGradGradGradGradGradGradGradGrad
 Berny optimization.
 FormGI is forming the generalized inverse of G from B-inverse, IUseBI=4.
 Internal  Forces:  Max     0.081318087 RMS     0.016663121
 Search for a local minimum.
 Step number   1 out of a maximum of  127
 All quantities printed in internal units (Hartrees-Bohrs-Radians)
 Mixed Optimization -- RFO/linear search
 Second derivative matrix not updated -- first step.
 ITU=  0
     Eigenvalues ---    0.00935   0.00982   0.01056   0.01215   0.01241
     Eigenvalues ---    0.01276   0.01297   0.01420   0.01457   0.01495
     Eigenvalues ---    0.01498   0.01592   0.01595   0.01766   0.02199
     Eigenvalues ---    0.02651   0.07307   0.07353   0.15079   0.15681
     Eigenvalues ---    0.15737   0.15997   0.16000   0.16000   0.16000
     Eigenvalues ---    0.16000   0.18005   0.22444   0.22545   0.23321
     Eigenvalues ---    0.23978   0.24718   0.24978   0.24995   0.25000
     Eigenvalues ---    0.26147   0.26558   0.28353   0.30920   0.31247
     Eigenvalues ---    0.31627   0.33757   0.33818   0.34533   0.34829
     Eigenvalues ---    0.34935   0.35179   0.35877   0.35956   0.36006
     Eigenvalues ---    0.36111   0.36185   0.36328   0.37598   0.38292
     Eigenvalues ---    0.38438   0.39458   0.39736   0.405541000.00000
     Eigenvalues --- 1000.000001000.000001000.000001000.000001000.00000
     Eigenvalues --- 1000.000001000.000001000.000001000.000001000.00000
     Eigenvalues --- 1000.000001000.000001000.000001000.000001000.00000
     Eigenvalues --- 1000.000001000.000001000.000001000.000001000.00000
     Eigenvalues --- 1000.000001000.000001000.000001000.000001000.00000
     Eigenvalues --- 1000.000001000.000001000.000001000.000001000.00000
     Eigenvalues --- 1000.000001000.000001000.000001000.000001000.00000
     Eigenvalues --- 1000.000001000.000001000.000001000.000001000.00000
     Eigenvalues --- 1000.000001000.000001000.000001000.000001000.00000
     Eigenvalues --- 1000.000001000.000001000.000001000.000001000.00000
     Eigenvalues --- 1000.000001000.000001000.000001000.000001000.00000
     Eigenvalues --- 1000.000001000.00000
 RFO step:  Lambda=-7.89821677D-02 EMin= 9.35106172D-03
 Linear search not attempted -- first point.
 Maximum step size (   0.300) exceeded in Quadratic search.
    -- Step size scaled by   0.732
 Iteration  1 RMS(Cart)=  0.08040635 RMS(Int)=  0.00151386
 Iteration  2 RMS(Cart)=  0.00255846 RMS(Int)=  0.00038426
 Iteration  3 RMS(Cart)=  0.00000290 RMS(Int)=  0.00038425
 Iteration  4 RMS(Cart)=  0.00000000 RMS(Int)=  0.00038425
 Iteration  1 RMS(Cart)=  0.00000916 RMS(Int)=  0.00000343
 Iteration  2 RMS(Cart)=  0.00000499 RMS(Int)=  0.00000383
 Iteration  3 RMS(Cart)=  0.00000272 RMS(Int)=  0.00000433
 Iteration  4 RMS(Cart)=  0.00000148 RMS(Int)=  0.00000466
 Iteration  5 RMS(Cart)=  0.00000080 RMS(Int)=  0.00000485
 Variable       Old X    -DE/DX   Delta X   Delta X   Delta X     New X
                                 (Linear)    (Quad)   (Total)
    R1        2.71917  -0.01365   0.00000  -0.02290  -0.02282   2.69635
    R2        2.71391  -0.07263   0.00000  -0.11192  -0.11194   2.60197
    R3        2.03793  -0.00075   0.00000  -0.00124  -0.00124   2.03669
    R4        2.75906  -0.07689   0.00000  -0.12574  -0.12565   2.63341
    R5        2.81042   0.01157   0.00000   0.02033   0.02033   2.83076
    R6        3.39578  -0.02766   0.00000  -0.05661  -0.05663   3.33915
    R7        2.74954  -0.00679   0.00000  -0.01092  -0.01092   2.73861
    R8        2.06439  -0.00326   0.00000  -0.00562  -0.00562   2.05877
    R9        2.05781   0.00166   0.00000   0.00284   0.00284   2.06064
   R10        2.07638  -0.00483   0.00000  -0.00847  -0.00847   2.06790
   R11        3.28671  -0.02280   0.00000  -0.04107  -0.04118   3.24554
   R12        2.04073  -0.00265   0.00000  -0.00442  -0.00442   2.03631
   R13        3.38300  -0.01913   0.00000  -0.03653  -0.03696   3.34604
   R14        2.76783  -0.08132   0.00000  -0.13406  -0.13424   2.63359
   R15        3.26806  -0.00310   0.00000  -0.00467  -0.00465   3.26341
   R16        2.72204  -0.05585   0.00000  -0.08977  -0.08899   2.63305
   R17        2.69600   0.00106   0.00000  -0.00073  -0.00035   2.69565
   R18        2.70667  -0.00864   0.00000  -0.01544  -0.01515   2.69152
   R19        3.27519  -0.00336   0.00000  -0.00457  -0.00467   3.27052
   R20        2.03908  -0.00286   0.00000  -0.00476  -0.00476   2.03431
   R21        3.33654  -0.01808   0.00000  -0.03317  -0.03360   3.30294
   R22        2.73057  -0.08033   0.00000  -0.12599  -0.12608   2.60450
   R23        2.04151  -0.00287   0.00000  -0.00479  -0.00479   2.03671
   R24        2.05386  -0.00672   0.00000  -0.01142  -0.01142   2.04244
    A1        1.97020   0.00877   0.00000   0.01605   0.01611   1.98631
    A2        2.17330  -0.00556   0.00000  -0.01162  -0.01165   2.16165
    A3        2.13967  -0.00321   0.00000  -0.00442  -0.00445   2.13522
    A4        1.97187  -0.00158   0.00000  -0.00708  -0.00690   1.96497
    A5        2.09905   0.01135   0.00000   0.02702   0.02693   2.12598
    A6        2.21227  -0.00976   0.00000  -0.01994  -0.02003   2.19224
    A7        1.90440   0.00425   0.00000   0.01114   0.01122   1.91561
    A8        2.31891  -0.01594   0.00000  -0.03635  -0.03639   2.28252
    A9        2.05972   0.01169   0.00000   0.02515   0.02511   2.08482
   A10        1.94548  -0.00432   0.00000  -0.01265  -0.01262   1.93286
   A11        1.93409   0.00304   0.00000   0.00888   0.00889   1.94298
   A12        1.93331   0.00238   0.00000   0.00716   0.00716   1.94047
   A13        1.87410   0.00084   0.00000   0.00284   0.00287   1.87697
   A14        1.86607   0.00160   0.00000   0.00573   0.00576   1.87183
   A15        1.90848  -0.00370   0.00000  -0.01242  -0.01244   1.89604
   A16        1.95339  -0.00391   0.00000  -0.01041  -0.01052   1.94287
   A17        2.17580   0.00742   0.00000   0.02198   0.02203   2.19784
   A18        2.15384  -0.00351   0.00000  -0.01151  -0.01146   2.14239
   A19        1.62490  -0.00753   0.00000  -0.00968  -0.00989   1.61501
   A20        2.12921  -0.00105   0.00000  -0.00241  -0.00244   2.12677
   A21        2.24047  -0.00410   0.00000  -0.00921  -0.00924   2.23123
   A22        1.91283   0.00524   0.00000   0.01214   0.01210   1.92492
   A23        1.61917  -0.00582   0.00000  -0.00910  -0.00901   1.61016
   A24        1.96192  -0.01199   0.00000  -0.02295  -0.02358   1.93833
   A25        2.23830   0.00859   0.00000   0.03362   0.03227   2.27057
   A26        1.96536   0.00761   0.00000   0.01631   0.01662   1.98198
   A27        1.96650   0.00918   0.00000   0.01856   0.01865   1.98515
   A28        1.96688  -0.01473   0.00000  -0.02829  -0.02890   1.93798
   A29        2.23705   0.00974   0.00000   0.03642   0.03519   2.27224
   A30        1.96365   0.00343   0.00000   0.00151   0.00198   1.96563
   A31        2.15999  -0.00409   0.00000  -0.00636  -0.00687   2.15312
   A32        2.14750   0.00135   0.00000   0.01022   0.00967   2.15717
   A33        1.59277   0.00073   0.00000   0.00440   0.00449   1.59726
   A34        1.96011  -0.00013   0.00000  -0.00136  -0.00156   1.95856
   A35        2.13584  -0.00336   0.00000  -0.00728  -0.00788   2.12795
   A36        2.17010   0.00477   0.00000   0.01813   0.01761   2.18771
   A37        1.93934   0.00652   0.00000   0.00890   0.00928   1.94862
   A38        2.16544  -0.00014   0.00000   0.01022   0.00913   2.17456
   A39        2.14181  -0.00407   0.00000  -0.00258  -0.00373   2.13808
    D1        0.00683  -0.00011   0.00000  -0.00246  -0.00248   0.00436
    D2       -3.13456  -0.00010   0.00000  -0.00242  -0.00243  -3.13699
    D3       -3.13952  -0.00005   0.00000  -0.00118  -0.00120  -3.14072
    D4        0.00227  -0.00004   0.00000  -0.00114  -0.00115   0.00111
    D5       -0.00671   0.00027   0.00000   0.00180   0.00178  -0.00493
    D6       -3.13020  -0.00027   0.00000  -0.00167  -0.00170  -3.13190
    D7        3.13954   0.00022   0.00000   0.00057   0.00055   3.14009
    D8        0.01605  -0.00031   0.00000  -0.00290  -0.00293   0.01312
    D9       -0.00388   0.00001   0.00000   0.00214   0.00214  -0.00175
   D10        3.11762   0.00042   0.00000  -0.00128  -0.00126   3.11636
   D11        3.13750  -0.00000   0.00000   0.00210   0.00209   3.13959
   D12       -0.02418   0.00041   0.00000  -0.00132  -0.00130  -0.02549
   D13        0.03777  -0.00014   0.00000  -0.00053  -0.00054   0.03723
   D14       -2.04840  -0.00038   0.00000  -0.00170  -0.00169  -2.05008
   D15        2.11332   0.00063   0.00000   0.00315   0.00313   2.11645
   D16       -3.10360  -0.00013   0.00000  -0.00049  -0.00048  -3.10408
   D17        1.09342  -0.00037   0.00000  -0.00166  -0.00163   1.09179
   D18       -1.02805   0.00064   0.00000   0.00320   0.00319  -1.02486
   D19        0.00006   0.00017   0.00000  -0.00086  -0.00090  -0.00084
   D20       -3.12486   0.00018   0.00000   0.00276   0.00284  -3.12201
   D21       -3.05427  -0.00186   0.00000   0.00000  -0.00000  -3.05427
   D22        0.04334   0.00115   0.00000   0.01683   0.01691   0.06025
   D23        0.06582  -0.00152   0.00000  -0.00386  -0.00388   0.06194
   D24       -3.11975   0.00149   0.00000   0.01297   0.01303  -3.10673
   D25        0.00376  -0.00023   0.00000  -0.00048  -0.00047   0.00329
   D26        3.12751   0.00043   0.00000   0.00335   0.00329   3.13080
   D27        3.13753   0.00136   0.00000   0.00904   0.00910  -3.13655
   D28        0.03254  -0.00095   0.00000  -0.00454  -0.00470   0.02783
   D29       -3.13829  -0.00219   0.00000  -0.01278  -0.01264   3.13225
   D30       -0.15868   0.00265   0.00000   0.02409   0.02415  -0.13454
   D31       -0.03629   0.00042   0.00000   0.00214   0.00243  -0.03386
   D32        2.94332   0.00525   0.00000   0.03901   0.03922   2.98254
   D33       -0.02113   0.00166   0.00000   0.00669   0.00662  -0.01452
   D34       -2.61646  -0.00859   0.00000  -0.05314  -0.05329  -2.66975
   D35        0.00354  -0.00130   0.00000  -0.00596  -0.00580  -0.00225
   D36       -2.68864  -0.01188   0.00000  -0.06559  -0.06411  -2.75276
   D37        2.68736   0.00878   0.00000   0.05223   0.05126   2.73862
   D38       -0.00483  -0.00179   0.00000  -0.00740  -0.00705  -0.01188
   D39        2.61406   0.00686   0.00000   0.05636   0.05733   2.67139
   D40       -0.24596  -0.00120   0.00000  -0.00518  -0.00473  -0.25070
   D41        0.01959   0.00152   0.00000   0.00631   0.00614   0.02574
   D42       -2.84042  -0.00653   0.00000  -0.05522  -0.05593  -2.89635
   D43        0.02175   0.00067   0.00000   0.00246   0.00227   0.02402
   D44       -2.95920  -0.00354   0.00000  -0.03233  -0.03284  -2.99204
   D45        2.62835   0.00547   0.00000   0.05174   0.05278   2.68113
   D46       -0.35260   0.00126   0.00000   0.01695   0.01767  -0.33493
   D47       -0.00863   0.00157   0.00000   0.00546   0.00530  -0.00333
   D48       -2.61514  -0.00916   0.00000  -0.05545  -0.05541  -2.67055
   D49        0.01988  -0.00058   0.00000  -0.00167  -0.00170   0.01818
   D50        2.97145   0.00700   0.00000   0.05248   0.05204   3.02348
   D51       -0.02601  -0.00025   0.00000  -0.00203  -0.00178  -0.02779
   D52        2.83848   0.00838   0.00000   0.06092   0.06115   2.89963
   D53       -2.97318  -0.00695   0.00000  -0.05411  -0.05435  -3.02752
   D54       -0.10869   0.00169   0.00000   0.00884   0.00858  -0.10011
         Item               Value     Threshold  Converged?
 Maximum Force            0.081315     0.000450     NO 
 RMS     Force            0.016733     0.000300     NO 
 Maximum Displacement     0.245914     0.001800     NO 
 RMS     Displacement     0.080571     0.001200     NO 
 Predicted change in Energy=-4.161879D-02
 GradGradGradGradGradGradGradGradGradGradGradGradGradGradGradGradGradGrad

                          Input orientation:                          
 ---------------------------------------------------------------------
 Center     Atomic      Atomic             Coordinates (Angstroms)
 Number     Number       Type             X           Y           Z
 ---------------------------------------------------------------------
      1          6           0       -4.200878   -1.373963   -0.193475
      2          6           0       -2.889603   -0.998055   -0.611973
      3          6           0       -2.002186   -2.072469   -0.621181
      4          6           0       -2.555277    0.412495   -0.989454
      5          6           0       -4.323011   -2.709267    0.119423
      6          1           0       -5.028010   -0.686816   -0.120906
      7         16           0       -2.835853   -3.540217   -0.098670
      8          1           0       -5.223469   -3.202033    0.447315
      9          6           0       -0.604911   -2.142832   -0.999187
     10         16           0        0.275308   -3.678586   -1.042338
     11          6           0        1.737129   -2.905136   -1.539443
     12          6           0        1.552524   -1.531724   -1.684666
     13          6           0        0.226697   -1.097814   -1.397410
     14          1           0       -0.126775   -0.098423   -1.584903
     15         16           0        2.746733   -0.852165   -2.736966
     16          6           0        3.493852   -2.414394   -2.974020
     17          6           0        2.836627   -3.415312   -2.291549
     18          1           0        4.289877   -2.563408   -3.685183
     19          1           0        3.013006   -4.463683   -2.486392
     20          1           0       -3.419868    1.062285   -0.858439
     21          1           0       -2.247566    0.481333   -2.033316
     22          1           0       -1.752350    0.810185   -0.361268
 ---------------------------------------------------------------------
                    Distance matrix (angstroms):
                    1          2          3          4          5
     1  C    0.000000
     2  C    1.426846   0.000000
     3  C    2.346293   1.393542   0.000000
     4  C    2.555977   1.497971   2.572272   0.000000
     5  C    1.376902   2.349010   2.517982   3.754982   0.000000
     6  H    1.077768   2.216033   3.365401   2.842054   2.155247
     7  S    2.562214   2.594024   1.767004   4.061546   1.717464
     8  H    2.190467   3.380317   3.576907   4.716818   1.077570
     9  C    3.764480   2.584621   1.449212   3.214610   3.923825
    10  S    5.105693   4.169787   2.818504   4.975134   4.840848
    11  C    6.278220   5.089578   3.939418   5.452881   6.286136
    12  C    5.945601   4.600865   3.749582   4.597536   6.258055
    13  C    4.596644   3.215305   2.553508   3.191683   5.059388
    14  H    4.490143   3.064171   2.888388   2.552101   5.227774
    15  S    7.416934   6.025376   5.340217   5.724026   7.847870
    16  C    8.247593   6.952249   5.988254   6.965756   8.411877
    17  C    7.622040   6.438464   5.292208   6.739450   7.587602
    18  H    9.257415   7.964916   7.015639   7.935937   9.416907
    19  H    8.175816   7.096817   5.860808   7.551405   7.980313
    20  H    2.643380   2.141711   3.448593   1.089454   3.999561
    21  H    3.262295   2.149655   2.928523   1.090446   4.372835
    22  H    3.285414   2.150797   2.905110   1.094287   4.384735
                    6          7          8          9         10
     6  H    0.000000
     7  S    3.598326   0.000000
     8  H    2.586000   2.472484   0.000000
     9  C    4.738688   2.782214   4.954326   0.000000
    10  S    6.158320   3.254071   5.716880   1.770646   0.000000
    11  C    7.259497   4.836458   7.244673   2.521535   1.726922
    12  C    6.816351   5.080087   7.297215   2.344752   2.579318
    13  C    5.423129   4.126896   6.126586   1.393634   2.605537
    14  H    5.148942   4.625358   6.303855   2.179744   3.643297
    15  S    8.204739   6.734352   8.898632   3.989889   4.119267
    16  C    9.151334   7.042746   9.397743   4.557803   3.960883
    17  C    8.602843   6.082873   8.515398   3.890191   2.861852
    18  H   10.151290   8.036993  10.391782   5.599144   4.934067
    19  H    9.193378   6.384603   8.833907   4.548347   3.193221
    20  H    2.487857   4.701207   4.810653   4.268087   6.013651
    21  H    3.571100   4.501312   5.345720   3.264044   4.965064
    22  H    3.609534   4.490984   5.366597   3.231697   4.972355
                   11         12         13         14         15
    11  C    0.000000
    12  C    1.393351   0.000000
    13  C    2.359659   1.424293   0.000000
    14  H    3.369546   2.210057   1.076512   0.000000
    15  S    2.582257   1.730685   2.864495   3.186287   0.000000
    16  C    2.320541   2.492046   3.859194   4.516891   1.747839
    17  C    1.426477   2.359053   3.603056   4.503649   2.603113
    18  H    3.352238   3.543945   4.887873   5.476691   2.491739
    19  H    2.225678   3.372263   4.503163   5.452193   3.629980
    20  H    6.542080   5.668881   4.272465   3.566434   6.724652
    21  H    5.252607   4.314469   3.003342   2.243868   5.216930
    22  H    5.231460   4.261233   2.937801   2.228305   5.352485
                   16         17         18         19         20
    16  C    0.000000
    17  C    1.378240   0.000000
    18  H    1.077783   2.186296   0.000000
    19  H    2.160690   1.080813   2.584288   0.000000
    20  H    8.022624   7.826008   8.976430   8.635301   0.000000
    21  H    6.498772   6.410893   7.398465   7.234092   1.758446
    22  H    6.689321   6.529894   7.677112   7.418791   1.758223
                   21         22
    21  H    0.000000
    22  H    1.774578   0.000000
 Stoichiometry    C11H8S3
 Framework group  C1[X(C11H8S3)]
 Deg. of freedom    60
 Full point group                 C1      NOp   1
 Largest Abelian subgroup         C1      NOp   1
 Largest concise Abelian subgroup C1      NOp   1
                         Standard orientation:                         
 ---------------------------------------------------------------------
 Center     Atomic      Atomic             Coordinates (Angstroms)
 Number     Number       Type             X           Y           Z
 ---------------------------------------------------------------------
      1          6           0        3.935714    0.810348    0.161413
      2          6           0        2.559148    1.164271    0.036133
      3          6           0        1.725565    0.050568   -0.046115
      4          6           0        2.111308    2.593309    0.001379
      5          6           0        4.161821   -0.547834    0.170229
      6          1           0        4.735572    1.528488    0.239431
      7         16           0        2.692427   -1.426325    0.033058
      8          1           0        5.121730   -1.028400    0.263972
      9          6           0        0.283484   -0.046637   -0.151805
     10         16           0       -0.553427   -1.606495   -0.111691
     11          6           0       -2.099641   -0.858674   -0.291254
     12          6           0       -1.980298    0.527886   -0.359348
     13          6           0       -0.637573    0.993241   -0.263719
     14          1           0       -0.372760    2.031937   -0.164410
     15         16           0       -3.464497    1.301587    0.080894
     16          6           0       -4.242520   -0.240313    0.349534
     17          6           0       -3.388322   -1.299903    0.132370
     18          1           0       -5.233199   -0.313610    0.767624
     19          1           0       -3.617244   -2.305887    0.454467
     20          1           0        2.966469    3.266873    0.045203
     21          1           0        1.465087    2.827057    0.848038
     22          1           0        1.570182    2.815693   -0.923388
 ---------------------------------------------------------------------
 Rotational constants (GHZ):           1.2529646           0.2872165           0.2356652
 Standard basis: Aug-CC-pVDZ (5D, 7F)
 There are   434 symmetry adapted cartesian basis functions of A   symmetry.
 There are   406 symmetry adapted basis functions of A   symmetry.
   406 basis functions,   804 primitive gaussians,   434 cartesian basis functions
    61 alpha electrons       61 beta electrons
       nuclear repulsion energy      1124.9448176776 Hartrees.
 NAtoms=   22 NActive=   22 NUniq=   22 SFac= 1.00D+00 NAtFMM=   60 NAOKFM=F Big=F
 Integral buffers will be    131072 words long.
 Raffenetti 1 integral format.
 Two-electron integral symmetry is turned on.
 One-electron integrals computed using PRISM.
 NBasis=   406 RedAO= T EigKep=  3.05D-06  NBF=   406
 NBsUse=   406 1.00D-06 EigRej= -1.00D+00 NBFU=   406
 Initial guess from the checkpoint file:  "/tmp/pbs.4762177[0].pbs/Gau-93023.chk"
 B after Tr=     0.000000   -0.000000    0.000000
         Rot=    0.999992    0.001024    0.000403   -0.003797 Ang=   0.45 deg.
 ExpMin= 2.97D-02 ExpMax= 1.11D+05 ExpMxC= 1.07D+03 IAcc=3 IRadAn=         5 AccDes= 0.00D+00
 Harris functional with IExCor=  205 and IRadAn=       5 diagonalized for initial guess.
 HarFok:  IExCor=  205 AccDes= 0.00D+00 IRadAn=         5 IDoV= 1 UseB2=F ITyADJ=14
 ICtDFT=  3500011 ScaDFX=  1.000000  1.000000  1.000000  1.000000
 FoFCou: FMM=F IPFlag=           0 FMFlag=      100000 FMFlg1=           0
         NFxFlg=           0 DoJE=T BraDBF=F KetDBF=T FulRan=T
         wScrn=  0.000000 ICntrl=       500 IOpCl=  0 I1Cent=   200000004 NGrid=           0
         NMat0=    1 NMatS0=      1 NMatT0=    0 NMatD0=    1 NMtDS0=    0 NMtDT0=    0
 Petite list used in FoFCou.
 Requested convergence on RMS density matrix=1.00D-08 within 128 cycles.
 Requested convergence on MAX density matrix=1.00D-06.
 Requested convergence on             energy=1.00D-06.
 No special actions if energy rises.
 SCF Done:  E(RHF) =  -1613.79295336     A.U. after   16 cycles
            NFock= 16  Conv=0.46D-08     -V/T= 2.0003
 Calling FoFJK, ICntrl=      2127 FMM=F ISym2X=0 I1Cent= 0 IOpClX= 0 NMat=1 NMatS=1 NMatT=0.
 ***** Axes restored to original set *****
 -------------------------------------------------------------------
 Center     Atomic                   Forces (Hartrees/Bohr)
 Number     Number              X              Y              Z
 -------------------------------------------------------------------
      1        6          -0.002681818   -0.029731459    0.007587226
      2        6           0.018472953   -0.018223094   -0.000429374
      3        6          -0.032284515    0.003711796    0.007532258
      4        6           0.001571214    0.006759538    0.000978225
      5        6           0.001397159    0.028257503   -0.007707983
      6        1           0.000344933    0.001645292   -0.000450321
      7       16           0.002467194    0.007548331   -0.001788643
      8        1           0.002852971   -0.002679172    0.000436518
      9        6           0.031263679    0.024237938   -0.012476024
     10       16          -0.006201860    0.002872404    0.010562557
     11        6          -0.006309437    0.023767714   -0.013550574
     12        6          -0.005295129   -0.027551324   -0.007258417
     13        6          -0.020533415   -0.019529607    0.009116145
     14        1           0.002929921   -0.001327894    0.005108518
     15       16           0.011545400    0.000464418    0.002040092
     16        6          -0.019685178   -0.021730201    0.013592372
     17        6           0.013179104    0.017346973   -0.021725109
     18        1           0.002841728    0.004376597    0.003659131
     19        1           0.004837656    0.001470937    0.007121931
     20        1          -0.000054969   -0.001556990   -0.000103294
     21        1           0.000728413    0.000637749    0.000100794
     22        1          -0.001386006   -0.000767451   -0.002346028
 -------------------------------------------------------------------
 Cartesian Forces:  Max     0.032284515 RMS     0.012562188

 GradGradGradGradGradGradGradGradGradGradGradGradGradGradGradGradGradGrad
 Berny optimization.
 Using GEDIIS/GDIIS optimizer.
 FormGI is forming the generalized inverse of G from B-inverse, IUseBI=4.
 Internal  Forces:  Max     0.029558917 RMS     0.006212541
 Search for a local minimum.
 Step number   2 out of a maximum of  127
 All quantities printed in internal units (Hartrees-Bohrs-Radians)
 Mixed Optimization -- RFO/linear search
 Update second derivatives using D2CorX and points    1    2
 DE= -4.07D-02 DEPred=-4.16D-02 R= 9.77D-01
 TightC=F SS=  1.41D+00  RLast= 3.54D-01 DXNew= 5.0454D-01 1.0623D+00
 Trust test= 9.77D-01 RLast= 3.54D-01 DXMaxT set to 5.05D-01
 ITU=  1  0
 Use linear search instead of GDIIS.
     Eigenvalues ---    0.00935   0.00981   0.01050   0.01210   0.01241
     Eigenvalues ---    0.01272   0.01291   0.01382   0.01461   0.01480
     Eigenvalues ---    0.01500   0.01587   0.01592   0.01708   0.02045
     Eigenvalues ---    0.02361   0.07251   0.07383   0.15455   0.15765
     Eigenvalues ---    0.15835   0.15966   0.16000   0.16000   0.16000
     Eigenvalues ---    0.16018   0.18730   0.22457   0.22560   0.23426
     Eigenvalues ---    0.24238   0.24423   0.24784   0.24997   0.25183
     Eigenvalues ---    0.26284   0.26768   0.28450   0.30834   0.31012
     Eigenvalues ---    0.31516   0.33683   0.33807   0.34534   0.34775
     Eigenvalues ---    0.34939   0.35181   0.35497   0.35956   0.36006
     Eigenvalues ---    0.36099   0.36171   0.36282   0.36815   0.38221
     Eigenvalues ---    0.38956   0.39557   0.40335   0.463821000.00000
     Eigenvalues --- 1000.000001000.000001000.000001000.000001000.00000
     Eigenvalues --- 1000.000001000.000001000.000001000.000001000.00000
     Eigenvalues --- 1000.000001000.000001000.000001000.000001000.00000
     Eigenvalues --- 1000.000001000.000001000.000001000.000001000.00000
     Eigenvalues --- 1000.000001000.000001000.000001000.000001000.00000
     Eigenvalues --- 1000.000001000.000001000.000001000.000001000.00000
     Eigenvalues --- 1000.000001000.000001000.000001000.000001000.00000
     Eigenvalues --- 1000.000001000.000001000.000001000.000001000.00000
     Eigenvalues --- 1000.000001000.000001000.000001000.000001000.00000
     Eigenvalues --- 1000.000001000.000001000.000001000.000001000.00000
     Eigenvalues --- 1000.000001000.000001000.000001000.000001000.00000
     Eigenvalues --- 1000.000001000.00000
 RFO step:  Lambda=-1.01164103D-02 EMin= 9.35109424D-03
 Quartic linear search produced a step of  0.46351.
 Iteration  1 RMS(Cart)=  0.09550311 RMS(Int)=  0.00663006
 Iteration  2 RMS(Cart)=  0.00913122 RMS(Int)=  0.00224299
 Iteration  3 RMS(Cart)=  0.00005014 RMS(Int)=  0.00224258
 Iteration  4 RMS(Cart)=  0.00000004 RMS(Int)=  0.00224258
 Iteration  1 RMS(Cart)=  0.00003333 RMS(Int)=  0.00001256
 Iteration  2 RMS(Cart)=  0.00001825 RMS(Int)=  0.00001403
 Iteration  3 RMS(Cart)=  0.00000999 RMS(Int)=  0.00001585
 Iteration  4 RMS(Cart)=  0.00000547 RMS(Int)=  0.00001706
 Iteration  5 RMS(Cart)=  0.00000299 RMS(Int)=  0.00001777
 Iteration  6 RMS(Cart)=  0.00000164 RMS(Int)=  0.00001817
 Iteration  7 RMS(Cart)=  0.00000090 RMS(Int)=  0.00001839
 Variable       Old X    -DE/DX   Delta X   Delta X   Delta X     New X
                                 (Linear)    (Quad)   (Total)
    R1        2.69635   0.00281  -0.01058   0.02589   0.01534   2.71169
    R2        2.60197  -0.02623  -0.05189  -0.01095  -0.06287   2.53909
    R3        2.03669   0.00075  -0.00058   0.00385   0.00328   2.03997
    R4        2.63341  -0.02310  -0.05824   0.00646  -0.05173   2.58169
    R5        2.83076   0.00531   0.00942   0.00646   0.01588   2.84664
    R6        3.33915  -0.01016  -0.02625  -0.00515  -0.03138   3.30778
    R7        2.73861   0.00905  -0.00506   0.04189   0.03683   2.77544
    R8        2.05877  -0.00090  -0.00261   0.00064  -0.00197   2.05680
    R9        2.06064   0.00015   0.00132  -0.00155  -0.00024   2.06041
   R10        2.06790  -0.00264  -0.00393  -0.00445  -0.00838   2.05953
   R11        3.24554  -0.00355  -0.01909   0.01660  -0.00254   3.24299
   R12        2.03631  -0.00103  -0.00205  -0.00067  -0.00272   2.03359
   R13        3.34604  -0.00619  -0.01713   0.00844  -0.01127   3.33477
   R14        2.63359  -0.02956  -0.06222  -0.00899  -0.07280   2.56078
   R15        3.26341   0.00309  -0.00216   0.01522   0.01371   3.27712
   R16        2.63305  -0.02138  -0.04125  -0.02353  -0.06027   2.57278
   R17        2.69565   0.00485  -0.00016   0.01296   0.01436   2.71001
   R18        2.69152   0.00309  -0.00702   0.01794   0.01229   2.70382
   R19        3.27052   0.00372  -0.00216   0.01909   0.01677   3.28729
   R20        2.03431  -0.00308  -0.00221  -0.00840  -0.01060   2.02371
   R21        3.30294  -0.00523  -0.01558   0.01024  -0.00739   3.29555
   R22        2.60450  -0.02830  -0.05844  -0.00623  -0.06535   2.53914
   R23        2.03671  -0.00092  -0.00222   0.00002  -0.00220   2.03451
   R24        2.04244  -0.00192  -0.00529   0.00099  -0.00430   2.03814
    A1        1.98631   0.00185   0.00747  -0.00584   0.00162   1.98793
    A2        2.16165  -0.00252  -0.00540  -0.00701  -0.01241   2.14924
    A3        2.13522   0.00067  -0.00206   0.01286   0.01080   2.14602
    A4        1.96497  -0.00169  -0.00320  -0.00460  -0.00771   1.95726
    A5        2.12598  -0.00103   0.01248  -0.02785  -0.01542   2.11056
    A6        2.19224   0.00272  -0.00928   0.03245   0.02312   2.21536
    A7        1.91561   0.00261   0.00520   0.00668   0.01196   1.92757
    A8        2.28252  -0.00193  -0.01687   0.01900   0.00209   2.28461
    A9        2.08482  -0.00067   0.01164  -0.02575  -0.01416   2.07067
   A10        1.93286  -0.00193  -0.00585  -0.00425  -0.01009   1.92277
   A11        1.94298   0.00106   0.00412  -0.00015   0.00397   1.94695
   A12        1.94047   0.00091   0.00332   0.00129   0.00461   1.94508
   A13        1.87697   0.00032   0.00133  -0.00156  -0.00021   1.87676
   A14        1.87183   0.00076   0.00267   0.00109   0.00378   1.87561
   A15        1.89604  -0.00114  -0.00576   0.00367  -0.00212   1.89392
   A16        1.94287   0.00001  -0.00488   0.00777   0.00278   1.94564
   A17        2.19784   0.00383   0.01021   0.01187   0.02209   2.21992
   A18        2.14239  -0.00383  -0.00531  -0.01946  -0.02477   2.11762
   A19        1.61501  -0.00278  -0.00458  -0.00399  -0.00863   1.60638
   A20        2.12677  -0.00736  -0.00113  -0.04004  -0.04130   2.08547
   A21        2.23123   0.00492  -0.00428   0.03375   0.02932   2.26055
   A22        1.92492   0.00249   0.00561   0.00703   0.01212   1.93704
   A23        1.61016  -0.00263  -0.00417  -0.01074  -0.01294   1.59722
   A24        1.93833  -0.00339  -0.01093   0.00951  -0.00382   1.93452
   A25        2.27057   0.00447   0.01496   0.04615   0.05067   2.32124
   A26        1.98198   0.00194   0.00770  -0.00010   0.00693   1.98891
   A27        1.98515   0.00183   0.00865  -0.00165   0.00585   1.99100
   A28        1.93798  -0.00318  -0.01340   0.01708   0.00074   1.93872
   A29        2.27224   0.00435   0.01631   0.04176   0.04742   2.31967
   A30        1.96563   0.00173   0.00092  -0.00338  -0.00068   1.96495
   A31        2.15312   0.00044  -0.00318   0.02365   0.01719   2.17031
   A32        2.15717  -0.00172   0.00448  -0.01069  -0.00955   2.14762
   A33        1.59726  -0.00254   0.00208  -0.02359  -0.01860   1.57866
   A34        1.95856   0.00275  -0.00072   0.02127   0.01890   1.97745
   A35        2.12795  -0.00461  -0.00365  -0.02076  -0.02938   2.09857
   A36        2.18771   0.00262   0.00816   0.01621   0.01935   2.20706
   A37        1.94862   0.00105   0.00430  -0.01387  -0.00778   1.94084
   A38        2.17456  -0.00037   0.00423   0.00908   0.00674   2.18130
   A39        2.13808   0.00063  -0.00173   0.02905   0.02088   2.15897
    D1        0.00436  -0.00008  -0.00115  -0.00397  -0.00515  -0.00080
    D2       -3.13699  -0.00006  -0.00112  -0.00212  -0.00330  -3.14029
    D3       -3.14072  -0.00005  -0.00056  -0.00272  -0.00336   3.13910
    D4        0.00111  -0.00003  -0.00053  -0.00087  -0.00151  -0.00039
    D5       -0.00493   0.00025   0.00082   0.00539   0.00618   0.00125
    D6       -3.13190  -0.00030  -0.00079  -0.00830  -0.00926  -3.14116
    D7        3.14009   0.00022   0.00026   0.00421   0.00444  -3.13866
    D8        0.01312  -0.00033  -0.00136  -0.00949  -0.01100   0.00212
    D9       -0.00175  -0.00009   0.00099   0.00070   0.00172  -0.00002
   D10        3.11636   0.00027  -0.00058  -0.00296  -0.00360   3.11276
   D11        3.13959  -0.00012   0.00097  -0.00123  -0.00027   3.13932
   D12       -0.02549   0.00024  -0.00060  -0.00489  -0.00560  -0.03108
   D13        0.03723  -0.00022  -0.00025  -0.00797  -0.00823   0.02900
   D14       -2.05008  -0.00004  -0.00078  -0.00309  -0.00387  -2.05395
   D15        2.11645   0.00006   0.00145  -0.00855  -0.00713   2.10932
   D16       -3.10408  -0.00020  -0.00022  -0.00587  -0.00608  -3.11016
   D17        1.09179  -0.00001  -0.00076  -0.00099  -0.00172   1.09007
   D18       -1.02486   0.00008   0.00148  -0.00645  -0.00498  -1.02984
   D19       -0.00084   0.00021  -0.00042   0.00197   0.00145   0.00060
   D20       -3.12201  -0.00007   0.00132   0.00452   0.00583  -3.11618
   D21       -3.05427  -0.00167  -0.00000   0.00000  -0.00000  -3.05427
   D22        0.06025   0.00095   0.00784   0.03799   0.04607   0.10632
   D23        0.06194  -0.00125  -0.00180  -0.00352  -0.00538   0.05656
   D24       -3.10673   0.00137   0.00604   0.03446   0.04070  -3.06603
   D25        0.00329  -0.00026  -0.00022  -0.00417  -0.00435  -0.00106
   D26        3.13080   0.00035   0.00152   0.00932   0.01049   3.14129
   D27       -3.13655   0.00119   0.00422   0.01397   0.01725  -3.11930
   D28        0.02783  -0.00108  -0.00218  -0.01854  -0.02124   0.00660
   D29        3.13225  -0.00125  -0.00586  -0.01113  -0.01769   3.11456
   D30       -0.13454   0.00250   0.01119   0.07005   0.08160  -0.05294
   D31       -0.03386   0.00099   0.00113   0.02259   0.02454  -0.00932
[...]
 Rotational constants (GHZ):           1.2909122           0.2831414           0.2328823

 **********************************************************************

            Population analysis using the SCF Density.

 **********************************************************************

 Orbital symmetries:
       Occupied  (A) (A) (A) (A) (A) (A) (A) (A) (A) (A) (A) (A)
                 (A) (A) (A) (A) (A) (A) (A) (A) (A) (A) (A) (A)
                 (A) (A) (A) (A) (A) (A) (A) (A) (A) (A) (A) (A)
                 (A) (A) (A) (A) (A) (A) (A) (A) (A) (A) (A) (A)
                 (A) (A) (A) (A) (A) (A) (A) (A) (A) (A) (A) (A)
                 (A)
       Virtual   (A) (A) (A) (A) (A) (A) (A) (A) (A) (A) (A) (A)
                 (A) (A) (A) (A) (A) (A) (A) (A) (A) (A) (A) (A)
                 (A) (A) (A) (A) (A) (A) (A) (A) (A) (A) (A) (A)
                 (A) (A) (A) (A) (A) (A) (A) (A) (A) (A) (A) (A)
                 (A) (A) (A) (A) (A) (A) (A) (A) (A) (A) (A) (A)
                 (A) (A) (A) (A) (A) (A) (A) (A) (A) (A) (A) (A)
                 (A) (A) (A) (A) (A) (A) (A) (A) (A) (A) (A) (A)
                 (A) (A) (A) (A) (A) (A) (A) (A) (A) (A) (A) (A)
                 (A) (A) (A) (A) (A) (A) (A) (A) (A) (A) (A) (A)
                 (A) (A) (A) (A) (A) (A) (A) (A) (A) (A) (A) (A)
                 (A) (A) (A) (A) (A) (A) (A) (A) (A) (A) (A) (A)
                 (A) (A) (A) (A) (A) (A) (A) (A) (A) (A) (A) (A)
                 (A) (A) (A) (A) (A) (A) (A) (A) (A) (A) (A) (A)
                 (A) (A) (A) (A) (A) (A) (A) (A) (A) (A) (A) (A)
                 (A) (A) (A) (A) (A) (A) (A) (A) (A) (A) (A) (A)
                 (A) (A) (A) (A) (A) (A) (A) (A) (A) (A) (A) (A)
                 (A) (A) (A) (A) (A) (A) (A) (A) (A) (A) (A) (A)
                 (A) (A) (A) (A) (A) (A) (A) (A) (A) (A) (A) (A)
                 (A) (A) (A) (A) (A) (A) (A) (A) (A) (A) (A) (A)
                 (A) (A) (A) (A) (A) (A) (A) (A) (A) (A) (A) (A)
                 (A) (A) (A) (A) (A) (A) (A) (A) (A) (A) (A) (A)
                 (A) (A) (A) (A) (A) (A) (A) (A) (A) (A) (A) (A)
                 (A) (A) (A) (A) (A) (A) (A) (A) (A) (A) (A) (A)
                 (A) (A) (A) (A) (A) (A) (A) (A) (A) (A) (A) (A)
                 (A) (A) (A) (A) (A) (A) (A) (A) (A) (A) (A) (A)
                 (A) (A) (A) (A) (A) (A) (A) (A) (A) (A) (A) (A)
                 (A) (A) (A) (A) (A) (A) (A) (A) (A) (A) (A) (A)
                 (A) (A) (A) (A) (A) (A) (A) (A) (A) (A) (A) (A)
                 (A) (A) (A) (A) (A) (A) (A) (A) (A)
 The electronic state is 1-A.
 Alpha  occ. eigenvalues --  -91.99042 -91.98915 -91.98569 -11.29431 -11.28132
 Alpha  occ. eigenvalues --  -11.27751 -11.27277 -11.27188 -11.27126 -11.25826
 Alpha  occ. eigenvalues --  -11.25714 -11.25619 -11.24514 -11.24272  -8.99223
 Alpha  occ. eigenvalues --   -8.99121  -8.98835  -6.67390  -6.67313  -6.67289
 Alpha  occ. eigenvalues --   -6.67207  -6.67107  -6.67004  -6.66994  -6.66911
 Alpha  occ. eigenvalues --   -6.66718  -1.21819  -1.18802  -1.12874  -1.04431
 Alpha  occ. eigenvalues --   -1.02447  -1.02027  -0.95938  -0.94500  -0.92392
 Alpha  occ. eigenvalues --   -0.82382  -0.77407  -0.77091  -0.72707  -0.70343
 Alpha  occ. eigenvalues --   -0.67529  -0.66932  -0.60619  -0.59543  -0.59124
 Alpha  occ. eigenvalues --   -0.56707  -0.56405  -0.55031  -0.54269  -0.52432
 Alpha  occ. eigenvalues --   -0.52206  -0.51463  -0.49370  -0.47467  -0.47067
 Alpha  occ. eigenvalues --   -0.45572  -0.39362  -0.35749  -0.34468  -0.32213
 Alpha  occ. eigenvalues --   -0.27721
 Alpha virt. eigenvalues --    0.03312   0.03528   0.03932   0.04918   0.05037
 Alpha virt. eigenvalues --    0.05697   0.06337   0.06659   0.07999   0.08240
 Alpha virt. eigenvalues --    0.09561   0.09752   0.10257   0.10822   0.11339
 Alpha virt. eigenvalues --    0.12073   0.12130   0.12563   0.12806   0.13062
 Alpha virt. eigenvalues --    0.13217   0.13592   0.14166   0.14538   0.14807
 Alpha virt. eigenvalues --    0.15012   0.15155   0.16014   0.16267   0.16828
 Alpha virt. eigenvalues --    0.17050   0.17329   0.17499   0.18123   0.18460
 Alpha virt. eigenvalues --    0.18878   0.19213   0.19666   0.19958   0.20293
 Alpha virt. eigenvalues --    0.20560   0.20859   0.21860   0.21978   0.22334
 Alpha virt. eigenvalues --    0.22614   0.22912   0.23589   0.24338   0.25094
 Alpha virt. eigenvalues --    0.25244   0.25595   0.25877   0.26067   0.27202
 Alpha virt. eigenvalues --    0.27530   0.28039   0.28357   0.28493   0.28955
 Alpha virt. eigenvalues --    0.29612   0.29920   0.30561   0.31019   0.31528
 Alpha virt. eigenvalues --    0.32555   0.32803   0.33650   0.34178   0.34372
 Alpha virt. eigenvalues --    0.35158   0.35433   0.35721   0.36220   0.36503
 Alpha virt. eigenvalues --    0.37568   0.38160   0.39183   0.39364   0.39898
 Alpha virt. eigenvalues --    0.40431   0.40665   0.41291   0.42556   0.43530
 Alpha virt. eigenvalues --    0.43710   0.43943   0.44102   0.44826   0.45076
 Alpha virt. eigenvalues --    0.46284   0.46465   0.46966   0.47248   0.47802
 Alpha virt. eigenvalues --    0.48209   0.48940   0.49354   0.50168   0.51597
 Alpha virt. eigenvalues --    0.52364   0.52731   0.53151   0.54444   0.55644
 Alpha virt. eigenvalues --    0.55914   0.56260   0.57410   0.58405   0.59176
 Alpha virt. eigenvalues --    0.59627   0.60126   0.60535   0.61511   0.62396
 Alpha virt. eigenvalues --    0.62798   0.63338   0.63731   0.63966   0.64622
 Alpha virt. eigenvalues --    0.65678   0.65972   0.66296   0.67373   0.67723
 Alpha virt. eigenvalues --    0.67947   0.68119   0.68653   0.69134   0.69297
 Alpha virt. eigenvalues --    0.70065   0.70188   0.71176   0.71759   0.72592
 Alpha virt. eigenvalues --    0.72686   0.73365   0.74201   0.74688   0.74874
 Alpha virt. eigenvalues --    0.75165   0.75422   0.76809   0.77153   0.77628
 Alpha virt. eigenvalues --    0.78242   0.78858   0.80032   0.80318   0.81307
 Alpha virt. eigenvalues --    0.81980   0.82149   0.82607   0.83414   0.84004
 Alpha virt. eigenvalues --    0.84881   0.85421   0.86630   0.86953   0.87311
 Alpha virt. eigenvalues --    0.88502   0.88902   0.89392   0.89928   0.90190
 Alpha virt. eigenvalues --    0.91334   0.92446   0.92946   0.94059   0.94845
 Alpha virt. eigenvalues --    0.95254   0.95725   0.96177   0.97359   0.98103
 Alpha virt. eigenvalues --    0.98455   0.99255   0.99842   1.00808   1.02007
 Alpha virt. eigenvalues --    1.02190   1.02641   1.04269   1.05504   1.06005
 Alpha virt. eigenvalues --    1.06470   1.07098   1.10170   1.10660   1.11191
 Alpha virt. eigenvalues --    1.11527   1.11929   1.13278   1.14586   1.15788
 Alpha virt. eigenvalues --    1.17480   1.18924   1.20326   1.21347   1.21745
 Alpha virt. eigenvalues --    1.22084   1.24159   1.24703   1.25076   1.25881
 Alpha virt. eigenvalues --    1.27625   1.28452   1.28891   1.29672   1.30534
 Alpha virt. eigenvalues --    1.31195   1.31870   1.32420   1.32924   1.35135
 Alpha virt. eigenvalues --    1.35920   1.37053   1.37327   1.38860   1.39339
 Alpha virt. eigenvalues --    1.41138   1.42855   1.43983   1.44902   1.47967
 Alpha virt. eigenvalues --    1.48475   1.49478   1.50038   1.50794   1.54137
 Alpha virt. eigenvalues --    1.55278   1.58002   1.58693   1.59730   1.60137
 Alpha virt. eigenvalues --    1.61782   1.62861   1.63291   1.65498   1.65921
 Alpha virt. eigenvalues --    1.66981   1.67938   1.68557   1.70164   1.71301
 Alpha virt. eigenvalues --    1.71643   1.72282   1.72500   1.73488   1.74340
 Alpha virt. eigenvalues --    1.75786   1.77430   1.78178   1.79303   1.80207
 Alpha virt. eigenvalues --    1.80728   1.81611   1.82364   1.83634   1.84968
 Alpha virt. eigenvalues --    1.86422   1.87237   1.88223   1.90262   1.90908
 Alpha virt. eigenvalues --    1.92359   1.93840   1.94835   1.95912   1.96778
 Alpha virt. eigenvalues --    1.97093   1.98317   1.98903   2.01884   2.02972
 Alpha virt. eigenvalues --    2.04609   2.06489   2.06805   2.08102   2.10438
 Alpha virt. eigenvalues --    2.11554   2.12394   2.12958   2.14428   2.15286
 Alpha virt. eigenvalues --    2.16131   2.17533   2.19318   2.21008   2.22628
 Alpha virt. eigenvalues --    2.23132   2.23499   2.24553   2.27400   2.28589
 Alpha virt. eigenvalues --    2.29115   2.30481   2.32298   2.34560   2.34769
 Alpha virt. eigenvalues --    2.36769   2.37905   2.39794   2.40084   2.41586
 Alpha virt. eigenvalues --    2.43467   2.46106   2.47246   2.48188   2.48340
 Alpha virt. eigenvalues --    2.50022   2.50494   2.52204   2.55410   2.56624
 Alpha virt. eigenvalues --    2.59514   2.62513   2.65424   2.69983   2.71695
 Alpha virt. eigenvalues --    2.73231   2.78473   2.81713   2.85781   2.86151
 Alpha virt. eigenvalues --    2.88914   2.90402   2.93913   3.00865   3.01903
 Alpha virt. eigenvalues --    3.06973   3.09624   3.11953   3.14628   3.21237
 Alpha virt. eigenvalues --    3.29816   3.35793   3.40317   3.41927   3.56611
 Alpha virt. eigenvalues --    3.73474   3.79323   3.93238   4.12784   4.28500
          Condensed to atoms (all electrons):
               1          2          3          4          5          6
     1  C   11.639204  -2.623422  -1.399859  -1.170417  -0.197498  -0.764816
     2  C   -2.623422  13.714834  -3.920014   0.561555  -0.098397   0.421417
     3  C   -1.399859  -3.920014  17.783562  -1.363256  -1.006157   0.302963
     4  C   -1.170417   0.561555  -1.363256   6.483434  -0.016286   0.069224
     5  C   -0.197498  -0.098397  -1.006157  -0.016286   7.518298  -0.080565
     6  H   -0.764816   0.421417   0.302963   0.069224  -0.080565   1.833371
     7  S   -0.434260  -0.215538  -0.411442   0.186390   0.012922  -0.072612
     8  H    0.070494   0.124084  -0.091405   0.037932   0.038117  -0.063149
     9  C    0.811457  -0.578832  -4.389669   0.766472   0.028532  -0.145274
    10  S    0.039624   0.227408  -0.732569   0.086493  -0.162278  -0.015784
    11  C    0.065628   0.221393  -0.090413  -0.087464  -0.069844  -0.002838
    12  C   -0.111585  -0.181362   0.786863   0.104900   0.003654   0.003659
    13  C   -0.617309  -1.437464   1.020358  -0.858271   0.278863   0.081958
    14  H    0.054260   0.047335  -0.038528   0.140489  -0.004786   0.005976
    15  S   -0.003391   0.000831  -0.055469  -0.003197   0.001690  -0.000172
    16  C    0.002795   0.003423  -0.011427  -0.000851  -0.000727   0.000044
    17  C    0.005746  -0.019415  -0.251905  -0.017033   0.001487   0.000334
    18  H    0.000156   0.000544  -0.002411  -0.000616  -0.000032   0.000008
    19  H   -0.000193   0.002991  -0.002821   0.000841   0.000017  -0.000038
    20  H    0.075509   0.003521   0.203427  -0.193230   0.014723  -0.030726
    21  H   -0.047284   0.040022  -0.119291   0.333808  -0.009228   0.002665
    22  H   -0.010907   0.021836  -0.144884   0.369237   0.001584  -0.001828
               7          8          9         10         11         12
     1  C   -0.434260   0.070494   0.811457   0.039624   0.065628  -0.111585
     2  C   -0.215538   0.124084  -0.578832   0.227408   0.221393  -0.181362
     3  C   -0.411442  -0.091405  -4.389669  -0.732569  -0.090413   0.786863
     4  C    0.186390   0.037932   0.766472   0.086493  -0.087464   0.104900
     5  C    0.012922   0.038117   0.028532  -0.162278  -0.069844   0.003654
     6  H   -0.072612  -0.063149  -0.145274  -0.015784  -0.002838   0.003659
     7  S   16.812631  -0.042377  -0.168475   0.127907  -0.064379  -0.069570
     8  H   -0.042377   1.310930  -0.001143   0.018522   0.004745  -0.002820
     9  C   -0.168475  -0.001143  17.246193   0.326472  -1.580967   0.006898
    10  S    0.127907   0.018522   0.326472  17.462233   0.026552  -0.761086
    11  C   -0.064379   0.004745  -1.580967   0.026552  12.611803  -2.212722
    12  C   -0.069570  -0.002820   0.006898  -0.761086  -2.212722  15.953804
    13  C   -0.191331  -0.015600  -6.541402  -1.273820  -0.054184  -5.013042
    14  H   -0.013885  -0.001577   1.068207   0.035819  -0.175980   0.546462
    15  S    0.003016   0.000026  -0.488986   0.192984   0.363492  -1.018482
    16  C   -0.007929  -0.000008   0.050142  -0.156973  -0.027229  -1.312636
    17  C    0.038257  -0.000246  -0.151593  -0.057415  -3.113320  -0.469909
    18  H   -0.000064  -0.000003   0.004645   0.020575   0.143696  -0.108839
    19  H    0.000046   0.000034   0.077668   0.015846   0.611419   0.076055
    20  H   -0.019350  -0.000169  -0.083836  -0.002583  -0.000492   0.039233
    21  H    0.014327   0.002039   0.081099   0.003847  -0.004671  -0.046523
    22  H    0.016364   0.002569   0.093314   0.007683  -0.008099  -0.039900
              13         14         15         16         17         18
     1  C   -0.617309   0.054260  -0.003391   0.002795   0.005746   0.000156
     2  C   -1.437464   0.047335   0.000831   0.003423  -0.019415   0.000544
     3  C    1.020358  -0.038528  -0.055469  -0.011427  -0.251905  -0.002411
     4  C   -0.858271   0.140489  -0.003197  -0.000851  -0.017033  -0.000616
     5  C    0.278863  -0.004786   0.001690  -0.000727   0.001487  -0.000032
     6  H    0.081958   0.005976  -0.000172   0.000044   0.000334   0.000008
     7  S   -0.191331  -0.013885   0.003016  -0.007929   0.038257  -0.000064
     8  H   -0.015600  -0.001577   0.000026  -0.000008  -0.000246  -0.000003
     9  C   -6.541402   1.068207  -0.488986   0.050142  -0.151593   0.004645
    10  S   -1.273820   0.035819   0.192984  -0.156973  -0.057415   0.020575
    11  C   -0.054184  -0.175980   0.363492  -0.027229  -3.113320   0.143696
    12  C   -5.013042   0.546462  -1.018482  -1.312636  -0.469909  -0.108839
    13  C   22.114340  -2.319865   0.387687   0.078429  -0.657939   0.018157
    14  H   -2.319865   2.601397  -0.058243   0.026012  -0.061219   0.004252
    15  S    0.387687  -0.058243  16.220660   0.280523  -0.184914  -0.134172
    16  C    0.078429   0.026012   0.280523   7.112090   0.074026   0.175860
    17  C   -0.657939  -0.061219  -0.184914   0.074026  11.020357   0.010259
    18  H    0.018157   0.004252  -0.134172   0.175860   0.010259   1.328508
    19  H   -0.050047  -0.000508  -0.003445  -0.109396  -0.630070  -0.071212
    20  H    0.008167   0.054789  -0.000555   0.000495  -0.000273   0.000014
    21  H    0.049258  -0.087504   0.001081  -0.001631   0.000323  -0.000113
    22  H    0.013935  -0.096035  -0.000581  -0.001688   0.001293  -0.000177
              19         20         21         22
     1  C   -0.000193   0.075509  -0.047284  -0.010907
     2  C    0.002991   0.003521   0.040022   0.021836
     3  C   -0.002821   0.203427  -0.119291  -0.144884
     4  C    0.000841  -0.193230   0.333808   0.369237
     5  C    0.000017   0.014723  -0.009228   0.001584
     6  H   -0.000038  -0.030726   0.002665  -0.001828
     7  S    0.000046  -0.019350   0.014327   0.016364
     8  H    0.000034  -0.000169   0.002039   0.002569
     9  C    0.077668  -0.083836   0.081099   0.093314
    10  S    0.015846  -0.002583   0.003847   0.007683
    11  C    0.611419  -0.000492  -0.004671  -0.008099
    12  C    0.076055   0.039233  -0.046523  -0.039900
    13  C   -0.050047   0.008167   0.049258   0.013935
    14  H   -0.000508   0.054789  -0.087504  -0.096035
    15  S   -0.003445  -0.000555   0.001081  -0.000581
    16  C   -0.109396   0.000495  -0.001631  -0.001688
    17  C   -0.630070  -0.000273   0.000323   0.001293
    18  H   -0.071212   0.000014  -0.000113  -0.000177
    19  H    1.420445   0.000065   0.000153   0.000191
    20  H    0.000065   1.683391  -0.221833  -0.212357
    21  H    0.000153  -0.221833   0.865111  -0.092588
    22  H    0.000191  -0.212357  -0.092588   0.839059
 Mulliken charges:
               1
     1  C    0.616066
     2  C   -0.316750
     3  C   -0.065653
     4  C    0.569846
     5  C   -0.254088
     6  H   -0.543819
     7  S    0.499353
     8  H   -0.390995
     9  C   -0.430923
    10  S    0.570541
    11  C   -0.556126
    12  C   -0.173052
    13  C    0.979120
    14  H   -0.726866
    15  S    0.499614
    16  C   -0.173344
    17  C    0.463167
    18  H   -0.389035
    19  H   -0.338041
    20  H   -0.317930
    21  H    0.236935
    22  H    0.241979
 Sum of Mulliken charges =  -0.00000
 Mulliken charges with hydrogens summed into heavy atoms:
               1
     1  C    0.072248
     2  C   -0.316750
     3  C   -0.065653
     4  C    0.730830
     5  C   -0.645083
     7  S    0.499353
     9  C   -0.430923
    10  S    0.570541
    11  C   -0.556126
    12  C   -0.173052
    13  C    0.252253
    15  S    0.499614
    16  C   -0.562379
    17  C    0.125126
 Electronic spatial extent (au):  <R**2>=           4363.7364
 Charge=             -0.0000 electrons
 Dipole moment (field-independent basis, Debye):
    X=              0.5086    Y=              1.1492    Z=              0.0177  Tot=              1.2569
 Quadrupole moment (field-independent basis, Debye-Ang):
   XX=            -86.4677   YY=            -98.0571   ZZ=           -111.7344
   XY=              7.1777   XZ=             -0.2550   YZ=             -0.0766
 Traceless Quadrupole moment (field-independent basis, Debye-Ang):
   XX=             12.2854   YY=              0.6959   ZZ=            -12.9813
   XY=              7.1777   XZ=             -0.2550   YZ=             -0.0766
 Octapole moment (field-independent basis, Debye-Ang**2):
  XXX=              4.8788  YYY=              5.1267  ZZZ=              0.2453  XYY=              6.1180
  XXY=            -18.9868  XXZ=             -0.8487  XZZ=              0.8243  YZZ=              2.1776
  YYZ=              0.2641  XYZ=              2.4862
 Hexadecapole moment (field-independent basis, Debye-Ang**3):
 XXXX=          -4146.8978 YYYY=          -1139.4683 ZZZZ=           -152.5464 XXXY=             42.4685
 XXXZ=             -8.2339 YYYX=             46.3752 YYYZ=             -1.9053 ZZZX=              0.9050
 ZZZY=              0.6994 XXYY=           -935.1468 XXZZ=           -927.2843 YYZZ=           -232.2292
 XXYZ=              3.4959 YYXZ=             -1.2184 ZZXY=             -1.0036
 N-N= 1.125853231457D+03 E-N=-6.071742318733D+03  KE= 1.613752648035D+03
 Unable to Open any file for archive entry.
 1\1\GINC-CX3-11-3\FOpt\RHF\Aug-CC-pVDZ\C11H8S3\NS5018\25-Oct-2021\0\\#
  opt=modredundant hf/aug-cc-pvdz\\pBTTT_-175.pdb\\0,1\C,-4.1689100055,
 -1.3534643345,-0.0246666145\C,-2.8996516858,-0.9983094952,-0.601598875
 9\C,-2.0727980284,-2.0779428663,-0.7219737223\C,-2.5997175837,0.420148
 797,-1.0135029047\C,-4.2823627703,-2.6617640122,0.2794709344\H,-4.9560
 006356,-0.6345263475,0.1436388665\S,-2.8476730436,-3.5254666114,-0.117
 661732\H,-5.1250891128,-3.1720846887,0.713014494\C,-0.6958381356,-2.14
 83352385,-1.230882655\S,0.0972630294,-3.7173218742,-1.3960923835\C,1.5
 523030729,-2.9677714419,-1.9691063341\C,1.4133392668,-1.6136643901,-2.
 0204867134\C,0.1330682566,-1.1351869006,-1.5968203254\H,-0.1283272351,
 -0.0951547379,-1.5618985249\S,2.8688277052,-0.8576042685,-2.5951160038
 \C,3.6367216525,-2.4164946485,-2.7530979372\C,2.8377587766,-3.44260591
 32,-2.3924211771\H,4.6509849681,-2.4756760647,-3.1096307901\H,3.137560
 5205,-4.4773577801,-2.4223197644\H,-3.4944303427,1.0318626891,-0.91909
 7156\H,-2.2670869167,0.4733835823,-2.0498521291\H,-1.8279417528,0.8653
 365457,-0.3838985515\\Version=ES64L-G16RevC.01\State=1-A\HF=-1613.8105
 7\RMSD=7.038e-09\RMSF=3.501e-04\Dipole=-0.2091952,0.4480015,0.0070468\
 Quadrupole=7.2073877,0.3921444,-7.5995321,-5.4473094,-5.6475917,0.6661
 516\PG=C01 [X(C11H8S3)]\\@
 The archive entry for this job was punched.



 WE LOSE BECAUSE WE WIN

 GAMBLERS,

 RECOLLECTING WHICH,

 TOSS THEIR DICE AGAIN....


                          EMILY DICKINSON  BOLTS OF MELODY NO. 533
 Job cpu time:       0 days  6 hours 58 minutes 41.6 seconds.
 Elapsed time:       0 days  0 hours 52 minutes 44.6 seconds.
 File lengths (MBytes):  RWF=    103 Int=      0 D2E=      0 Chk=     13 Scr=      1
 Normal termination of Gaussian 16 at Mon Oct 25 22:07:42 2021.
