 Entering Gaussian System, Link 0=g16
 Input=pBTTT_-100.gjf
 Output=pBTTT_-100.log
 Initial command:
 /apps/gaussian/g16-c01-avx/g16/l1.exe "/tmp/pbs.4762177[75].pbs/Gau-3076355.inp" -scrdir="/tmp/pbs.4762177[75].pbs/"
 Entering Link 1 = /apps/gaussian/g16-c01-avx/g16/l1.exe PID=   3076362.
  
 Copyright (c) 1988-2019, Gaussian, Inc.  All Rights Reserved.
  
 This is part of the Gaussian(R) 16 program.  It is based on
 the Gaussian(R) 09 system (copyright 2009, Gaussian, Inc.),
 the Gaussian(R) 03 system (copyright 2003, Gaussian, Inc.),
 the Gaussian(R) 98 system (copyright 1998, Gaussian, Inc.),
 the Gaussian(R) 94 system (copyright 1995, Gaussian, Inc.),
 the Gaussian 92(TM) system (copyright 1992, Gaussian, Inc.),
 the Gaussian 90(TM) system (copyright 1990, Gaussian, Inc.),
 the Gaussian 88(TM) system (copyright 1988, Gaussian, Inc.),
 the Gaussian 86(TM) system (copyright 1986, Carnegie Mellon
 University), and the Gaussian 82(TM) system (copyright 1983,
 Carnegie Mellon University). Gaussian is a federally registered
 trademark of Gaussian, Inc.
  
 This software contains proprietary and confidential information,
 including trade secrets, belonging to Gaussian, Inc.
  
 This software is provided under written license and may be
 used, copied, transmitted, or stored only in accord with that
 written license.
  
 The following legend is applicable only to US Government
 contracts under FAR:
  
                    RESTRICTED RIGHTS LEGEND
  
 Use, reproduction and disclosure by the US Government is
 subject to restrictions as set forth in subparagraphs (a)
 and (c) of the Commercial Computer Software - Restricted
 Rights clause in FAR 52.227-19.
  
 Gaussian, Inc.
 340 Quinnipiac St., Bldg. 40, Wallingford CT 06492
  
  
 ---------------------------------------------------------------
 Warning -- This program may not be used in any manner that
 competes with the business of Gaussian, Inc. or will provide
 assistance to any competitor of Gaussian, Inc.  The licensee
 of this program is prohibited from giving any competitor of
 Gaussian, Inc. access to this program.  By using this program,
 the user acknowledges that Gaussian, Inc. is engaged in the
 business of creating and licensing software in the field of
 computational chemistry and represents and warrants to the
 licensee that it is not a competitor of Gaussian, Inc. and that
 it will not use this program in any manner prohibited above.
 ---------------------------------------------------------------
  

 Cite this work as:
 Gaussian 16, Revision C.01,
 M. J. Frisch, G. W. Trucks, H. B. Schlegel, G. E. Scuseria, 
 M. A. Robb, J. R. Cheeseman, G. Scalmani, V. Barone, 
 G. A. Petersson, H. Nakatsuji, X. Li, M. Caricato, A. V. Marenich, 
 J. Bloino, B. G. Janesko, R. Gomperts, B. Mennucci, H. P. Hratchian, 
 J. V. Ortiz, A. F. Izmaylov, J. L. Sonnenberg, D. Williams-Young, 
 F. Ding, F. Lipparini, F. Egidi, J. Goings, B. Peng, A. Petrone, 
 T. Henderson, D. Ranasinghe, V. G. Zakrzewski, J. Gao, N. Rega, 
 G. Zheng, W. Liang, M. Hada, M. Ehara, K. Toyota, R. Fukuda, 
 J. Hasegawa, M. Ishida, T. Nakajima, Y. Honda, O. Kitao, H. Nakai, 
 T. Vreven, K. Throssell, J. A. Montgomery, Jr., J. E. Peralta, 
 F. Ogliaro, M. J. Bearpark, J. J. Heyd, E. N. Brothers, K. N. Kudin, 
 V. N. Staroverov, T. A. Keith, R. Kobayashi, J. Normand, 
 K. Raghavachari, A. P. Rendell, J. C. Burant, S. S. Iyengar, 
 J. Tomasi, M. Cossi, J. M. Millam, M. Klene, C. Adamo, R. Cammi, 
 J. W. Ochterski, R. L. Martin, K. Morokuma, O. Farkas, 
 J. B. Foresman, and D. J. Fox, Gaussian, Inc., Wallingford CT, 2019.
 
 ******************************************
 Gaussian 16:  ES64L-G16RevC.01  3-Jul-2019
                25-Oct-2021 
 ******************************************
 %mem=100GB
 %nprocshared=8
 Will use up to    8 processors via shared memory.
 ---------------------------------
 # opt=modredundant hf/aug-cc-pvdz
 ---------------------------------
 1/18=120,19=15,38=1/1,3;
 2/9=110,12=2,17=6,18=5,40=1/2;
 3/5=16,7=10,11=9,25=1,30=1,71=1/1,2,3;
 4//1;
 5/5=2,38=5/2;
 6/7=2,8=2,9=2,10=2,28=1/1;
 7//1,2,3,16;
 1/18=20,19=15/3(2);
 2/9=110/2;
 99//99;
 2/9=110/2;
 3/5=16,7=10,11=9,25=1,30=1,71=1/1,2,3;
 4/5=5,16=3,69=1/1;
 5/5=2,38=5/2;
 7//1,2,3,16;
 1/18=20,19=15/3(-5);
 2/9=110/2;
 6/7=2,8=2,9=2,10=2,19=2,28=1/1;
 99/9=1/99;
 --------------
 pBTTT_-100.pdb
 --------------
 Symbolic Z-matrix:
 Charge =  0 Multiplicity = 1
 C                    -4.25     -1.36     -0.21 
 C                    -2.93     -0.95     -0.61 
 C                    -1.97     -2.05     -0.62 
 C                    -2.66      0.47     -0.96 
 C                    -4.33     -2.76      0.1 
 H                    -5.1      -0.7      -0.14 
 S                    -2.8      -3.56     -0.11 
 H                    -5.23     -3.27      0.41 
 C                    -0.56     -2.13     -0.97 
 S                    -0.011    -2.749    -2.557 
 C                     1.658    -2.51     -2.167 
 C                     1.839    -1.939    -0.857 
 C                     0.598    -1.705    -0.181 
 H                     0.525    -1.137     0.734 
 S                     3.32     -1.052    -0.714 
 C                     3.751    -1.426    -2.385 
 C                     2.737    -2.211    -3.05 
 H                     4.585    -0.955    -2.887 
 H                     2.683    -2.306    -4.132 
 H                    -3.55      1.09     -0.83 
 H                    -2.35      0.56     -2. 
 H                    -1.88      0.89     -0.31 
 
 The following ModRedundant input section has been read:
 D       2       3       9      10 F                                           
 

 GradGradGradGradGradGradGradGradGradGradGradGradGradGradGradGradGradGrad
 Berny optimization.
 Initialization pass.
                           ----------------------------
                           !    Initial Parameters    !
                           ! (Angstroms and Degrees)  !
 --------------------------                            --------------------------
 ! Name  Definition              Value          Derivative Info.                !
 --------------------------------------------------------------------------------
 ! R1    R(1,2)                  1.4389         estimate D2E/DX2                !
 ! R2    R(1,5)                  1.4361         estimate D2E/DX2                !
 ! R3    R(1,6)                  1.0784         estimate D2E/DX2                !
 ! R4    R(2,3)                  1.46           estimate D2E/DX2                !
 ! R5    R(2,4)                  1.4872         estimate D2E/DX2                !
 ! R6    R(3,7)                  1.797          estimate D2E/DX2                !
 ! R7    R(3,9)                  1.455          estimate D2E/DX2                !
 ! R8    R(4,20)                 1.0924         estimate D2E/DX2                !
 ! R9    R(4,21)                 1.0889         estimate D2E/DX2                !
 ! R10   R(4,22)                 1.0988         estimate D2E/DX2                !
 ! R11   R(5,7)                  1.7393         estimate D2E/DX2                !
 ! R12   R(5,8)                  1.0799         estimate D2E/DX2                !
 ! R13   R(9,10)                 1.7897         estimate D2E/DX2                !
 ! R14   R(9,13)                 1.4643         estimate D2E/DX2                !
 ! R15   R(10,11)                1.7305         estimate D2E/DX2                !
 ! R16   R(11,12)                1.4405         estimate D2E/DX2                !
 ! R17   R(11,17)                1.4259         estimate D2E/DX2                !
 ! R18   R(12,13)                1.4324         estimate D2E/DX2                !
 ! R19   R(12,15)                1.7322         estimate D2E/DX2                !
 ! R20   R(13,14)                1.0794         estimate D2E/DX2                !
 ! R21   R(15,16)                1.7658         estimate D2E/DX2                !
 ! R22   R(16,17)                1.4445         estimate D2E/DX2                !
 ! R23   R(16,18)                1.0814         estimate D2E/DX2                !
 ! R24   R(17,19)                1.0875         estimate D2E/DX2                !
 ! A1    A(2,1,5)              112.8843         estimate D2E/DX2                !
 ! A2    A(2,1,6)              124.5209         estimate D2E/DX2                !
 ! A3    A(5,1,6)              122.5942         estimate D2E/DX2                !
 ! A4    A(1,2,3)              112.9799         estimate D2E/DX2                !
 ! A5    A(1,2,4)              120.2665         estimate D2E/DX2                !
 ! A6    A(3,2,4)              126.7536         estimate D2E/DX2                !
 ! A7    A(2,3,7)              109.1138         estimate D2E/DX2                !
 ! A8    A(2,3,9)              132.8639         estimate D2E/DX2                !
 ! A9    A(7,3,9)              118.0132         estimate D2E/DX2                !
 ! A10   A(2,4,20)             111.468          estimate D2E/DX2                !
 ! A11   A(2,4,21)             110.8154         estimate D2E/DX2                !
 ! A12   A(2,4,22)             110.7706         estimate D2E/DX2                !
 ! A13   A(20,4,21)            107.3779         estimate D2E/DX2                !
 ! A14   A(20,4,22)            106.918          estimate D2E/DX2                !
 ! A15   A(21,4,22)            109.3476         estimate D2E/DX2                !
 ! A16   A(1,5,7)              111.9209         estimate D2E/DX2                !
 ! A17   A(1,5,8)              124.6643         estimate D2E/DX2                !
 ! A18   A(7,5,8)              123.4062         estimate D2E/DX2                !
 ! A19   A(3,7,5)               93.0997         estimate D2E/DX2                !
 ! A20   A(3,9,10)             121.9774         estimate D2E/DX2                !
 ! A21   A(3,9,13)             128.3749         estimate D2E/DX2                !
 ! A22   A(10,9,13)            109.6086         estimate D2E/DX2                !
 ! A23   A(9,10,11)             92.765          estimate D2E/DX2                !
 ! A24   A(10,11,12)           112.3885         estimate D2E/DX2                !
 ! A25   A(10,11,17)           128.2566         estimate D2E/DX2                !
 ! A26   A(12,11,17)           112.6409         estimate D2E/DX2                !
 ! A27   A(11,12,13)           112.6489         estimate D2E/DX2                !
 ! A28   A(11,12,15)           112.6742         estimate D2E/DX2                !
 ! A29   A(13,12,15)           128.1784         estimate D2E/DX2                !
 ! A30   A(9,13,12)            112.5474         estimate D2E/DX2                !
 ! A31   A(9,13,14)            123.7793         estimate D2E/DX2                !
 ! A32   A(12,13,14)           122.9967         estimate D2E/DX2                !
 ! A33   A(12,15,16)            91.2668         estimate D2E/DX2                !
 ! A34   A(15,16,17)           112.2977         estimate D2E/DX2                !
 ! A35   A(15,16,18)           122.3645         estimate D2E/DX2                !
 ! A36   A(17,16,18)           124.3578         estimate D2E/DX2                !
 ! A37   A(11,17,16)           111.1029         estimate D2E/DX2                !
 ! A38   A(11,17,19)           124.0705         estimate D2E/DX2                !
 ! A39   A(16,17,19)           122.708          estimate D2E/DX2                !
 ! D1    D(5,1,2,3)              0.3915         estimate D2E/DX2                !
 ! D2    D(5,1,2,4)           -179.5973         estimate D2E/DX2                !
 ! D3    D(6,1,2,3)           -179.8811         estimate D2E/DX2                !
 ! D4    D(6,1,2,4)              0.13           estimate D2E/DX2                !
 ! D5    D(2,1,5,7)             -0.3845         estimate D2E/DX2                !
 ! D6    D(2,1,5,8)           -179.3471         estimate D2E/DX2                !
 ! D7    D(6,1,5,7)            179.8822         estimate D2E/DX2                !
 ! D8    D(6,1,5,8)              0.9196         estimate D2E/DX2                !
 ! D9    D(1,2,3,7)             -0.2224         estimate D2E/DX2                !
 ! D10   D(1,2,3,9)            178.6265         estimate D2E/DX2                !
 ! D11   D(4,2,3,7)            179.7656         estimate D2E/DX2                !
 ! D12   D(4,2,3,9)             -1.3855         estimate D2E/DX2                !
 ! D13   D(1,2,4,20)             2.1641         estimate D2E/DX2                !
 ! D14   D(1,2,4,21)          -117.3645         estimate D2E/DX2                !
 ! D15   D(1,2,4,22)           121.0843         estimate D2E/DX2                !
 ! D16   D(3,2,4,20)          -177.8231         estimate D2E/DX2                !
 ! D17   D(3,2,4,21)            62.6483         estimate D2E/DX2                !
 ! D18   D(3,2,4,22)           -58.9029         estimate D2E/DX2                !
 ! D19   D(2,3,7,5)              0.0033         estimate D2E/DX2                !
 ! D20   D(9,3,7,5)           -179.041          estimate D2E/DX2                !
 ! D21   D(2,3,9,10)          -100.0114         Frozen                          !
 ! D22   D(2,3,9,13)            77.4682         estimate D2E/DX2                !
 ! D23   D(7,3,9,10)            78.7565         estimate D2E/DX2                !
 ! D24   D(7,3,9,13)          -103.7639         estimate D2E/DX2                !
 ! D25   D(1,5,7,3)              0.2153         estimate D2E/DX2                !
 ! D26   D(8,5,7,3)            179.1932         estimate D2E/DX2                !
 ! D27   D(3,9,10,11)          179.761          estimate D2E/DX2                !
 ! D28   D(13,9,10,11)           1.8583         estimate D2E/DX2                !
 ! D29   D(3,9,13,12)         -179.837          estimate D2E/DX2                !
 ! D30   D(3,9,13,14)           -9.0329         estimate D2E/DX2                !
 ! D31   D(10,9,13,12)          -2.1064         estimate D2E/DX2                !
 ! D32   D(10,9,13,14)         168.6977         estimate D2E/DX2                !
 ! D33   D(9,10,11,12)          -1.1744         estimate D2E/DX2                !
 ! D34   D(9,10,11,17)        -149.9366         estimate D2E/DX2                !
 ! D35   D(10,11,12,13)          0.1448         estimate D2E/DX2                !
 ! D36   D(10,11,12,15)       -154.0381         estimate D2E/DX2                !
 ! D37   D(17,11,12,13)        153.9628         estimate D2E/DX2                !
 ! D38   D(17,11,12,15)         -0.2201         estimate D2E/DX2                !
 ! D39   D(10,11,17,16)        149.755          estimate D2E/DX2                !
 ! D40   D(10,11,17,19)        -14.0312         estimate D2E/DX2                !
 ! D41   D(12,11,17,16)          1.0563         estimate D2E/DX2                !
 ! D42   D(12,11,17,19)       -162.7298         estimate D2E/DX2                !
 ! D43   D(11,12,13,9)           1.2996         estimate D2E/DX2                !
 ! D44   D(11,12,13,14)       -169.5876         estimate D2E/DX2                !
 ! D45   D(15,12,13,9)         150.5565         estimate D2E/DX2                !
 ! D46   D(15,12,13,14)        -20.3307         estimate D2E/DX2                !
 ! D47   D(11,12,15,16)         -0.5178         estimate D2E/DX2                !
 ! D48   D(13,12,15,16)       -149.7684         estimate D2E/DX2                !
 ! D49   D(12,15,16,17)          1.1244         estimate D2E/DX2                !
 ! D50   D(12,15,16,18)        170.2488         estimate D2E/DX2                !
 ! D51   D(15,16,17,11)         -1.4407         estimate D2E/DX2                !
 ! D52   D(15,16,17,19)        162.6044         estimate D2E/DX2                !
 ! D53   D(18,16,17,11)       -170.3098         estimate D2E/DX2                !
 ! D54   D(18,16,17,19)         -6.2647         estimate D2E/DX2                !
 --------------------------------------------------------------------------------
 Trust Radius=3.00D-01 FncErr=1.00D-07 GrdErr=1.00D-07 EigMax=2.50D+02 EigMin=1.00D-04
 Number of steps in this run=    127 maximum allowed number of steps=    132.
 GradGradGradGradGradGradGradGradGradGradGradGradGradGradGradGradGradGrad

                          Input orientation:                          
 ---------------------------------------------------------------------
 Center     Atomic      Atomic             Coordinates (Angstroms)
 Number     Number       Type             X           Y           Z
 ---------------------------------------------------------------------
      1          6           0       -4.250000   -1.360000   -0.210000
      2          6           0       -2.930000   -0.950000   -0.610000
      3          6           0       -1.970000   -2.050000   -0.620000
      4          6           0       -2.660000    0.470000   -0.960000
      5          6           0       -4.330000   -2.760000    0.100000
      6          1           0       -5.100000   -0.700000   -0.140000
      7         16           0       -2.800000   -3.560000   -0.110000
      8          1           0       -5.230000   -3.270000    0.410000
      9          6           0       -0.560000   -2.130000   -0.970000
     10         16           0       -0.011000   -2.749000   -2.557000
     11          6           0        1.658000   -2.510000   -2.167000
     12          6           0        1.839000   -1.939000   -0.857000
     13          6           0        0.598000   -1.705000   -0.181000
     14          1           0        0.525000   -1.137000    0.734000
     15         16           0        3.320000   -1.052000   -0.714000
     16          6           0        3.751000   -1.426000   -2.385000
     17          6           0        2.737000   -2.211000   -3.050000
     18          1           0        4.585000   -0.955000   -2.887000
     19          1           0        2.683000   -2.306000   -4.132000
     20          1           0       -3.550000    1.090000   -0.830000
     21          1           0       -2.350000    0.560000   -2.000000
     22          1           0       -1.880000    0.890000   -0.310000
 ---------------------------------------------------------------------
                    Distance matrix (angstroms):
                    1          2          3          4          5
     1  C    0.000000
     2  C    1.438923   0.000000
     3  C    2.417147   1.460034   0.000000
     4  C    2.537617   1.487212   2.634787   0.000000
     5  C    1.436141   2.395871   2.567509   3.787532   0.000000
     6  H    1.078425   2.234346   3.442354   2.827525   2.212261
     7  S    2.636759   2.660639   1.796970   4.121044   1.739253
     8  H    2.234480   3.422397   3.630000   4.740190   1.079907
     9  C    3.845335   2.671872   1.454991   3.342170   3.969219
    10  S    5.040521   3.943066   2.842226   4.464255   5.070851
    11  C    6.329045   5.089950   3.970792   5.383528   6.407646
    12  C    6.150591   4.876730   3.817980   5.104399   6.296543
    13  C    4.860347   3.633297   2.627997   3.993999   5.047491
    14  H    4.872524   3.711917   2.981931   3.949216   5.158208
    15  S    7.593009   6.251697   5.384138   6.175549   7.880505
    16  C    8.291621   6.929139   6.019505   6.835668   8.559050
    17  C    7.589991   6.297508   5.299686   6.378360   7.756700
    18  H    9.240540   7.852387   7.021847   7.631119   9.573788
    19  H    8.021439   6.763800   5.835245   6.805543   8.203542
    20  H    2.622384   2.143455   3.521378   1.092428   4.036806
    21  H    3.240447   2.132745   2.976726   1.088944   4.399182
    22  H    3.269465   2.139650   2.957668   1.098772   4.415099
                    6          7          8          9         10
     6  H    0.000000
     7  S    3.670218   0.000000
     8  H    2.631406   2.501879   0.000000
     9  C    4.831708   2.793224   5.001290   0.000000
    10  S    5.994849   3.797901   6.025985   1.789729   0.000000
    11  C    7.283913   5.020708   7.393448   2.548869   1.730544
    12  C    7.085120   4.970510   7.303945   2.409243   2.639811
    13  C    5.786096   3.872011   6.063340   1.464278   2.665744
    14  H    5.709244   4.199868   6.146112   2.250975   3.703582
    15  S    8.446880   6.641482   8.904235   4.035099   4.167975
    16  C    9.160093   7.255700   9.584922   4.591575   3.991561
    17  C    8.495280   6.412626   8.750210   3.899124   2.843237
    18  H   10.070266   8.308789  10.609602   5.614850   4.944750
    19  H    8.893278   6.914643   9.174673   4.532799   3.151906
    20  H    2.466313   4.764808   4.834211   4.396374   5.499543
    21  H    3.551014   4.555107   5.363898   3.391327   4.090312
    22  H    3.595191   4.548505   5.389480   3.361309   4.667386
                   11         12         13         14         15
    11  C    0.000000
    12  C    1.440452   0.000000
    13  C    2.390778   1.432415   0.000000
    14  H    3.403619   2.213839   1.079434   0.000000
    15  S    2.645603   1.732218   2.849523   3.148961   0.000000
    16  C    2.367114   2.500739   3.857054   4.496527   1.765751
    17  C    1.425949   2.385296   3.614211   4.512768   2.672090
    18  H    3.391718   3.553825   4.876587   5.443194   2.516260
    19  H    2.225638   3.401860   4.507641   5.449907   3.696080
    20  H    6.470768   6.181981   5.043722   4.900128   7.197119
    21  H    5.051421   5.009907   4.138803   4.315112   6.033344
    22  H    5.246512   4.704616   3.590425   3.314014   5.565481
                   16         17         18         19         20
    16  C    0.000000
    17  C    1.444523   0.000000
    18  H    1.081388   2.240359   0.000000
    19  H    2.228684   1.087504   2.644396   0.000000
    20  H    7.877365   7.439850   8.636637   7.828557   0.000000
    21  H    6.427645   5.887148   7.153756   6.171748   1.757783
    22  H    6.432546   6.200040   7.200082   6.755965   1.760483
                   21         22
    21  H    0.000000
    22  H    1.784909   0.000000
 Stoichiometry    C11H8S3
 Framework group  C1[X(C11H8S3)]
 Deg. of freedom    60
 Full point group                 C1      NOp   1
 Largest Abelian subgroup         C1      NOp   1
 Largest concise Abelian subgroup C1      NOp   1
                         Standard orientation:                         
 ---------------------------------------------------------------------
 Center     Atomic      Atomic             Coordinates (Angstroms)
 Number     Number       Type             X           Y           Z
 ---------------------------------------------------------------------
      1          6           0        3.983411    0.797227    0.269937
      2          6           0        2.582376    1.068603    0.454212
      3          6           0        1.722387    0.025369   -0.096952
      4          6           0        2.143968    2.309739    1.146440
      5          6           0        4.226777   -0.436426   -0.423874
      6          1           0        4.780117    1.441747    0.605874
      7         16           0        2.747241   -1.254180   -0.832839
      8          1           0        5.206199   -0.828754   -0.654118
      9          6           0        0.278693   -0.152693   -0.129208
     10         16           0       -0.568889   -1.233363    1.018349
     11          6           0       -2.120044   -0.876042    0.339364
     12          6           0       -2.040967    0.076282   -0.738470
     13          6           0       -0.698902    0.503277   -0.999910
     14          1           0       -0.461418    1.328147   -1.654408
     15         16           0       -3.509272    0.971145   -0.947944
     16          6           0       -4.277813    0.096403    0.379478
     17          6           0       -3.387665   -0.862127    0.992260
     18          1           0       -5.233521    0.391407    0.790571
     19          1           0       -3.571630   -1.290423    1.974800
     20          1           0        2.995772    2.934785    1.424196
     21          1           0        1.602925    2.072165    2.061115
     22          1           0        1.502936    2.915637    0.491256
 ---------------------------------------------------------------------
 Rotational constants (GHZ):           1.2049892           0.2595284           0.2453110
 Standard basis: Aug-CC-pVDZ (5D, 7F)
 There are   434 symmetry adapted cartesian basis functions of A   symmetry.
 There are   406 symmetry adapted basis functions of A   symmetry.
   406 basis functions,   804 primitive gaussians,   434 cartesian basis functions
    61 alpha electrons       61 beta electrons
       nuclear repulsion energy      1104.0339944278 Hartrees.
 NAtoms=   22 NActive=   22 NUniq=   22 SFac= 1.00D+00 NAtFMM=   60 NAOKFM=F Big=F
 Integral buffers will be    131072 words long.
 Raffenetti 1 integral format.
 Two-electron integral symmetry is turned on.
 One-electron integrals computed using PRISM.
 NBasis=   406 RedAO= T EigKep=  5.62D-06  NBF=   406
 NBsUse=   406 1.00D-06 EigRej= -1.00D+00 NBFU=   406
 ExpMin= 2.97D-02 ExpMax= 1.11D+05 ExpMxC= 1.07D+03 IAcc=3 IRadAn=         5 AccDes= 0.00D+00
 Harris functional with IExCor=  205 and IRadAn=       5 diagonalized for initial guess.
 HarFok:  IExCor=  205 AccDes= 0.00D+00 IRadAn=         5 IDoV= 1 UseB2=F ITyADJ=14
 ICtDFT=  3500011 ScaDFX=  1.000000  1.000000  1.000000  1.000000
 FoFCou: FMM=F IPFlag=           0 FMFlag=      100000 FMFlg1=           0
         NFxFlg=           0 DoJE=T BraDBF=F KetDBF=T FulRan=T
         wScrn=  0.000000 ICntrl=       500 IOpCl=  0 I1Cent=   200000004 NGrid=           0
         NMat0=    1 NMatS0=      1 NMatT0=    0 NMatD0=    1 NMtDS0=    0 NMtDT0=    0
 Petite list used in FoFCou.
 Requested convergence on RMS density matrix=1.00D-08 within 128 cycles.
 Requested convergence on MAX density matrix=1.00D-06.
 Requested convergence on             energy=1.00D-06.
 No special actions if energy rises.
 SCF Done:  E(RHF) =  -1613.75033638     A.U. after   18 cycles
            NFock= 18  Conv=0.47D-08     -V/T= 2.0010

 **********************************************************************

            Population analysis using the SCF Density.

 **********************************************************************

 Orbital symmetries:
       Occupied  (A) (A) (A) (A) (A) (A) (A) (A) (A) (A) (A) (A)
                 (A) (A) (A) (A) (A) (A) (A) (A) (A) (A) (A) (A)
                 (A) (A) (A) (A) (A) (A) (A) (A) (A) (A) (A) (A)
                 (A) (A) (A) (A) (A) (A) (A) (A) (A) (A) (A) (A)
                 (A) (A) (A) (A) (A) (A) (A) (A) (A) (A) (A) (A)
                 (A)
       Virtual   (A) (A) (A) (A) (A) (A) (A) (A) (A) (A) (A) (A)
                 (A) (A) (A) (A) (A) (A) (A) (A) (A) (A) (A) (A)
                 (A) (A) (A) (A) (A) (A) (A) (A) (A) (A) (A) (A)
                 (A) (A) (A) (A) (A) (A) (A) (A) (A) (A) (A) (A)
                 (A) (A) (A) (A) (A) (A) (A) (A) (A) (A) (A) (A)
                 (A) (A) (A) (A) (A) (A) (A) (A) (A) (A) (A) (A)
                 (A) (A) (A) (A) (A) (A) (A) (A) (A) (A) (A) (A)
                 (A) (A) (A) (A) (A) (A) (A) (A) (A) (A) (A) (A)
                 (A) (A) (A) (A) (A) (A) (A) (A) (A) (A) (A) (A)
                 (A) (A) (A) (A) (A) (A) (A) (A) (A) (A) (A) (A)
                 (A) (A) (A) (A) (A) (A) (A) (A) (A) (A) (A) (A)
                 (A) (A) (A) (A) (A) (A) (A) (A) (A) (A) (A) (A)
                 (A) (A) (A) (A) (A) (A) (A) (A) (A) (A) (A) (A)
                 (A) (A) (A) (A) (A) (A) (A) (A) (A) (A) (A) (A)
                 (A) (A) (A) (A) (A) (A) (A) (A) (A) (A) (A) (A)
                 (A) (A) (A) (A) (A) (A) (A) (A) (A) (A) (A) (A)
                 (A) (A) (A) (A) (A) (A) (A) (A) (A) (A) (A) (A)
                 (A) (A) (A) (A) (A) (A) (A) (A) (A) (A) (A) (A)
                 (A) (A) (A) (A) (A) (A) (A) (A) (A) (A) (A) (A)
                 (A) (A) (A) (A) (A) (A) (A) (A) (A) (A) (A) (A)
                 (A) (A) (A) (A) (A) (A) (A) (A) (A) (A) (A) (A)
                 (A) (A) (A) (A) (A) (A) (A) (A) (A) (A) (A) (A)
                 (A) (A) (A) (A) (A) (A) (A) (A) (A) (A) (A) (A)
                 (A) (A) (A) (A) (A) (A) (A) (A) (A) (A) (A) (A)
                 (A) (A) (A) (A) (A) (A) (A) (A) (A) (A) (A) (A)
                 (A) (A) (A) (A) (A) (A) (A) (A) (A) (A) (A) (A)
                 (A) (A) (A) (A) (A) (A) (A) (A) (A) (A) (A) (A)
                 (A) (A) (A) (A) (A) (A) (A) (A) (A) (A) (A) (A)
                 (A) (A) (A) (A) (A) (A) (A) (A) (A)
 The electronic state is 1-A.
 Alpha  occ. eigenvalues --  -92.00108 -91.99707 -91.99411 -11.30427 -11.29499
 Alpha  occ. eigenvalues --  -11.28978 -11.28689 -11.28676 -11.28473 -11.27641
 Alpha  occ. eigenvalues --  -11.27461 -11.27304 -11.25478 -11.23933  -9.00166
 Alpha  occ. eigenvalues --   -8.99739  -8.99374  -6.68331  -6.68243  -6.68054
 Alpha  occ. eigenvalues --   -6.67900  -6.67804  -6.67619  -6.67528  -6.67428
 Alpha  occ. eigenvalues --   -6.67271  -1.19777  -1.15913  -1.10315  -1.03615
 Alpha  occ. eigenvalues --   -1.03187  -1.00461  -0.94392  -0.93658  -0.90670
 Alpha  occ. eigenvalues --   -0.81970  -0.77388  -0.75987  -0.71777  -0.69638
 Alpha  occ. eigenvalues --   -0.66212  -0.65804  -0.60365  -0.58881  -0.58242
 Alpha  occ. eigenvalues --   -0.56401  -0.55559  -0.54191  -0.53617  -0.52900
 Alpha  occ. eigenvalues --   -0.51410  -0.50687  -0.48785  -0.47279  -0.46534
 Alpha  occ. eigenvalues --   -0.44780  -0.38759  -0.34077  -0.32096  -0.31218
 Alpha  occ. eigenvalues --   -0.28044
 Alpha virt. eigenvalues --    0.03401   0.03546   0.04130   0.04656   0.04921
 Alpha virt. eigenvalues --    0.05656   0.06176   0.06689   0.07377   0.07884
 Alpha virt. eigenvalues --    0.08365   0.08575   0.09240   0.10191   0.10729
 Alpha virt. eigenvalues --    0.11080   0.11468   0.11991   0.12431   0.12874
 Alpha virt. eigenvalues --    0.13129   0.13411   0.13886   0.14010   0.14167
 Alpha virt. eigenvalues --    0.14517   0.15063   0.15337   0.15624   0.16186
 Alpha virt. eigenvalues --    0.16478   0.16935   0.17314   0.17421   0.17833
 Alpha virt. eigenvalues --    0.18391   0.18843   0.19017   0.19178   0.19531
 Alpha virt. eigenvalues --    0.20084   0.20683   0.21038   0.21203   0.21536
 Alpha virt. eigenvalues --    0.21780   0.22625   0.23052   0.23095   0.23333
 Alpha virt. eigenvalues --    0.24640   0.25028   0.25196   0.25776   0.26430
 Alpha virt. eigenvalues --    0.26699   0.26802   0.27670   0.27716   0.28976
 Alpha virt. eigenvalues --    0.29209   0.29841   0.30394   0.31102   0.31398
 Alpha virt. eigenvalues --    0.31861   0.31988   0.32962   0.33306   0.33688
 Alpha virt. eigenvalues --    0.34054   0.34618   0.35517   0.35631   0.36234
 Alpha virt. eigenvalues --    0.36433   0.37371   0.37992   0.38893   0.39143
 Alpha virt. eigenvalues --    0.39940   0.40118   0.40911   0.41519   0.41737
 Alpha virt. eigenvalues --    0.42657   0.43424   0.43749   0.44155   0.44710
 Alpha virt. eigenvalues --    0.45424   0.46038   0.46701   0.46993   0.47723
 Alpha virt. eigenvalues --    0.48053   0.48805   0.49404   0.50254   0.50798
 Alpha virt. eigenvalues --    0.51170   0.51779   0.52479   0.53531   0.53889
 Alpha virt. eigenvalues --    0.54407   0.55355   0.55948   0.56076   0.56835
 Alpha virt. eigenvalues --    0.57502   0.57887   0.58055   0.58823   0.60168
 Alpha virt. eigenvalues --    0.60729   0.61269   0.61730   0.62785   0.63246
 Alpha virt. eigenvalues --    0.63770   0.64387   0.64840   0.64867   0.65862
 Alpha virt. eigenvalues --    0.66644   0.66922   0.67309   0.67737   0.68036
 Alpha virt. eigenvalues --    0.68537   0.68700   0.69366   0.70148   0.70400
 Alpha virt. eigenvalues --    0.70468   0.71464   0.72278   0.72565   0.73131
 Alpha virt. eigenvalues --    0.73402   0.74095   0.74724   0.75701   0.76020
 Alpha virt. eigenvalues --    0.76431   0.76632   0.77523   0.77627   0.78873
 Alpha virt. eigenvalues --    0.79386   0.79535   0.80178   0.80960   0.81791
 Alpha virt. eigenvalues --    0.82081   0.83713   0.84270   0.84792   0.86022
 Alpha virt. eigenvalues --    0.86730   0.87833   0.88103   0.88881   0.89511
 Alpha virt. eigenvalues --    0.89833   0.90618   0.91025   0.91928   0.92723
 Alpha virt. eigenvalues --    0.93062   0.93671   0.94886   0.95545   0.96485
 Alpha virt. eigenvalues --    0.97240   0.97905   0.98634   0.99062   0.99614
 Alpha virt. eigenvalues --    1.00462   1.00717   1.01721   1.02750   1.03529
 Alpha virt. eigenvalues --    1.04509   1.05369   1.06023   1.07318   1.09514
 Alpha virt. eigenvalues --    1.10507   1.10953   1.11653   1.12662   1.13830
 Alpha virt. eigenvalues --    1.14995   1.16073   1.16610   1.17017   1.18830
 Alpha virt. eigenvalues --    1.19647   1.20724   1.21426   1.21846   1.23000
 Alpha virt. eigenvalues --    1.24155   1.25184   1.25874   1.26442   1.28300
 Alpha virt. eigenvalues --    1.28585   1.28756   1.29665   1.30255   1.31057
 Alpha virt. eigenvalues --    1.32550   1.33472   1.34080   1.34367   1.36223
 Alpha virt. eigenvalues --    1.37450   1.38250   1.39350   1.41224   1.42612
 Alpha virt. eigenvalues --    1.44677   1.45266   1.46598   1.47230   1.49279
 Alpha virt. eigenvalues --    1.51755   1.53996   1.54980   1.55397   1.56589
 Alpha virt. eigenvalues --    1.57741   1.58704   1.59436   1.60208   1.62439
 Alpha virt. eigenvalues --    1.63036   1.64684   1.65661   1.66065   1.66580
 Alpha virt. eigenvalues --    1.67817   1.68763   1.70277   1.70470   1.71239
 Alpha virt. eigenvalues --    1.73456   1.74731   1.75253   1.76071   1.76737
 Alpha virt. eigenvalues --    1.77332   1.77897   1.79123   1.81018   1.81414
 Alpha virt. eigenvalues --    1.82421   1.83041   1.84839   1.85746   1.87120
 Alpha virt. eigenvalues --    1.88356   1.90000   1.91522   1.92772   1.93598
 Alpha virt. eigenvalues --    1.95170   1.96159   1.97307   1.97774   1.99994
 Alpha virt. eigenvalues --    2.00388   2.02454   2.03021   2.04960   2.05904
 Alpha virt. eigenvalues --    2.07756   2.09537   2.10480   2.11540   2.12919
 Alpha virt. eigenvalues --    2.13657   2.15579   2.15760   2.17142   2.18017
 Alpha virt. eigenvalues --    2.19053   2.19747   2.21487   2.23140   2.23708
 Alpha virt. eigenvalues --    2.24869   2.25588   2.26994   2.29336   2.29939
 Alpha virt. eigenvalues --    2.31420   2.33666   2.34973   2.35552   2.37069
 Alpha virt. eigenvalues --    2.38436   2.39073   2.40608   2.43148   2.44397
 Alpha virt. eigenvalues --    2.45894   2.48261   2.50065   2.50622   2.52435
 Alpha virt. eigenvalues --    2.54385   2.56446   2.60144   2.61317   2.65291
 Alpha virt. eigenvalues --    2.69062   2.72312   2.73854   2.76332   2.79203
 Alpha virt. eigenvalues --    2.81929   2.83792   2.84843   2.87083   2.89876
 Alpha virt. eigenvalues --    2.93503   2.95435   3.00949   3.02281   3.04578
 Alpha virt. eigenvalues --    3.13898   3.20069   3.21767   3.25091   3.30683
 Alpha virt. eigenvalues --    3.42631   3.61006   3.75007   4.11596   4.15831
          Condensed to atoms (all electrons):
               1          2          3          4          5          6
     1  C    9.492635  -1.913288  -0.427574  -1.034848   0.140480  -0.478477
     2  C   -1.913288   9.533300  -1.654026   0.284163   0.259048   0.369985
     3  C   -0.427574  -1.654026  12.145226  -0.943383  -1.275724   0.026147
     4  C   -1.034848   0.284163  -0.943383   6.466248   0.150240   0.095016
     5  C    0.140480   0.259048  -1.275724   0.150240   6.310022  -0.088667
     6  H   -0.478477   0.369985   0.026147   0.095016  -0.088667   1.716172
     7  S   -0.600509   0.150481  -0.255411   0.119661   0.361199  -0.011394
     8  H    0.000827   0.068432   0.019021   0.019440   0.222209  -0.080308
     9  C    0.178305  -0.405861  -2.210389  -0.035624   0.240404  -0.001665
    10  S    0.014532   0.028598  -0.363569  -0.068396   0.002696  -0.002660
    11  C    0.019150   0.003729   0.016559   0.050095   0.019609   0.000726
    12  C   -0.034931  -0.007512   0.342831   0.061962  -0.008471  -0.000296
    13  C   -0.089579  -0.029952   0.074263  -0.028184  -0.056281   0.002703
    14  H    0.020089   0.037450  -0.017432   0.033703  -0.004041   0.000369
    15  S   -0.006691  -0.014785   0.039783   0.002059   0.001114  -0.000245
    16  C   -0.001215  -0.009349   0.059956   0.004001  -0.000122   0.000007
    17  C    0.005370   0.036466  -0.256893  -0.019418   0.000031   0.000104
    18  H   -0.000112  -0.000460   0.002894   0.000476   0.000025  -0.000003
    19  H    0.000300   0.000385  -0.010975  -0.001277   0.000066   0.000008
    20  H    0.066724   0.091181   0.067167  -0.134598   0.002306  -0.031306
    21  H    0.009221   0.015388  -0.063453   0.379683   0.005389   0.001853
    22  H   -0.015905   0.025340  -0.009198   0.317994   0.005081  -0.000305
               7          8          9         10         11         12
     1  C   -0.600509   0.000827   0.178305   0.014532   0.019150  -0.034931
     2  C    0.150481   0.068432  -0.405861   0.028598   0.003729  -0.007512
     3  C   -0.255411   0.019021  -2.210389  -0.363569   0.016559   0.342831
     4  C    0.119661   0.019440  -0.035624  -0.068396   0.050095   0.061962
     5  C    0.361199   0.222209   0.240404   0.002696   0.019609  -0.008471
     6  H   -0.011394  -0.080308  -0.001665  -0.002660   0.000726  -0.000296
     7  S   15.985309  -0.159899  -0.194903   0.158479  -0.030256  -0.021363
     8  H   -0.159899   1.239174  -0.004650   0.001726   0.000117  -0.000462
     9  C   -0.194903  -0.004650  10.132680   0.302601  -0.142932  -0.402914
    10  S    0.158479   0.001726   0.302601  16.107471   0.118477  -0.274474
    11  C   -0.030256   0.000117  -0.142932   0.118477   7.401604   0.249053
    12  C   -0.021363  -0.000462  -0.402914  -0.274474   0.249053   8.056708
    13  C    0.049871   0.002353  -1.496827  -0.375588  -0.333214  -1.514301
    14  H    0.000701   0.000060   0.113205   0.042252  -0.038410   0.226733
    15  S    0.004447   0.000049  -0.160064  -0.005018  -0.019044   0.091030
    16  C   -0.004254  -0.000017   0.080361  -0.053044   0.107782  -0.247606
    17  C    0.017758   0.000060  -0.184664  -0.020590  -1.107263   0.019129
    18  H   -0.000188   0.000001  -0.004017  -0.005768  -0.027634   0.017232
    19  H    0.001850   0.000001   0.058221  -0.034560   0.216253  -0.023005
    20  H   -0.007535   0.001869   0.034142   0.006664   0.002335  -0.004014
    21  H    0.007401   0.000682  -0.036188  -0.001063  -0.001985   0.008978
    22  H    0.009519   0.001134  -0.024017  -0.008383  -0.002956   0.004879
              13         14         15         16         17         18
     1  C   -0.089579   0.020089  -0.006691  -0.001215   0.005370  -0.000112
     2  C   -0.029952   0.037450  -0.014785  -0.009349   0.036466  -0.000460
     3  C    0.074263  -0.017432   0.039783   0.059956  -0.256893   0.002894
     4  C   -0.028184   0.033703   0.002059   0.004001  -0.019418   0.000476
     5  C   -0.056281  -0.004041   0.001114  -0.000122   0.000031   0.000025
     6  H    0.002703   0.000369  -0.000245   0.000007   0.000104  -0.000003
     7  S    0.049871   0.000701   0.004447  -0.004254   0.017758  -0.000188
     8  H    0.002353   0.000060   0.000049  -0.000017   0.000060   0.000001
     9  C   -1.496827   0.113205  -0.160064   0.080361  -0.184664  -0.004017
    10  S   -0.375588   0.042252  -0.005018  -0.053044  -0.020590  -0.005768
    11  C   -0.333214  -0.038410  -0.019044   0.107782  -1.107263  -0.027634
    12  C   -1.514301   0.226733   0.091030  -0.247606   0.019129   0.017232
    13  C    9.830978  -0.500151  -0.056644  -0.322653   0.471839   0.031331
    14  H   -0.500151   1.590743  -0.052900   0.000160  -0.011778   0.001635
    15  S   -0.056644  -0.052900  15.660771   0.208936  -0.251369  -0.130872
    16  C   -0.322653   0.000160   0.208936   5.838389   0.195027   0.234827
    17  C    0.471839  -0.011778  -0.251369   0.195027   6.705170   0.037591
    18  H    0.031331   0.001635  -0.130872   0.234827   0.037591   1.238134
    19  H   -0.018333  -0.000550   0.004466  -0.050535  -0.147292  -0.057583
    20  H   -0.000087   0.001598   0.000336  -0.000040  -0.001050   0.000014
    21  H   -0.001769   0.001643  -0.000645   0.000526   0.000581   0.000030
    22  H    0.001636  -0.000100   0.000673  -0.000070   0.002345   0.000003
              19         20         21         22
     1  C    0.000300   0.066724   0.009221  -0.015905
     2  C    0.000385   0.091181   0.015388   0.025340
     3  C   -0.010975   0.067167  -0.063453  -0.009198
     4  C   -0.001277  -0.134598   0.379683   0.317994
     5  C    0.000066   0.002306   0.005389   0.005081
     6  H    0.000008  -0.031306   0.001853  -0.000305
     7  S    0.001850  -0.007535   0.007401   0.009519
     8  H    0.000001   0.001869   0.000682   0.001134
     9  C    0.058221   0.034142  -0.036188  -0.024017
    10  S   -0.034560   0.006664  -0.001063  -0.008383
    11  C    0.216253   0.002335  -0.001985  -0.002956
    12  C   -0.023005  -0.004014   0.008978   0.004879
    13  C   -0.018333  -0.000087  -0.001769   0.001636
    14  H   -0.000550   0.001598   0.001643  -0.000100
    15  S    0.004466   0.000336  -0.000645   0.000673
    16  C   -0.050535  -0.000040   0.000526  -0.000070
    17  C   -0.147292  -0.001050   0.000581   0.002345
    18  H   -0.057583   0.000014   0.000030   0.000003
    19  H    1.384238  -0.000020   0.000083   0.000013
    20  H   -0.000020   1.333034  -0.109931  -0.089897
    21  H    0.000083  -0.109931   0.795002  -0.117364
    22  H    0.000013  -0.089897  -0.117364   0.781541
 Mulliken charges:
               1
     1  C    0.655496
     2  C   -0.868714
     3  C    0.694182
     4  C    0.280987
     5  C   -0.286613
     6  H   -0.517763
     7  S    0.419036
     8  H   -0.331820
     9  C    0.164796
    10  S    0.429617
    11  C   -0.501795
    12  C   -0.539188
    13  C    0.358588
    14  H   -0.444980
    15  S    0.684615
    16  C   -0.041067
    17  C    0.508847
    18  H   -0.337555
    19  H   -0.321752
    20  H   -0.228892
    21  H    0.105938
    22  H    0.118039
 Sum of Mulliken charges =  -0.00000
 Mulliken charges with hydrogens summed into heavy atoms:
               1
     1  C    0.137733
     2  C   -0.868714
     3  C    0.694182
     4  C    0.276072
     5  C   -0.618433
     7  S    0.419036
     9  C    0.164796
    10  S    0.429617
    11  C   -0.501795
    12  C   -0.539188
    13  C   -0.086392
    15  S    0.684615
    16  C   -0.378622
    17  C    0.187095
 Electronic spatial extent (au):  <R**2>=           4436.8631
 Charge=             -0.0000 electrons
 Dipole moment (field-independent basis, Debye):
    X=              0.4692    Y=              2.0020    Z=              1.3384  Tot=              2.4535
 Quadrupole moment (field-independent basis, Debye-Ang):
   XX=            -89.6322   YY=           -104.4047   ZZ=           -105.6523
   XY=              1.3643   XZ=             -4.5110   YZ=             -0.9475
 Traceless Quadrupole moment (field-independent basis, Debye-Ang):
   XX=             10.2642   YY=             -4.5083   ZZ=             -5.7559
   XY=              1.3643   XZ=             -4.5110   YZ=             -0.9475
 Octapole moment (field-independent basis, Debye-Ang**2):
  XXX=             24.6613  YYY=             12.5989  ZZZ=              8.3150  XYY=             11.7015
  XXY=             12.9838  XXZ=             28.1821  XZZ=             -9.1850  YZZ=              1.6019
  YYZ=              2.6366  XYZ=             17.6880
 Hexadecapole moment (field-independent basis, Debye-Ang**3):
 XXXX=          -4322.9158 YYYY=           -864.2925 ZZZZ=           -549.2023 XXXY=            -90.1772
 XXXZ=           -145.9703 YYYX=              6.4610 YYYZ=              0.8419 ZZZX=            -14.4307
 ZZZY=            -14.2540 XXYY=           -952.5917 XXZZ=           -934.2947 YYZZ=           -222.7523
 XXYZ=             29.1972 YYXZ=              3.3309 ZZXY=              9.5157
 N-N= 1.104033994428D+03 E-N=-6.026587477642D+03  KE= 1.612215417701D+03
 Calling FoFJK, ICntrl=      2127 FMM=F ISym2X=0 I1Cent= 0 IOpClX= 0 NMat=1 NMatS=1 NMatT=0.
 ***** Axes restored to original set *****
 -------------------------------------------------------------------
 Center     Atomic                   Forces (Hartrees/Bohr)
 Number     Number              X              Y              Z
 -------------------------------------------------------------------
      1        6           0.016786730   -0.076786713    0.013486778
      2        6           0.030940381   -0.064628914    0.005566331
      3        6          -0.075862134    0.028016109    0.012930870
      4        6           0.010948595    0.013977039    0.000366177
      5        6           0.014116165    0.064291082   -0.018447749
      6        1           0.001122789    0.000462957   -0.000323111
      7       16          -0.007953920    0.031842370   -0.004501322
      8        1           0.004418473   -0.003025527   -0.000033006
      9        6           0.084885422    0.028611872    0.029983212
     10       16          -0.005278168   -0.002626745    0.023120302
     11        6           0.010376201    0.036686712    0.039131156
     12        6          -0.031522814   -0.008447426   -0.045780945
     13        6          -0.058038475   -0.025178939   -0.049629645
     14        1          -0.004596508   -0.006741113    0.002559268
     15       16           0.009293651   -0.013641374   -0.019191666
     16        6          -0.060933076   -0.036118483   -0.030581838
     17        6           0.050212542    0.049653889    0.033304426
     18        1           0.002395033   -0.005288060    0.006733056
     19        1           0.006752148   -0.007262107    0.007585683
     20        1           0.000926901   -0.004127897    0.000174530
     21        1           0.003341913    0.001761021    0.000243048
     22        1          -0.002331850   -0.001429753   -0.006695553
 -------------------------------------------------------------------
 Cartesian Forces:  Max     0.084885422 RMS     0.030033832

 GradGradGradGradGradGradGradGradGradGradGradGradGradGradGradGradGradGrad
 Berny optimization.
 FormGI is forming the generalized inverse of G from B-inverse, IUseBI=4.
 Internal  Forces:  Max     0.089208087 RMS     0.017257399
 Search for a local minimum.
 Step number   1 out of a maximum of  127
 All quantities printed in internal units (Hartrees-Bohrs-Radians)
 Mixed Optimization -- RFO/linear search
 Second derivative matrix not updated -- first step.
 ITU=  0
     Eigenvalues ---    0.00935   0.00982   0.01059   0.01215   0.01241
     Eigenvalues ---    0.01277   0.01299   0.01424   0.01457   0.01495
     Eigenvalues ---    0.01498   0.01592   0.01598   0.01774   0.02202
     Eigenvalues ---    0.02653   0.07307   0.07353   0.15072   0.15686
     Eigenvalues ---    0.15738   0.15997   0.16000   0.16000   0.16000
     Eigenvalues ---    0.16000   0.17998   0.22444   0.22545   0.23319
     Eigenvalues ---    0.23980   0.24718   0.24978   0.24995   0.25000
     Eigenvalues ---    0.26147   0.26592   0.28344   0.30920   0.31328
     Eigenvalues ---    0.31531   0.33757   0.33818   0.34533   0.34844
     Eigenvalues ---    0.34935   0.35103   0.35827   0.35877   0.36006
     Eigenvalues ---    0.36063   0.36185   0.36358   0.37598   0.38337
     Eigenvalues ---    0.38438   0.39458   0.39725   0.406461000.00000
     Eigenvalues --- 1000.000001000.000001000.000001000.000001000.00000
     Eigenvalues --- 1000.000001000.000001000.000001000.000001000.00000
     Eigenvalues --- 1000.000001000.000001000.000001000.000001000.00000
     Eigenvalues --- 1000.000001000.000001000.000001000.000001000.00000
     Eigenvalues --- 1000.000001000.000001000.000001000.000001000.00000
     Eigenvalues --- 1000.000001000.000001000.000001000.000001000.00000
     Eigenvalues --- 1000.000001000.000001000.000001000.000001000.00000
     Eigenvalues --- 1000.000001000.000001000.000001000.000001000.00000
     Eigenvalues --- 1000.000001000.000001000.000001000.000001000.00000
     Eigenvalues --- 1000.000001000.000001000.000001000.000001000.00000
     Eigenvalues --- 1000.000001000.000001000.000001000.000001000.00000
     Eigenvalues --- 1000.000001000.00000
 RFO step:  Lambda=-8.35245796D-02 EMin= 9.35106172D-03
 Linear search not attempted -- first point.
 Maximum step size (   0.300) exceeded in Quadratic search.
    -- Step size scaled by   0.713
 Iteration  1 RMS(Cart)=  0.06190105 RMS(Int)=  0.00102194
 Iteration  2 RMS(Cart)=  0.00165547 RMS(Int)=  0.00034294
 Iteration  3 RMS(Cart)=  0.00000136 RMS(Int)=  0.00034294
 Iteration  4 RMS(Cart)=  0.00000000 RMS(Int)=  0.00034294
 Iteration  1 RMS(Cart)=  0.00000481 RMS(Int)=  0.00000184
 Iteration  2 RMS(Cart)=  0.00000262 RMS(Int)=  0.00000206
 Iteration  3 RMS(Cart)=  0.00000143 RMS(Int)=  0.00000232
 Iteration  4 RMS(Cart)=  0.00000078 RMS(Int)=  0.00000250
 Variable       Old X    -DE/DX   Delta X   Delta X   Delta X     New X
                                 (Linear)    (Quad)   (Total)
    R1        2.71917  -0.01180   0.00000  -0.01930  -0.01925   2.69992
    R2        2.71391  -0.07160   0.00000  -0.10632  -0.10637   2.60754
    R3        2.03793  -0.00062   0.00000  -0.00100  -0.00100   2.03693
    R4        2.75906  -0.08367   0.00000  -0.13219  -0.13210   2.62697
    R5        2.81042   0.01345   0.00000   0.02279   0.02279   2.83321
    R6        3.39578  -0.02801   0.00000  -0.05546  -0.05545   3.34033
    R7        2.74954   0.00357   0.00000   0.00554   0.00554   2.75508
    R8        2.06439  -0.00308   0.00000  -0.00512  -0.00512   2.05927
    R9        2.05781   0.00086   0.00000   0.00143   0.00143   2.05923
   R10        2.07638  -0.00616   0.00000  -0.01042  -0.01042   2.06595
   R11        3.28671  -0.02420   0.00000  -0.04195  -0.04205   3.24466
   R12        2.04073  -0.00226   0.00000  -0.00364  -0.00364   2.03709
   R13        3.38210  -0.01933   0.00000  -0.03586  -0.03622   3.34588
   R14        2.76708  -0.08921   0.00000  -0.14205  -0.14221   2.62487
   R15        3.27025  -0.00569   0.00000  -0.00885  -0.00883   3.26142
   R16        2.72206  -0.05482   0.00000  -0.08464  -0.08396   2.63810
   R17        2.69465   0.00282   0.00000   0.00193   0.00226   2.69691
   R18        2.70687  -0.00741   0.00000  -0.01305  -0.01281   2.69406
   R19        3.27342  -0.00243   0.00000  -0.00275  -0.00283   3.27058
   R20        2.03983  -0.00107   0.00000  -0.00171  -0.00171   2.03812
   R21        3.33679  -0.01846   0.00000  -0.03290  -0.03329   3.30350
   R22        2.72975  -0.08025   0.00000  -0.12143  -0.12151   2.60824
   R23        2.04353  -0.00358   0.00000  -0.00578  -0.00578   2.03774
   R24        2.05508  -0.00725   0.00000  -0.01190  -0.01190   2.04319
    A1        1.97020   0.00754   0.00000   0.01302   0.01303   1.98323
    A2        2.17330  -0.00488   0.00000  -0.00976  -0.00977   2.16353
    A3        2.13967  -0.00266   0.00000  -0.00324  -0.00325   2.13642
    A4        1.97187  -0.00155   0.00000  -0.00688  -0.00673   1.96514
    A5        2.09905   0.01327   0.00000   0.03015   0.03008   2.12912
    A6        2.21227  -0.01172   0.00000  -0.02328  -0.02335   2.18892
    A7        1.90440   0.00627   0.00000   0.01451   0.01462   1.91902
    A8        2.31891  -0.01562   0.00000  -0.03399  -0.03405   2.28487
    A9        2.05972   0.00934   0.00000   0.01941   0.01936   2.07907
   A10        1.94548  -0.00446   0.00000  -0.01226  -0.01223   1.93325
   A11        1.93409   0.00268   0.00000   0.00732   0.00733   1.94142
   A12        1.93331   0.00294   0.00000   0.00834   0.00835   1.94166
   A13        1.87410   0.00133   0.00000   0.00442   0.00444   1.87854
   A14        1.86607   0.00156   0.00000   0.00559   0.00562   1.87169
   A15        1.90848  -0.00421   0.00000  -0.01385  -0.01386   1.89462
   A16        1.95339  -0.00379   0.00000  -0.00915  -0.00928   1.94411
   A17        2.17580   0.00684   0.00000   0.01906   0.01913   2.19493
   A18        2.15384  -0.00304   0.00000  -0.00987  -0.00980   2.14404
   A19        1.62490  -0.00847   0.00000  -0.01148  -0.01163   1.61327
   A20        2.12891  -0.00335   0.00000  -0.00696  -0.00699   2.12192
   A21        2.24056  -0.00372   0.00000  -0.00776  -0.00780   2.23277
   A22        1.91303   0.00715   0.00000   0.01518   0.01517   1.92820
   A23        1.61906  -0.00667   0.00000  -0.01051  -0.01037   1.60868
   A24        1.96155  -0.01209   0.00000  -0.02181  -0.02245   1.93910
   A25        2.23850   0.00961   0.00000   0.03419   0.03300   2.27150
   A26        1.96596   0.00689   0.00000   0.01432   0.01451   1.98046
   A27        1.96609   0.00810   0.00000   0.01571   0.01579   1.98189
   A28        1.96654  -0.01432   0.00000  -0.02634  -0.02682   1.93971
   A29        2.23714   0.01039   0.00000   0.03546   0.03436   2.27150
   A30        1.96432   0.00355   0.00000   0.00164   0.00204   1.96636
   A31        2.16036  -0.00614   0.00000  -0.01212  -0.01261   2.14775
   A32        2.14670   0.00333   0.00000   0.01571   0.01523   2.16193
   A33        1.59291   0.00040   0.00000   0.00333   0.00342   1.59633
   A34        1.95996   0.00078   0.00000   0.00063   0.00045   1.96042
   A35        2.13566  -0.00377   0.00000  -0.00786  -0.00840   2.12726
   A36        2.17045   0.00428   0.00000   0.01620   0.01574   2.18619
   A37        1.93911   0.00625   0.00000   0.00808   0.00846   1.94757
   A38        2.16544  -0.00009   0.00000   0.00937   0.00844   2.17388
   A39        2.14166  -0.00392   0.00000  -0.00243  -0.00339   2.13827
    D1        0.00683  -0.00053   0.00000  -0.00497  -0.00500   0.00184
    D2       -3.13456  -0.00057   0.00000  -0.00527  -0.00529  -3.13985
    D3       -3.13952  -0.00012   0.00000  -0.00145  -0.00148  -3.14100
    D4        0.00227  -0.00016   0.00000  -0.00175  -0.00178   0.00049
    D5       -0.00671   0.00049   0.00000   0.00335   0.00332  -0.00339
    D6       -3.13020   0.00007   0.00000   0.00068   0.00065  -3.12954
    D7        3.13954   0.00010   0.00000  -0.00008  -0.00011   3.13942
    D8        0.01605  -0.00033   0.00000  -0.00274  -0.00277   0.01328
    D9       -0.00388   0.00043   0.00000   0.00442   0.00440   0.00052
   D10        3.11762   0.00053   0.00000   0.00083   0.00084   3.11846
   D11        3.13750   0.00047   0.00000   0.00475   0.00472  -3.14097
   D12       -0.02418   0.00057   0.00000   0.00116   0.00115  -0.02303
   D13        0.03777  -0.00021   0.00000  -0.00111  -0.00112   0.03665
   D14       -2.04840  -0.00073   0.00000  -0.00348  -0.00347  -2.05187
   D15        2.11332   0.00079   0.00000   0.00343   0.00342   2.11673
   D16       -3.10360  -0.00025   0.00000  -0.00146  -0.00145  -3.10505
   D17        1.09342  -0.00077   0.00000  -0.00383  -0.00381   1.08961
   D18       -1.02805   0.00075   0.00000   0.00309   0.00308  -1.02497
   D19        0.00006  -0.00008   0.00000  -0.00207  -0.00212  -0.00206
   D20       -3.12486   0.00016   0.00000   0.00161   0.00166  -3.12319
   D21       -1.74553  -0.00132   0.00000   0.00000  -0.00000  -1.74553
   D22        1.35207   0.00141   0.00000   0.01515   0.01517   1.36725
   D23        1.37456  -0.00127   0.00000  -0.00396  -0.00395   1.37061
   D24       -1.81102   0.00146   0.00000   0.01119   0.01122  -1.79980
   D25        0.00376  -0.00020   0.00000  -0.00064  -0.00065   0.00311
   D26        3.12751   0.00033   0.00000   0.00234   0.00227   3.12978
   D27        3.13742   0.00105   0.00000   0.00636   0.00634  -3.13942
   D28        0.03243  -0.00102   0.00000  -0.00582  -0.00600   0.02643
   D29       -3.13875  -0.00180   0.00000  -0.00980  -0.00966   3.13478
   D30       -0.15765   0.00357   0.00000   0.02712   0.02702  -0.13063
   D31       -0.03676   0.00047   0.00000   0.00346   0.00374  -0.03302
   D32        2.94433   0.00584   0.00000   0.04037   0.04043   2.98476
   D33       -0.02050   0.00182   0.00000   0.00773   0.00764  -0.01285
   D34       -2.61689  -0.00861   0.00000  -0.05101  -0.05121  -2.66810
   D35        0.00253  -0.00139   0.00000  -0.00632  -0.00618  -0.00365
   D36       -2.68847  -0.01208   0.00000  -0.06213  -0.06082  -2.74930
   D37        2.68716   0.00938   0.00000   0.05162   0.05069   2.73785
   D38       -0.00384  -0.00132   0.00000  -0.00419  -0.00396  -0.00780
   D39        2.61372   0.00669   0.00000   0.05241   0.05333   2.66705
   D40       -0.24489  -0.00109   0.00000  -0.00316  -0.00271  -0.24760
   D41        0.01844   0.00102   0.00000   0.00262   0.00243   0.02087
   D42       -2.84017  -0.00676   0.00000  -0.05295  -0.05361  -2.89378
   D43        0.02268   0.00069   0.00000   0.00182   0.00165   0.02433
   D44       -2.95986  -0.00362   0.00000  -0.03182  -0.03242  -2.99228
   D45        2.62771   0.00542   0.00000   0.04730   0.04822   2.67593
   D46       -0.35484   0.00111   0.00000   0.01366   0.01416  -0.34068
   D47       -0.00904   0.00131   0.00000   0.00402   0.00391  -0.00512
   D48       -2.61395  -0.00899   0.00000  -0.05192  -0.05192  -2.66587
   D49        0.01963  -0.00059   0.00000  -0.00232  -0.00238   0.01724
   D50        2.97140   0.00702   0.00000   0.04885   0.04843   3.01983
   D51       -0.02514   0.00002   0.00000   0.00051   0.00072  -0.02443
   D52        2.83798   0.00838   0.00000   0.05740   0.05762   2.89560
   D53       -2.97247  -0.00672   0.00000  -0.04872  -0.04896  -3.02142
   D54       -0.10934   0.00163   0.00000   0.00817   0.00794  -0.10140
         Item               Value     Threshold  Converged?
 Maximum Force            0.089206     0.000450     NO 
 RMS     Force            0.017331     0.000300     NO 
 Maximum Displacement     0.212544     0.001800     NO 
 RMS     Displacement     0.062247     0.001200     NO 
 Predicted change in Energy=-4.342959D-02
 GradGradGradGradGradGradGradGradGradGradGradGradGradGradGradGradGradGrad

                          Input orientation:                          
 ---------------------------------------------------------------------
 Center     Atomic      Atomic             Coordinates (Angstroms)
 Number     Number       Type             X           Y           Z
 ---------------------------------------------------------------------
      1          6           0       -4.206345   -1.398092   -0.194250
      2          6           0       -2.897246   -0.995375   -0.600906
      3          6           0       -1.991713   -2.050099   -0.606830
      4          6           0       -2.581839    0.422629   -0.971840
      5          6           0       -4.302685   -2.740692    0.109288
      6          1           0       -5.048083   -0.728345   -0.125134
      7         16           0       -2.797578   -3.539787   -0.100943
      8          1           0       -5.197219   -3.252482    0.425395
      9          6           0       -0.581190   -2.095493   -0.972769
     10         16           0       -0.052101   -2.693846   -2.552936
     11          6           0        1.609456   -2.424202   -2.171947
     12          6           0        1.750340   -1.882043   -0.893239
     13          6           0        0.509848   -1.679386   -0.220523
     14          1           0        0.412526   -1.150904    0.714601
     15         16           0        3.256558   -1.044813   -0.732804
     16          6           0        3.698211   -1.431588   -2.379413
     17          6           0        2.717955   -2.153973   -3.029239
     18          1           0        4.579054   -1.018865   -2.844779
     19          1           0        2.711281   -2.290491   -4.101773
     20          1           0       -3.457989    1.058553   -0.847543
     21          1           0       -2.264572    0.497367   -2.011648
     22          1           0       -1.791669    0.831929   -0.336770
 ---------------------------------------------------------------------
                    Distance matrix (angstroms):
                    1          2          3          4          5
     1  C    0.000000
     2  C    1.428737   0.000000
     3  C    2.345193   1.390132   0.000000
     4  C    2.560994   1.499270   2.568242   0.000000
     5  C    1.379852   2.350695   2.516016   3.759887   0.000000
     6  H    1.077897   2.218956   3.364590   2.850266   2.158729
     7  S    2.565188   2.594982   1.767629   4.062727   1.717003
     8  H    2.191930   3.381968   3.575819   4.722174   1.077982
     9  C    3.772824   2.590879   1.457925   3.216136   3.928951
    10  S    4.949759   3.845786   2.822027   4.314146   5.015685
    11  C    6.227979   4.981975   3.944358   5.206885   6.344889
    12  C    6.017050   4.740432   3.756758   4.907694   6.195277
    13  C    4.724647   3.495833   2.558215   3.813328   4.939192
    14  H    4.713924   3.565016   2.887057   3.779724   5.012688
    15  S    7.490645   6.155415   5.345167   6.024732   7.792771
    16  C    8.201101   6.844956   5.991648   6.697642   8.480668
    17  C    7.520269   6.226526   5.297153   6.241761   7.712586
    18  H    9.184354   7.805804   7.017610   7.540835   9.517169
    19  H    7.994914   6.737133   5.864347   6.721206   8.193377
    20  H    2.649893   2.143335   3.445523   1.089720   4.007905
    21  H    3.265911   2.149127   2.921908   1.089699   4.374620
    22  H    3.289979   2.152000   2.901557   1.093256   4.389508
                    6          7          8          9         10
     6  H    0.000000
     7  S    3.601329   0.000000
     8  H    2.587778   2.473429   0.000000
     9  C    4.747706   2.785398   4.959961   0.000000
    10  S    5.892135   3.776974   5.971162   1.770562   0.000000
    11  C    7.168557   4.995552   7.332330   2.518930   1.725872
    12  C    6.938268   4.905039   7.203158   2.342631   2.581165
    13  C    5.639519   3.796637   5.955036   1.389022   2.604816
    14  H    5.540936   4.083705   5.997459   2.174152   3.643261
    15  S    8.332855   6.578503   8.813715   3.986204   4.120609
    16  C    9.059470   7.199389   9.503225   4.553317   3.960839
    17  C    8.412942   6.396601   8.705814   3.888039   2.862086
    18  H   10.008129   8.264284  10.547920   5.593896   4.933390
    19  H    8.857860   6.922059   9.163244   4.546323   3.193410
    20  H    2.498655   4.705135   4.819784   4.270791   5.346863
    21  H    3.579000   4.498167   5.347987   3.261282   3.920696
    22  H    3.617109   4.492145   5.372251   3.231029   4.513156
                   11         12         13         14         15
    11  C    0.000000
    12  C    1.396023   0.000000
    13  C    2.360497   1.425636   0.000000
    14  H    3.374328   2.215730   1.078527   0.000000
    15  S    2.585883   1.730718   2.865228   3.192922   0.000000
    16  C    2.321900   2.491149   3.858481   4.521884   1.748135
    17  C    1.427145   2.360661   3.604144   4.509710   2.606520
    18  H    3.353534   3.543333   4.886866   5.481476   2.492010
    19  H    2.226235   3.374156   4.503760   5.457141   3.633042
    20  H    6.289884   5.981295   4.861399   4.722593   7.037220
    21  H    4.854828   4.799161   3.955223   4.161260   5.873384
    22  H    5.053505   4.496791   3.408401   3.145709   5.400333
                   16         17         18         19         20
    16  C    0.000000
    17  C    1.380223   0.000000
    18  H    1.078328   2.187736   0.000000
    19  H    2.162930   1.081208   2.585661   0.000000
    20  H    7.730371   7.295369   8.538073   7.737313   0.000000
    21  H    6.277810   5.735039   7.058915   6.074527   1.759067
    22  H    6.279704   6.041664   7.092367   6.648406   1.757518
                   21         22
    21  H    0.000000
    22  H    1.772225   0.000000
 Stoichiometry    C11H8S3
 Framework group  C1[X(C11H8S3)]
 Deg. of freedom    60
 Full point group                 C1      NOp   1
 Largest Abelian subgroup         C1      NOp   1
 Largest concise Abelian subgroup C1      NOp   1
                         Standard orientation:                         
 ---------------------------------------------------------------------
 Center     Atomic      Atomic             Coordinates (Angstroms)
 Number     Number       Type             X           Y           Z
 ---------------------------------------------------------------------
      1          6           0        3.922670    0.775738    0.266108
      2          6           0        2.527800    1.026868    0.446555
      3          6           0        1.730241    0.027379   -0.098777
      4          6           0        2.025940    2.249696    1.154112
      5          6           0        4.190639   -0.397269   -0.409346
      6          1           0        4.702898    1.431266    0.617378
      7         16           0        2.744515   -1.220187   -0.833174
      8          1           0        5.171016   -0.780499   -0.641810
      9          6           0        0.281267   -0.132429   -0.120691
     10         16           0       -0.550123   -1.208052    1.013645
     11          6           0       -2.094645   -0.828519    0.343541
     12          6           0       -1.978266    0.097242   -0.694872
     13          6           0       -0.635612    0.505006   -0.946761
     14          1           0       -0.366459    1.306792   -1.616028
     15         16           0       -3.467204    0.942749   -0.946997
     16          6           0       -4.245592    0.045890    0.335864
     17          6           0       -3.388684   -0.848323    0.945050
     18          1           0       -5.239442    0.287191    0.677666
     19          1           0       -3.619193   -1.323507    1.888489
     20          1           0        2.854913    2.890980    1.452523
     21          1           0        1.472369    1.985307    2.054724
     22          1           0        1.374343    2.842637    0.506771
 ---------------------------------------------------------------------
 Rotational constants (GHZ):           1.2603604           0.2655515           0.2518862
 Standard basis: Aug-CC-pVDZ (5D, 7F)
 There are   434 symmetry adapted cartesian basis functions of A   symmetry.
 There are   406 symmetry adapted basis functions of A   symmetry.
   406 basis functions,   804 primitive gaussians,   434 cartesian basis functions
    61 alpha electrons       61 beta electrons
       nuclear repulsion energy      1120.2161100438 Hartrees.
 NAtoms=   22 NActive=   22 NUniq=   22 SFac= 1.00D+00 NAtFMM=   60 NAOKFM=F Big=F
 Integral buffers will be    131072 words long.
 Raffenetti 1 integral format.
 Two-electron integral symmetry is turned on.
 One-electron integrals computed using PRISM.
 NBasis=   406 RedAO= T EigKep=  4.56D-06  NBF=   406
 NBsUse=   406 1.00D-06 EigRej= -1.00D+00 NBFU=   406
 Initial guess from the checkpoint file:  "/tmp/pbs.4762177[75].pbs/Gau-3076362.chk"
 B after Tr=     0.000000    0.000000    0.000000
         Rot=    0.999988   -0.003272    0.002554   -0.002453 Ang=  -0.55 deg.
 ExpMin= 2.97D-02 ExpMax= 1.11D+05 ExpMxC= 1.07D+03 IAcc=3 IRadAn=         5 AccDes= 0.00D+00
 Harris functional with IExCor=  205 and IRadAn=       5 diagonalized for initial guess.
 HarFok:  IExCor=  205 AccDes= 0.00D+00 IRadAn=         5 IDoV= 1 UseB2=F ITyADJ=14
 ICtDFT=  3500011 ScaDFX=  1.000000  1.000000  1.000000  1.000000
 FoFCou: FMM=F IPFlag=           0 FMFlag=      100000 FMFlg1=           0
         NFxFlg=           0 DoJE=T BraDBF=F KetDBF=T FulRan=T
         wScrn=  0.000000 ICntrl=       500 IOpCl=  0 I1Cent=   200000004 NGrid=           0
         NMat0=    1 NMatS0=      1 NMatT0=    0 NMatD0=    1 NMtDS0=    0 NMtDT0=    0
 Petite list used in FoFCou.
 Requested convergence on RMS density matrix=1.00D-08 within 128 cycles.
 Requested convergence on MAX density matrix=1.00D-06.
 Requested convergence on             energy=1.00D-06.
 No special actions if energy rises.
 SCF Done:  E(RHF) =  -1613.79360796     A.U. after   16 cycles
            NFock= 16  Conv=0.47D-08     -V/T= 2.0003
 Calling FoFJK, ICntrl=      2127 FMM=F ISym2X=0 I1Cent= 0 IOpClX= 0 NMat=1 NMatS=1 NMatT=0.
 ***** Axes restored to original set *****
 -------------------------------------------------------------------
 Center     Atomic                   Forces (Hartrees/Bohr)
 Number     Number              X              Y              Z
 -------------------------------------------------------------------
      1        6          -0.002707276   -0.032057189    0.008580191
      2        6           0.020829031   -0.021259647   -0.000381526
      3        6          -0.038892920    0.005464539    0.007305181
      4        6           0.004045514    0.007257279   -0.000112908
      5        6           0.001917760    0.030044626   -0.008123613
      6        1           0.000321062    0.001572657   -0.000386901
      7       16           0.003222214    0.007762393   -0.002282520
      8        1           0.002704798   -0.002483900    0.000327201
      9        6           0.042826355    0.013592089    0.010856652
     10       16          -0.008545171   -0.007644051    0.007326948
     11        6           0.000613659    0.021572679    0.019884494
     12        6          -0.008541420    0.000645113   -0.028602895
     13        6          -0.029530033   -0.009238528   -0.015766411
     14        1          -0.001454790   -0.005585837    0.002784677
     15       16           0.010864358   -0.005118085   -0.001442143
     16        6          -0.027507016   -0.013802334   -0.014405439
     17        6           0.022800782    0.022295585    0.009017971
     18        1           0.002617341   -0.003181186    0.005007318
     19        1           0.003510215   -0.007594130    0.003241769
     20        1           0.000007548   -0.001565211   -0.000085837
     21        1           0.001726291    0.000354621    0.000418032
     22        1          -0.000828302   -0.001031482   -0.003160241
 -------------------------------------------------------------------
 Cartesian Forces:  Max     0.042826355 RMS     0.013808663

 GradGradGradGradGradGradGradGradGradGradGradGradGradGradGradGradGradGrad
 Berny optimization.
 Using GEDIIS/GDIIS optimizer.
 FormGI is forming the generalized inverse of G from B-inverse, IUseBI=4.
 Internal  Forces:  Max     0.035759755 RMS     0.007062651
 Search for a local minimum.
 Step number   2 out of a maximum of  127
 All quantities printed in internal units (Hartrees-Bohrs-Radians)
 Mixed Optimization -- RFO/linear search
 Update second derivatives using D2CorX and points    1    2
 DE= -4.33D-02 DEPred=-4.34D-02 R= 9.96D-01
 TightC=F SS=  1.41D+00  RLast= 3.49D-01 DXNew= 5.0454D-01 1.0471D+00
 Trust test= 9.96D-01 RLast= 3.49D-01 DXMaxT set to 5.05D-01
 ITU=  1  0
 Use linear search instead of GDIIS.
     Eigenvalues ---    0.00935   0.00981   0.01053   0.01210   0.01241
     Eigenvalues ---    0.01274   0.01292   0.01388   0.01460   0.01483
     Eigenvalues ---    0.01499   0.01590   0.01592   0.01720   0.02055
     Eigenvalues ---    0.02376   0.07255   0.07377   0.15417   0.15781
     Eigenvalues ---    0.15840   0.15966   0.16000   0.16000   0.16000
     Eigenvalues ---    0.16024   0.18677   0.22459   0.22510   0.23421
     Eigenvalues ---    0.24065   0.24575   0.24894   0.24991   0.25076
     Eigenvalues ---    0.26116   0.26593   0.28396   0.30532   0.31131
     Eigenvalues ---    0.31428   0.33713   0.33815   0.34534   0.34899
     Eigenvalues ---    0.34938   0.35111   0.35827   0.35960   0.36008
     Eigenvalues ---    0.36066   0.36113   0.36238   0.37103   0.38110
     Eigenvalues ---    0.38817   0.39502   0.40418   0.447471000.00000
     Eigenvalues --- 1000.000001000.000001000.000001000.000001000.00000
     Eigenvalues --- 1000.000001000.000001000.000001000.000001000.00000
     Eigenvalues --- 1000.000001000.000001000.000001000.000001000.00000
     Eigenvalues --- 1000.000001000.000001000.000001000.000001000.00000
     Eigenvalues --- 1000.000001000.000001000.000001000.000001000.00000
     Eigenvalues --- 1000.000001000.000001000.000001000.000001000.00000
     Eigenvalues --- 1000.000001000.000001000.000001000.000001000.00000
     Eigenvalues --- 1000.000001000.000001000.000001000.000001000.00000
     Eigenvalues --- 1000.000001000.000001000.000001000.000001000.00000
     Eigenvalues --- 1000.000001000.000001000.000001000.000001000.00000
     Eigenvalues --- 1000.000001000.000001000.000001000.000001000.00000
     Eigenvalues --- 1000.000001000.00000
 RFO step:  Lambda=-8.62774868D-03 EMin= 9.35102967D-03
 Quartic linear search produced a step of  0.56185.
 Iteration  1 RMS(Cart)=  0.07618260 RMS(Int)=  0.00575008
 Iteration  2 RMS(Cart)=  0.00729825 RMS(Int)=  0.00223602
 Iteration  3 RMS(Cart)=  0.00003158 RMS(Int)=  0.00223586
 Iteration  4 RMS(Cart)=  0.00000002 RMS(Int)=  0.00223586
 Iteration  1 RMS(Cart)=  0.00000895 RMS(Int)=  0.00000345
 Iteration  2 RMS(Cart)=  0.00000491 RMS(Int)=  0.00000385
 Iteration  3 RMS(Cart)=  0.00000269 RMS(Int)=  0.00000435
 Iteration  4 RMS(Cart)=  0.00000148 RMS(Int)=  0.00000468
 Iteration  5 RMS(Cart)=  0.00000081 RMS(Int)=  0.00000488
 Variable       Old X    -DE/DX   Delta X   Delta X   Delta X     New X
                                 (Linear)    (Quad)   (Total)
    R1        2.69992   0.00300  -0.01081   0.02918   0.01834   2.71826
    R2        2.60754  -0.02714  -0.05976   0.00061  -0.05927   2.54827
    R3        2.03693   0.00070  -0.00056   0.00392   0.00336   2.04029
    R4        2.62697  -0.03129  -0.07422   0.00287  -0.07124   2.55572
    R5        2.83321   0.00651   0.01280   0.00587   0.01868   2.85189
    R6        3.34033  -0.01174  -0.03115  -0.00466  -0.03571   3.30463
    R7        2.75508   0.00775   0.00311   0.02562   0.02874   2.78382
    R8        2.05927  -0.00093  -0.00288   0.00112  -0.00176   2.05751
    R9        2.05923   0.00013   0.00080  -0.00088  -0.00008   2.05915
   R10        2.06595  -0.00282  -0.00586  -0.00196  -0.00782   2.05813
   R11        3.24466  -0.00285  -0.02362   0.03083   0.00715   3.25181
   R12        2.03709  -0.00097  -0.00204  -0.00042  -0.00247   2.03462
   R13        3.34588  -0.00756  -0.02035   0.00752  -0.01538   3.33050
   R14        2.62487  -0.03576  -0.07990  -0.00245  -0.08403   2.54084
   R15        3.26142   0.00348  -0.00496   0.02380   0.01959   3.28101
   R16        2.63810  -0.02182  -0.04717  -0.01433  -0.05695   2.58115
   R17        2.69691   0.00534   0.00127   0.01337   0.01621   2.71313
   R18        2.69406   0.00358  -0.00720   0.02183   0.01590   2.70997
   R19        3.27058   0.00360  -0.00159   0.01919   0.01746   3.28805
   R20        2.03812  -0.00019  -0.00096   0.00091  -0.00005   2.03807
   R21        3.30350  -0.00591  -0.01870   0.01340  -0.00740   3.29610
   R22        2.60824  -0.03034  -0.06827   0.00413  -0.06485   2.54339
   R23        2.03774  -0.00124  -0.00325   0.00056  -0.00269   2.03506
   R24        2.04319  -0.00228  -0.00668   0.00218  -0.00450   2.03869
    A1        1.98323   0.00058   0.00732  -0.01399  -0.00682   1.97641
    A2        2.16353  -0.00181  -0.00549  -0.00261  -0.00803   2.15550
    A3        2.13642   0.00123  -0.00183   0.01660   0.01484   2.15126
    A4        1.96514  -0.00165  -0.00378  -0.00468  -0.00840   1.95675
    A5        2.12912   0.00564   0.01690   0.00123   0.01809   2.14722
    A6        2.18892  -0.00399  -0.01312   0.00345  -0.00971   2.17921
    A7        1.91902   0.00579   0.00822   0.01853   0.02692   1.94594
    A8        2.28487  -0.01066  -0.01913  -0.02575  -0.04498   2.23989
    A9        2.07907   0.00487   0.01087   0.00734   0.01812   2.09719
   A10        1.93325  -0.00155  -0.00687   0.00455  -0.00231   1.93094
   A11        1.94142   0.00062   0.00412  -0.00593  -0.00182   1.93961
   A12        1.94166   0.00098   0.00469  -0.00279   0.00190   1.94356
   A13        1.87854   0.00077   0.00249   0.00235   0.00486   1.88339
   A14        1.87169   0.00101   0.00316   0.00530   0.00847   1.88016
   A15        1.89462  -0.00184  -0.00779  -0.00304  -0.01084   1.88377
   A16        1.94411   0.00051  -0.00522   0.01457   0.00915   1.95326
   A17        2.19493   0.00334   0.01075   0.00645   0.01727   2.21220
   A18        2.14404  -0.00385  -0.00551  -0.02089  -0.02633   2.11772
   A19        1.61327  -0.00523  -0.00653  -0.01443  -0.02091   1.59236
   A20        2.12192  -0.00352  -0.00393  -0.01416  -0.01812   2.10380
   A21        2.23277  -0.00201  -0.00438  -0.00425  -0.00866   2.22411
   A22        1.92820   0.00557   0.00853   0.01912   0.02700   1.95520
   A23        1.60868  -0.00463  -0.00583  -0.01958  -0.02338   1.58530
   A24        1.93910  -0.00309  -0.01261   0.01702   0.00175   1.94085
   A25        2.27150   0.00487   0.01854   0.04231   0.05027   2.32177
   A26        1.98046   0.00138   0.00815  -0.00464   0.00262   1.98308
   A27        1.98189   0.00120   0.00887  -0.00609   0.00138   1.98326
   A28        1.93971  -0.00326  -0.01507   0.02154   0.00370   1.94341
   A29        2.27150   0.00514   0.01931   0.04114   0.04982   2.32132
   A30        1.96636   0.00099   0.00115  -0.00908  -0.00631   1.96005
   A31        2.14775  -0.00189  -0.00709   0.01196   0.00186   2.14960
   A32        2.16193   0.00137   0.00856   0.00569   0.01120   2.17313
   A33        1.59633  -0.00251   0.00192  -0.02458  -0.01983   1.57650
   A34        1.96042   0.00287   0.00025   0.02102   0.01966   1.98007
   A35        2.12726  -0.00464  -0.00472  -0.02007  -0.02960   2.09767
   A36        2.18619   0.00258   0.00884   0.01522   0.01921   2.20541
   A37        1.94757   0.00154   0.00475  -0.01262  -0.00601   1.94156
   A38        2.17388  -0.00053   0.00474   0.00706   0.00531   2.17919
   A39        2.13827   0.00037  -0.00190   0.02967   0.02146   2.15973
    D1        0.00184  -0.00040  -0.00281  -0.00703  -0.00980  -0.00797
    D2       -3.13985  -0.00049  -0.00297  -0.01146  -0.01443   3.12890
    D3       -3.14100  -0.00012  -0.00083  -0.00347  -0.00437   3.13782
    D4        0.00049  -0.00021  -0.00100  -0.00790  -0.00899  -0.00850
    D5       -0.00339   0.00032   0.00186   0.00221   0.00406   0.00066
    D6       -3.12954  -0.00008   0.00037  -0.00670  -0.00648  -3.13602
    D7        3.13942   0.00005  -0.00006  -0.00127  -0.00134   3.13808
    D8        0.01328  -0.00035  -0.00156  -0.01018  -0.01189   0.00139
    D9        0.00052   0.00031   0.00247   0.00835   0.01086   0.01139
   D10        3.11846   0.00054   0.00047   0.01440   0.01485   3.13331
   D11       -3.14097   0.00040   0.00265   0.01296   0.01559  -3.12538
   D12       -0.02303   0.00063   0.00065   0.01901   0.01957  -0.00346
   D13        0.03665  -0.00021  -0.00063  -0.00300  -0.00362   0.03304
   D14       -2.05187  -0.00056  -0.00195  -0.00507  -0.00700  -2.05887
   D15        2.11673   0.00067   0.00192   0.00483   0.00674   2.12348
   D16       -3.10505  -0.00031  -0.00082  -0.00802  -0.00884  -3.11389
   D17        1.08961  -0.00066  -0.00214  -0.01009  -0.01223   1.07738
   D18       -1.02497   0.00058   0.00173  -0.00020   0.00152  -1.02345
   D19       -0.00206  -0.00010  -0.00119  -0.00608  -0.00737  -0.00943
   D20       -3.12319  -0.00006   0.00093  -0.01077  -0.00999  -3.13318
   D21       -1.74553  -0.00108  -0.00000   0.00000  -0.00000  -1.74553
   D22        1.36725   0.00127   0.00852   0.03493   0.04358   1.41082
   D23        1.37061  -0.00084  -0.00222   0.00658   0.00428   1.37489
   D24       -1.79980   0.00151   0.00630   0.04150   0.04786  -1.75194
   D25        0.00311  -0.00012  -0.00036   0.00222   0.00173   0.00484
   D26        3.12978   0.00033   0.00128   0.01109   0.01205  -3.14135
   D27       -3.13942   0.00065   0.00356  -0.00612  -0.00279   3.14097
   D28        0.02643  -0.00124  -0.00337  -0.03527  -0.03970  -0.01326
   D29        3.13478  -0.00084  -0.00543   0.01057   0.00531   3.14009
   D30       -0.13063   0.00329   0.01518   0.08471   0.09970  -0.03093
   D31       -0.03302   0.00118   0.00210   0.04191   0.04523   0.01221
   D32        2.98476   0.00532   0.02271   0.11605   0.13962   3.12437
   D33       -0.01285   0.00116   0.00429   0.01943   0.02355   0.01070
[...]
 ---------------------------------------------------------------------
 Rotational constants (GHZ):           1.2841767           0.2615669           0.2528285

 **********************************************************************

            Population analysis using the SCF Density.

 **********************************************************************

 Orbital symmetries:
       Occupied  (A) (A) (A) (A) (A) (A) (A) (A) (A) (A) (A) (A)
                 (A) (A) (A) (A) (A) (A) (A) (A) (A) (A) (A) (A)
                 (A) (A) (A) (A) (A) (A) (A) (A) (A) (A) (A) (A)
                 (A) (A) (A) (A) (A) (A) (A) (A) (A) (A) (A) (A)
                 (A) (A) (A) (A) (A) (A) (A) (A) (A) (A) (A) (A)
                 (A)
       Virtual   (A) (A) (A) (A) (A) (A) (A) (A) (A) (A) (A) (A)
                 (A) (A) (A) (A) (A) (A) (A) (A) (A) (A) (A) (A)
                 (A) (A) (A) (A) (A) (A) (A) (A) (A) (A) (A) (A)
                 (A) (A) (A) (A) (A) (A) (A) (A) (A) (A) (A) (A)
                 (A) (A) (A) (A) (A) (A) (A) (A) (A) (A) (A) (A)
                 (A) (A) (A) (A) (A) (A) (A) (A) (A) (A) (A) (A)
                 (A) (A) (A) (A) (A) (A) (A) (A) (A) (A) (A) (A)
                 (A) (A) (A) (A) (A) (A) (A) (A) (A) (A) (A) (A)
                 (A) (A) (A) (A) (A) (A) (A) (A) (A) (A) (A) (A)
                 (A) (A) (A) (A) (A) (A) (A) (A) (A) (A) (A) (A)
                 (A) (A) (A) (A) (A) (A) (A) (A) (A) (A) (A) (A)
                 (A) (A) (A) (A) (A) (A) (A) (A) (A) (A) (A) (A)
                 (A) (A) (A) (A) (A) (A) (A) (A) (A) (A) (A) (A)
                 (A) (A) (A) (A) (A) (A) (A) (A) (A) (A) (A) (A)
                 (A) (A) (A) (A) (A) (A) (A) (A) (A) (A) (A) (A)
                 (A) (A) (A) (A) (A) (A) (A) (A) (A) (A) (A) (A)
                 (A) (A) (A) (A) (A) (A) (A) (A) (A) (A) (A) (A)
                 (A) (A) (A) (A) (A) (A) (A) (A) (A) (A) (A) (A)
                 (A) (A) (A) (A) (A) (A) (A) (A) (A) (A) (A) (A)
                 (A) (A) (A) (A) (A) (A) (A) (A) (A) (A) (A) (A)
                 (A) (A) (A) (A) (A) (A) (A) (A) (A) (A) (A) (A)
                 (A) (A) (A) (A) (A) (A) (A) (A) (A) (A) (A) (A)
                 (A) (A) (A) (A) (A) (A) (A) (A) (A) (A) (A) (A)
                 (A) (A) (A) (A) (A) (A) (A) (A) (A) (A) (A) (A)
                 (A) (A) (A) (A) (A) (A) (A) (A) (A) (A) (A) (A)
                 (A) (A) (A) (A) (A) (A) (A) (A) (A) (A) (A) (A)
                 (A) (A) (A) (A) (A) (A) (A) (A) (A) (A) (A) (A)
                 (A) (A) (A) (A) (A) (A) (A) (A) (A) (A) (A) (A)
                 (A) (A) (A) (A) (A) (A) (A) (A) (A)
 The electronic state is 1-A.
 Alpha  occ. eigenvalues --  -91.99065 -91.98942 -91.98319 -11.28766 -11.27814
 Alpha  occ. eigenvalues --  -11.27443 -11.27309 -11.27156 -11.27144 -11.25814
 Alpha  occ. eigenvalues --  -11.25812 -11.25536 -11.24283 -11.23599  -8.99246
 Alpha  occ. eigenvalues --   -8.99096  -8.98536  -6.67413  -6.67335  -6.67260
 Alpha  occ. eigenvalues --   -6.67178  -6.67128  -6.66972  -6.66700  -6.66608
 Alpha  occ. eigenvalues --   -6.66417  -1.21734  -1.18538  -1.12853  -1.03924
 Alpha  occ. eigenvalues --   -1.02478  -1.01586  -0.95816  -0.94618  -0.91813
 Alpha  occ. eigenvalues --   -0.82086  -0.77383  -0.76425  -0.72673  -0.69975
 Alpha  occ. eigenvalues --   -0.67346  -0.66865  -0.60713  -0.59049  -0.58822
 Alpha  occ. eigenvalues --   -0.56700  -0.56332  -0.54667  -0.53814  -0.52507
 Alpha  occ. eigenvalues --   -0.51722  -0.50955  -0.49478  -0.47376  -0.46238
 Alpha  occ. eigenvalues --   -0.46062  -0.38816  -0.34201  -0.33184  -0.32152
 Alpha  occ. eigenvalues --   -0.30500
 Alpha virt. eigenvalues --    0.03395   0.03494   0.04145   0.04670   0.04916
 Alpha virt. eigenvalues --    0.05603   0.06322   0.07341   0.08452   0.08597
 Alpha virt. eigenvalues --    0.08835   0.08978   0.10185   0.10383   0.10852
 Alpha virt. eigenvalues --    0.11264   0.11803   0.12391   0.12628   0.12970
 Alpha virt. eigenvalues --    0.13181   0.13819   0.14052   0.14120   0.14648
 Alpha virt. eigenvalues --    0.14764   0.15172   0.15630   0.15755   0.16172
 Alpha virt. eigenvalues --    0.16487   0.16662   0.17125   0.18015   0.18306
 Alpha virt. eigenvalues --    0.18704   0.18869   0.19100   0.20040   0.20122
 Alpha virt. eigenvalues --    0.20399   0.20884   0.21257   0.21723   0.21827
 Alpha virt. eigenvalues --    0.22580   0.22959   0.23338   0.23507   0.24140
 Alpha virt. eigenvalues --    0.24536   0.24947   0.25103   0.25485   0.26397
 Alpha virt. eigenvalues --    0.26520   0.27146   0.27683   0.28966   0.29170
 Alpha virt. eigenvalues --    0.29568   0.30041   0.30742   0.31684   0.32024
 Alpha virt. eigenvalues --    0.32268   0.32758   0.33029   0.33524   0.34002
 Alpha virt. eigenvalues --    0.34692   0.34916   0.35562   0.35947   0.36578
 Alpha virt. eigenvalues --    0.36961   0.37332   0.38539   0.39829   0.40264
 Alpha virt. eigenvalues --    0.40616   0.41128   0.41420   0.42164   0.42514
 Alpha virt. eigenvalues --    0.43244   0.44123   0.44556   0.44936   0.45356
 Alpha virt. eigenvalues --    0.45708   0.46133   0.46900   0.47476   0.48263
 Alpha virt. eigenvalues --    0.48969   0.49194   0.50071   0.50351   0.51184
 Alpha virt. eigenvalues --    0.52187   0.52250   0.53503   0.54077   0.54618
 Alpha virt. eigenvalues --    0.55391   0.56864   0.56932   0.58063   0.58355
 Alpha virt. eigenvalues --    0.58766   0.59149   0.59676   0.60248   0.61237
 Alpha virt. eigenvalues --    0.61708   0.62455   0.62923   0.63158   0.63284
 Alpha virt. eigenvalues --    0.64093   0.64936   0.65809   0.66635   0.67040
 Alpha virt. eigenvalues --    0.67621   0.68257   0.68649   0.68980   0.69493
 Alpha virt. eigenvalues --    0.69902   0.70023   0.70276   0.71354   0.71848
 Alpha virt. eigenvalues --    0.72492   0.73467   0.73659   0.74127   0.74455
 Alpha virt. eigenvalues --    0.75018   0.75624   0.76360   0.76599   0.77003
 Alpha virt. eigenvalues --    0.77407   0.77914   0.78777   0.79383   0.79925
 Alpha virt. eigenvalues --    0.80464   0.80816   0.81738   0.82777   0.83215
 Alpha virt. eigenvalues --    0.83843   0.83925   0.85101   0.85897   0.86962
 Alpha virt. eigenvalues --    0.87438   0.88453   0.89560   0.90214   0.90463
 Alpha virt. eigenvalues --    0.91422   0.92349   0.92591   0.93122   0.94462
 Alpha virt. eigenvalues --    0.95030   0.96028   0.96136   0.97074   0.97118
 Alpha virt. eigenvalues --    0.97766   0.98176   0.98930   0.99465   1.00514
 Alpha virt. eigenvalues --    1.01790   1.02792   1.03515   1.04228   1.05463
 Alpha virt. eigenvalues --    1.06748   1.07004   1.09074   1.09285   1.10087
 Alpha virt. eigenvalues --    1.11041   1.11883   1.12497   1.13175   1.14750
 Alpha virt. eigenvalues --    1.16598   1.17382   1.17447   1.19558   1.20123
 Alpha virt. eigenvalues --    1.21153   1.21902   1.23127   1.24679   1.24889
 Alpha virt. eigenvalues --    1.25236   1.26187   1.26884   1.28111   1.28291
 Alpha virt. eigenvalues --    1.29290   1.31418   1.31972   1.32564   1.33117
 Alpha virt. eigenvalues --    1.34189   1.36033   1.37184   1.37421   1.37878
 Alpha virt. eigenvalues --    1.39046   1.41116   1.42164   1.44389   1.47108
 Alpha virt. eigenvalues --    1.47364   1.48906   1.50748   1.50947   1.53650
 Alpha virt. eigenvalues --    1.54266   1.54813   1.57139   1.57743   1.59148
 Alpha virt. eigenvalues --    1.59504   1.60288   1.61942   1.62471   1.63472
 Alpha virt. eigenvalues --    1.65013   1.65218   1.66863   1.67578   1.68734
 Alpha virt. eigenvalues --    1.69130   1.69995   1.70835   1.71965   1.72774
 Alpha virt. eigenvalues --    1.74305   1.74801   1.75305   1.77037   1.78777
 Alpha virt. eigenvalues --    1.80864   1.81705   1.82169   1.82869   1.84774
 Alpha virt. eigenvalues --    1.85339   1.85869   1.88330   1.89312   1.90287
 Alpha virt. eigenvalues --    1.92133   1.93397   1.94765   1.95478   1.96640
 Alpha virt. eigenvalues --    1.97512   1.97725   1.99759   2.01880   2.02397
 Alpha virt. eigenvalues --    2.04709   2.06387   2.06668   2.07392   2.09250
 Alpha virt. eigenvalues --    2.10242   2.10686   2.11289   2.13304   2.14263
 Alpha virt. eigenvalues --    2.15150   2.15480   2.17315   2.20508   2.21315
 Alpha virt. eigenvalues --    2.22281   2.24328   2.24946   2.27253   2.28159
 Alpha virt. eigenvalues --    2.29072   2.29501   2.30005   2.31718   2.33212
 Alpha virt. eigenvalues --    2.34580   2.36064   2.37313   2.39099   2.40470
 Alpha virt. eigenvalues --    2.43184   2.43954   2.45316   2.47288   2.48082
 Alpha virt. eigenvalues --    2.49613   2.50053   2.51401   2.53920   2.55739
 Alpha virt. eigenvalues --    2.57708   2.59424   2.62313   2.63290   2.70498
 Alpha virt. eigenvalues --    2.73485   2.75904   2.79588   2.83672   2.85185
 Alpha virt. eigenvalues --    2.87488   2.88603   2.92041   2.95216   2.99584
 Alpha virt. eigenvalues --    3.00639   3.02062   3.02866   3.05405   3.22870
 Alpha virt. eigenvalues --    3.25155   3.30827   3.34197   3.44777   3.54206
 Alpha virt. eigenvalues --    3.60432   3.75489   3.82070   4.12598   4.25440
          Condensed to atoms (all electrons):
               1          2          3          4          5          6
     1  C   10.177574  -2.125330  -1.078369  -0.791663  -0.309368  -0.357652
     2  C   -2.125330  10.649027  -2.252375   0.503097   0.331229   0.285043
     3  C   -1.078369  -2.252375  14.416920  -0.952839  -1.755387  -0.120278
     4  C   -0.791663   0.503097  -0.952839   5.990171   0.174024   0.022941
     5  C   -0.309368   0.331229  -1.755387   0.174024   7.218610   0.033137
     6  H   -0.357652   0.285043  -0.120278   0.022941   0.033137   1.648138
     7  S   -0.585864   0.107319  -0.360195   0.118908   0.451440  -0.005802
     8  H    0.079337   0.096350  -0.017290   0.032279   0.148688  -0.066386
     9  C    0.531530  -1.077204  -1.776769  -0.058576   0.137871   0.071393
    10  S    0.021117   0.069068  -0.551621  -0.058765   0.013392   0.000549
    11  C    0.026495  -0.017216  -0.412902  -0.033805   0.023907   0.003235
    12  C   -0.025261   0.070591   0.626408   0.113830  -0.002971  -0.002844
    13  C   -0.228131   0.235895  -0.366968  -0.151902  -0.135567  -0.015696
    14  H    0.018097   0.037406   0.090007   0.034234  -0.003174   0.000184
    15  S   -0.001831   0.001350  -0.070533  -0.002895  -0.001249  -0.000048
    16  C   -0.000491  -0.002731   0.033644  -0.002309   0.000398  -0.000033
    17  C    0.002302   0.007669  -0.417840  -0.019351  -0.001833  -0.000073
    18  H   -0.000062   0.000138  -0.000208   0.000012   0.000020  -0.000006
    19  H   -0.000051  -0.000185  -0.012988  -0.000564  -0.000070   0.000005
    20  H   -0.045237   0.065540  -0.020853   0.321094   0.017128  -0.007128
    21  H   -0.045534   0.204891   0.091828  -0.015253  -0.047329   0.001545
    22  H   -0.023729   0.065172  -0.037371   0.292282   0.030199  -0.006105
               7          8          9         10         11         12
     1  C   -0.585864   0.079337   0.531530   0.021117   0.026495  -0.025261
     2  C    0.107319   0.096350  -1.077204   0.069068  -0.017216   0.070591
     3  C   -0.360195  -0.017290  -1.776769  -0.551621  -0.412902   0.626408
     4  C    0.118908   0.032279  -0.058576  -0.058765  -0.033805   0.113830
     5  C    0.451440   0.148688   0.137871   0.013392   0.023907  -0.002971
     6  H   -0.005802  -0.066386   0.071393   0.000549   0.003235  -0.002844
     7  S   16.310824  -0.162161  -0.516801   0.107316   0.003917   0.028859
     8  H   -0.162161   1.258455  -0.013616  -0.000002  -0.000670   0.001397
     9  C   -0.516801  -0.013616  13.758486   0.277825   0.160893  -1.041748
    10  S    0.107316  -0.000002   0.277825  16.525420   0.340508  -0.462311
    11  C    0.003917  -0.000670   0.160893   0.340508  11.314479  -0.658024
    12  C    0.028859   0.001397  -1.041748  -0.462311  -0.658024  12.009454
    13  C    0.147276   0.000271  -3.864328  -0.484412  -1.839348  -2.795305
    14  H    0.013051  -0.000033  -0.064610   0.034265  -0.044305   0.754341
    15  S    0.002647  -0.000096  -0.252394   0.084878  -0.108861  -0.247401
    16  C    0.002783   0.000052   0.055190  -0.087524  -0.076876  -0.918383
    17  C    0.007730  -0.000106  -0.783495  -0.222511  -2.590165  -1.116032
    18  H    0.000181   0.000003   0.006159   0.006607   0.054831  -0.029201
    19  H    0.001613  -0.000013   0.131998   0.012846   0.635965   0.045755
    20  H    0.006059   0.001529  -0.001982  -0.003112   0.000147   0.001412
    21  H    0.007283  -0.000469  -0.129649   0.006726  -0.008657   0.037800
    22  H    0.002987   0.001455  -0.000969   0.001644  -0.002558   0.003444
              13         14         15         16         17         18
     1  C   -0.228131   0.018097  -0.001831  -0.000491   0.002302  -0.000062
     2  C    0.235895   0.037406   0.001350  -0.002731   0.007669   0.000138
     3  C   -0.366968   0.090007  -0.070533   0.033644  -0.417840  -0.000208
     4  C   -0.151902   0.034234  -0.002895  -0.002309  -0.019351   0.000012
     5  C   -0.135567  -0.003174  -0.001249   0.000398  -0.001833   0.000020
     6  H   -0.015696   0.000184  -0.000048  -0.000033  -0.000073  -0.000006
     7  S    0.147276   0.013051   0.002647   0.002783   0.007730   0.000181
     8  H    0.000271  -0.000033  -0.000096   0.000052  -0.000106   0.000003
     9  C   -3.864328  -0.064610  -0.252394   0.055190  -0.783495   0.006159
    10  S   -0.484412   0.034265   0.084878  -0.087524  -0.222511   0.006607
    11  C   -1.839348  -0.044305  -0.108861  -0.076876  -2.590165   0.054831
    12  C   -2.795305   0.754341  -0.247401  -0.918383  -1.116032  -0.029201
    13  C   15.792259  -1.084847   0.041123  -0.188985   0.761536   0.032074
    14  H   -1.084847   1.753527  -0.040711   0.021731  -0.047630   0.001716
    15  S    0.041123  -0.040711  15.950604   0.172751   0.007285  -0.160865
    16  C   -0.188985   0.021731   0.172751   6.861705   0.111835   0.177406
    17  C    0.761536  -0.047630   0.007285   0.111835  10.221234   0.065444
    18  H    0.032074   0.001716  -0.160865   0.177406   0.065444   1.294805
    19  H   -0.077090  -0.002496  -0.006864  -0.116000  -0.657150  -0.068429
    20  H   -0.020363  -0.000319   0.000062  -0.000316   0.000376   0.000022
    21  H    0.089510   0.005159   0.000954   0.001307  -0.012418  -0.000180
    22  H   -0.017165   0.002944  -0.000490   0.000182  -0.000859   0.000032
              19         20         21         22
     1  C   -0.000051  -0.045237  -0.045534  -0.023729
     2  C   -0.000185   0.065540   0.204891   0.065172
     3  C   -0.012988  -0.020853   0.091828  -0.037371
     4  C   -0.000564   0.321094  -0.015253   0.292282
     5  C   -0.000070   0.017128  -0.047329   0.030199
     6  H    0.000005  -0.007128   0.001545  -0.006105
     7  S    0.001613   0.006059   0.007283   0.002987
     8  H   -0.000013   0.001529  -0.000469   0.001455
     9  C    0.131998  -0.001982  -0.129649  -0.000969
    10  S    0.012846  -0.003112   0.006726   0.001644
    11  C    0.635965   0.000147  -0.008657  -0.002558
    12  C    0.045755   0.001412   0.037800   0.003444
    13  C   -0.077090  -0.020363   0.089510  -0.017165
    14  H   -0.002496  -0.000319   0.005159   0.002944
    15  S   -0.006864   0.000062   0.000954  -0.000490
    16  C   -0.116000  -0.000316   0.001307   0.000182
    17  C   -0.657150   0.000376  -0.012418  -0.000859
    18  H   -0.068429   0.000022  -0.000180   0.000032
    19  H    1.442517  -0.000009   0.000127  -0.000045
    20  H   -0.000009   0.880609  -0.129267  -0.110613
    21  H    0.000127  -0.129267   1.178678  -0.121619
    22  H   -0.000045  -0.110613  -0.121619   0.841456
 Mulliken charges:
               1
     1  C    0.762121
     2  C   -1.254745
     3  C    0.945979
     4  C    0.485050
     5  C   -0.323096
     6  H   -0.484121
     7  S    0.310631
     8  H   -0.358973
     9  C    0.450797
    10  S    0.368098
    11  C   -0.770991
    12  C   -0.393811
    13  C    0.170161
    14  H   -0.478538
    15  S    0.632583
    16  C   -0.045339
    17  C    0.684052
    18  H   -0.380498
    19  H   -0.328872
    20  H    0.045221
    21  H   -0.115433
    22  H    0.079725
 Sum of Mulliken charges =  -0.00000
 Mulliken charges with hydrogens summed into heavy atoms:
               1
     1  C    0.278000
     2  C   -1.254745
     3  C    0.945979
     4  C    0.494562
     5  C   -0.682069
     7  S    0.310631
     9  C    0.450797
    10  S    0.368098
    11  C   -0.770991
    12  C   -0.393811
    13  C   -0.308377
    15  S    0.632583
    16  C   -0.425837
    17  C    0.355179
 Electronic spatial extent (au):  <R**2>=           4340.5073
 Charge=              0.0000 electrons
 Dipole moment (field-independent basis, Debye):
    X=              0.3641    Y=              1.1087    Z=              0.6225  Tot=              1.3226
 Quadrupole moment (field-independent basis, Debye-Ang):
   XX=            -86.8794   YY=           -104.1501   ZZ=           -105.8318
   XY=              5.2745   XZ=             -2.6685   YZ=             -1.2682
 Traceless Quadrupole moment (field-independent basis, Debye-Ang):
   XX=             12.0744   YY=             -5.1963   ZZ=             -6.8781
   XY=              5.2745   XZ=             -2.6685   YZ=             -1.2682
 Octapole moment (field-independent basis, Debye-Ang**2):
  XXX=              0.2005  YYY=              6.2367  ZZZ=              3.4567  XYY=              9.8419
  XXY=            -11.0083  XXZ=             11.1924  XZZ=             -2.3492  YZZ=              0.5974
  YYZ=              2.0577  XYZ=             17.8483
 Hexadecapole moment (field-independent basis, Debye-Ang**3):
 XXXX=          -4134.5163 YYYY=           -766.7057 ZZZZ=           -575.4421 XXXY=             22.8890
 XXXZ=            -79.5789 YYYX=             18.7181 YYYZ=             -3.1978 ZZZX=              0.0382
 ZZZY=            -11.0596 XXYY=           -926.5029 XXZZ=           -925.7971 YYZZ=           -209.4336
 XXYZ=             11.0417 YYXZ=             -8.9358 ZZXY=             10.6692
 N-N= 1.122651401606D+03 E-N=-6.065530525889D+03  KE= 1.613724227571D+03
 Unable to Open any file for archive entry.
 1\1\GINC-CX3-3-23\FOpt\RHF\Aug-CC-pVDZ\C11H8S3\NS5018\26-Oct-2021\0\\#
  opt=modredundant hf/aug-cc-pvdz\\pBTTT_-100.pdb\\0,1\C,-4.1997623434,
 -1.4657558326,-0.0726404433\C,-2.9194805629,-0.9995649027,-0.549800654
 2\C,-2.0128623639,-2.0042958699,-0.626935644\C,-2.6731509991,0.4396387
 17,-0.9153593785\C,-4.2258547216,-2.788349887,0.184741073\H,-5.0523496
 97,-0.8167210827,0.0597545826\S,-2.7009747652,-3.5329528746,-0.1317638
 361\H,-5.0553080749,-3.372738362,0.5457803574\C,-0.6042564971,-1.92923
 56087,-1.0615833254\S,-0.1452341026,-2.4133194332,-2.68941059\C,1.5175
 285253,-2.0335765923,-2.3631621208\C,1.6742300714,-1.5709658542,-1.089
 3937851\C,0.4562223745,-1.5132162948,-0.334918066\H,0.3755306043,-1.18
 62809624,0.6888841913\S,3.3374735449,-1.1907471628,-0.7605136703\C,3.7
 848554968,-1.6735185798,-2.3758077808\C,2.7386041787,-2.0960990735,-3.
 115468028\H,4.8154742329,-1.6132260753,-2.681967517\H,2.8208142995,-2.
 4340651859,-4.135534934\H,-3.3930214513,0.7690110015,-1.665716578\H,-1
 .6730940999,0.5834348927,-1.3136578291\H,-2.7903836494,1.0825450233,-0
 .0415260236\\Version=ES64L-G16RevC.01\State=1-A\HF=-1613.8146792\RMSD=
 6.716e-09\RMSF=2.540e-05\Dipole=-0.1905451,0.4830482,-0.0337715\Quadru
 pole=6.9352775,-4.9656212,-1.9696563,-1.7641416,-6.1405499,1.3775161\P
 G=C01 [X(C11H8S3)]\\@
 The archive entry for this job was punched.


 BE CAREFUL NOT TO BECOME TOO GOOD OF A SONGBIRD OR 
 THEY'LL THROW YOU INTO A CAGE.

                                    -- SNOOPY TO WOODSTOCK
 Job cpu time:       0 days 11 hours 33 minutes 18.9 seconds.
 Elapsed time:       0 days  1 hours 27 minutes 25.7 seconds.
 File lengths (MBytes):  RWF=    103 Int=      0 D2E=      0 Chk=     13 Scr=      1
 Normal termination of Gaussian 16 at Tue Oct 26 00:25:34 2021.
