 Entering Gaussian System, Link 0=g16
 Input=pBTTT_-70.gjf
 Output=pBTTT_-70.log
 Initial command:
 /apps/gaussian/g16-c01-avx/g16/l1.exe "/tmp/pbs.4762177[105].pbs/Gau-159399.inp" -scrdir="/tmp/pbs.4762177[105].pbs/"
 Entering Link 1 = /apps/gaussian/g16-c01-avx/g16/l1.exe PID=    159400.
  
 Copyright (c) 1988-2019, Gaussian, Inc.  All Rights Reserved.
  
 This is part of the Gaussian(R) 16 program.  It is based on
 the Gaussian(R) 09 system (copyright 2009, Gaussian, Inc.),
 the Gaussian(R) 03 system (copyright 2003, Gaussian, Inc.),
 the Gaussian(R) 98 system (copyright 1998, Gaussian, Inc.),
 the Gaussian(R) 94 system (copyright 1995, Gaussian, Inc.),
 the Gaussian 92(TM) system (copyright 1992, Gaussian, Inc.),
 the Gaussian 90(TM) system (copyright 1990, Gaussian, Inc.),
 the Gaussian 88(TM) system (copyright 1988, Gaussian, Inc.),
 the Gaussian 86(TM) system (copyright 1986, Carnegie Mellon
 University), and the Gaussian 82(TM) system (copyright 1983,
 Carnegie Mellon University). Gaussian is a federally registered
 trademark of Gaussian, Inc.
  
 This software contains proprietary and confidential information,
 including trade secrets, belonging to Gaussian, Inc.
  
 This software is provided under written license and may be
 used, copied, transmitted, or stored only in accord with that
 written license.
  
 The following legend is applicable only to US Government
 contracts under FAR:
  
                    RESTRICTED RIGHTS LEGEND
  
 Use, reproduction and disclosure by the US Government is
 subject to restrictions as set forth in subparagraphs (a)
 and (c) of the Commercial Computer Software - Restricted
 Rights clause in FAR 52.227-19.
  
 Gaussian, Inc.
 340 Quinnipiac St., Bldg. 40, Wallingford CT 06492
  
  
 ---------------------------------------------------------------
 Warning -- This program may not be used in any manner that
 competes with the business of Gaussian, Inc. or will provide
 assistance to any competitor of Gaussian, Inc.  The licensee
 of this program is prohibited from giving any competitor of
 Gaussian, Inc. access to this program.  By using this program,
 the user acknowledges that Gaussian, Inc. is engaged in the
 business of creating and licensing software in the field of
 computational chemistry and represents and warrants to the
 licensee that it is not a competitor of Gaussian, Inc. and that
 it will not use this program in any manner prohibited above.
 ---------------------------------------------------------------
  

 Cite this work as:
 Gaussian 16, Revision C.01,
 M. J. Frisch, G. W. Trucks, H. B. Schlegel, G. E. Scuseria, 
 M. A. Robb, J. R. Cheeseman, G. Scalmani, V. Barone, 
 G. A. Petersson, H. Nakatsuji, X. Li, M. Caricato, A. V. Marenich, 
 J. Bloino, B. G. Janesko, R. Gomperts, B. Mennucci, H. P. Hratchian, 
 J. V. Ortiz, A. F. Izmaylov, J. L. Sonnenberg, D. Williams-Young, 
 F. Ding, F. Lipparini, F. Egidi, J. Goings, B. Peng, A. Petrone, 
 T. Henderson, D. Ranasinghe, V. G. Zakrzewski, J. Gao, N. Rega, 
 G. Zheng, W. Liang, M. Hada, M. Ehara, K. Toyota, R. Fukuda, 
 J. Hasegawa, M. Ishida, T. Nakajima, Y. Honda, O. Kitao, H. Nakai, 
 T. Vreven, K. Throssell, J. A. Montgomery, Jr., J. E. Peralta, 
 F. Ogliaro, M. J. Bearpark, J. J. Heyd, E. N. Brothers, K. N. Kudin, 
 V. N. Staroverov, T. A. Keith, R. Kobayashi, J. Normand, 
 K. Raghavachari, A. P. Rendell, J. C. Burant, S. S. Iyengar, 
 J. Tomasi, M. Cossi, J. M. Millam, M. Klene, C. Adamo, R. Cammi, 
 J. W. Ochterski, R. L. Martin, K. Morokuma, O. Farkas, 
 J. B. Foresman, and D. J. Fox, Gaussian, Inc., Wallingford CT, 2019.
 
 ******************************************
 Gaussian 16:  ES64L-G16RevC.01  3-Jul-2019
                25-Oct-2021 
 ******************************************
 %mem=100GB
 %nprocshared=8
 Will use up to    8 processors via shared memory.
 ---------------------------------
 # opt=modredundant hf/aug-cc-pvdz
 ---------------------------------
 1/18=120,19=15,38=1/1,3;
 2/9=110,12=2,17=6,18=5,40=1/2;
 3/5=16,7=10,11=9,25=1,30=1,71=1/1,2,3;
 4//1;
 5/5=2,38=5/2;
 6/7=2,8=2,9=2,10=2,28=1/1;
 7//1,2,3,16;
 1/18=20,19=15/3(2);
 2/9=110/2;
 99//99;
 2/9=110/2;
 3/5=16,7=10,11=9,25=1,30=1,71=1/1,2,3;
 4/5=5,16=3,69=1/1;
 5/5=2,38=5/2;
 7//1,2,3,16;
 1/18=20,19=15/3(-5);
 2/9=110/2;
 6/7=2,8=2,9=2,10=2,19=2,28=1/1;
 99/9=1/99;
 -------------
 pBTTT_-70.pdb
 -------------
 Symbolic Z-matrix:
 Charge =  0 Multiplicity = 1
 C                    -4.25     -1.36     -0.21 
 C                    -2.93     -0.95     -0.61 
 C                    -1.97     -2.05     -0.62 
 C                    -2.66      0.47     -0.96 
 C                    -4.33     -2.76      0.1 
 H                    -5.1      -0.7      -0.14 
 S                    -2.8      -3.56     -0.11 
 H                    -5.23     -3.27      0.41 
 C                    -0.56     -2.13     -0.97 
 S                     0.008    -1.97     -2.66 
 C                     1.667    -2.164    -2.21 
 C                     1.834    -2.325    -0.788 
 C                     0.59     -2.29     -0.078 
 H                     0.529    -2.23      0.998 
 S                     3.396    -1.814    -0.237 
 C                     3.879    -1.386    -1.88 
 C                     2.823    -1.616    -2.839 
 H                     4.788    -0.843    -2.093 
 H                     2.823    -1.169    -3.83 
 H                    -3.55      1.09     -0.83 
 H                    -2.35      0.56     -2. 
 H                    -1.88      0.89     -0.31 
 
 The following ModRedundant input section has been read:
 D       2       3       9      10 F                                           
 

 GradGradGradGradGradGradGradGradGradGradGradGradGradGradGradGradGradGrad
 Berny optimization.
 Initialization pass.
                           ----------------------------
                           !    Initial Parameters    !
                           ! (Angstroms and Degrees)  !
 --------------------------                            --------------------------
 ! Name  Definition              Value          Derivative Info.                !
 --------------------------------------------------------------------------------
 ! R1    R(1,2)                  1.4389         estimate D2E/DX2                !
 ! R2    R(1,5)                  1.4361         estimate D2E/DX2                !
 ! R3    R(1,6)                  1.0784         estimate D2E/DX2                !
 ! R4    R(2,3)                  1.46           estimate D2E/DX2                !
 ! R5    R(2,4)                  1.4872         estimate D2E/DX2                !
 ! R6    R(3,7)                  1.797          estimate D2E/DX2                !
 ! R7    R(3,9)                  1.455          estimate D2E/DX2                !
 ! R8    R(4,20)                 1.0924         estimate D2E/DX2                !
 ! R9    R(4,21)                 1.0889         estimate D2E/DX2                !
 ! R10   R(4,22)                 1.0988         estimate D2E/DX2                !
 ! R11   R(5,7)                  1.7393         estimate D2E/DX2                !
 ! R12   R(5,8)                  1.0799         estimate D2E/DX2                !
 ! R13   R(9,10)                 1.7901         estimate D2E/DX2                !
 ! R14   R(9,13)                 1.4642         estimate D2E/DX2                !
 ! R15   R(10,11)                1.7299         estimate D2E/DX2                !
 ! R16   R(11,12)                1.4408         estimate D2E/DX2                !
 ! R17   R(11,17)                1.4256         estimate D2E/DX2                !
 ! R18   R(12,13)                1.4328         estimate D2E/DX2                !
 ! R19   R(12,15)                1.7334         estimate D2E/DX2                !
 ! R20   R(13,14)                1.0794         estimate D2E/DX2                !
 ! R21   R(15,16)                1.7652         estimate D2E/DX2                !
 ! R22   R(16,17)                1.4449         estimate D2E/DX2                !
 ! R23   R(16,18)                1.08           estimate D2E/DX2                !
 ! R24   R(17,19)                1.0871         estimate D2E/DX2                !
 ! A1    A(2,1,5)              112.8843         estimate D2E/DX2                !
 ! A2    A(2,1,6)              124.5209         estimate D2E/DX2                !
 ! A3    A(5,1,6)              122.5942         estimate D2E/DX2                !
 ! A4    A(1,2,3)              112.9799         estimate D2E/DX2                !
 ! A5    A(1,2,4)              120.2665         estimate D2E/DX2                !
 ! A6    A(3,2,4)              126.7536         estimate D2E/DX2                !
 ! A7    A(2,3,7)              109.1138         estimate D2E/DX2                !
 ! A8    A(2,3,9)              132.8639         estimate D2E/DX2                !
 ! A9    A(7,3,9)              118.0132         estimate D2E/DX2                !
 ! A10   A(2,4,20)             111.468          estimate D2E/DX2                !
 ! A11   A(2,4,21)             110.8154         estimate D2E/DX2                !
 ! A12   A(2,4,22)             110.7706         estimate D2E/DX2                !
 ! A13   A(20,4,21)            107.3779         estimate D2E/DX2                !
 ! A14   A(20,4,22)            106.918          estimate D2E/DX2                !
 ! A15   A(21,4,22)            109.3476         estimate D2E/DX2                !
 ! A16   A(1,5,7)              111.9209         estimate D2E/DX2                !
 ! A17   A(1,5,8)              124.6643         estimate D2E/DX2                !
 ! A18   A(7,5,8)              123.4062         estimate D2E/DX2                !
 ! A19   A(3,7,5)               93.0997         estimate D2E/DX2                !
 ! A20   A(3,9,10)             121.9842         estimate D2E/DX2                !
 ! A21   A(3,9,13)             128.3603         estimate D2E/DX2                !
 ! A22   A(10,9,13)            109.6158         estimate D2E/DX2                !
 ! A23   A(9,10,11)             92.7908         estimate D2E/DX2                !
 ! A24   A(10,11,12)           112.3606         estimate D2E/DX2                !
 ! A25   A(10,11,17)           128.301          estimate D2E/DX2                !
 ! A26   A(12,11,17)           112.6085         estimate D2E/DX2                !
 ! A27   A(11,12,13)           112.6878         estimate D2E/DX2                !
 ! A28   A(11,12,15)           112.6585         estimate D2E/DX2                !
 ! A29   A(13,12,15)           128.147          estimate D2E/DX2                !
 ! A30   A(9,13,12)            112.5023         estimate D2E/DX2                !
 ! A31   A(9,13,14)            123.8378         estimate D2E/DX2                !
 ! A32   A(12,13,14)           122.984          estimate D2E/DX2                !
 ! A33   A(12,15,16)            91.2709         estimate D2E/DX2                !
 ! A34   A(15,16,17)           112.2839         estimate D2E/DX2                !
 ! A35   A(15,16,18)           122.395          estimate D2E/DX2                !
 ! A36   A(17,16,18)           124.3496         estimate D2E/DX2                !
 ! A37   A(11,17,16)           111.1608         estimate D2E/DX2                !
 ! A38   A(11,17,19)           124.0735         estimate D2E/DX2                !
 ! A39   A(16,17,19)           122.6542         estimate D2E/DX2                !
 ! D1    D(5,1,2,3)              0.3915         estimate D2E/DX2                !
 ! D2    D(5,1,2,4)           -179.5973         estimate D2E/DX2                !
 ! D3    D(6,1,2,3)           -179.8811         estimate D2E/DX2                !
 ! D4    D(6,1,2,4)              0.13           estimate D2E/DX2                !
 ! D5    D(2,1,5,7)             -0.3845         estimate D2E/DX2                !
 ! D6    D(2,1,5,8)           -179.3471         estimate D2E/DX2                !
 ! D7    D(6,1,5,7)            179.8822         estimate D2E/DX2                !
 ! D8    D(6,1,5,8)              0.9196         estimate D2E/DX2                !
 ! D9    D(1,2,3,7)             -0.2224         estimate D2E/DX2                !
 ! D10   D(1,2,3,9)            178.6265         estimate D2E/DX2                !
 ! D11   D(4,2,3,7)            179.7656         estimate D2E/DX2                !
 ! D12   D(4,2,3,9)             -1.3855         estimate D2E/DX2                !
 ! D13   D(1,2,4,20)             2.1641         estimate D2E/DX2                !
 ! D14   D(1,2,4,21)          -117.3645         estimate D2E/DX2                !
 ! D15   D(1,2,4,22)           121.0843         estimate D2E/DX2                !
 ! D16   D(3,2,4,20)          -177.8231         estimate D2E/DX2                !
 ! D17   D(3,2,4,21)            62.6483         estimate D2E/DX2                !
 ! D18   D(3,2,4,22)           -58.9029         estimate D2E/DX2                !
 ! D19   D(2,3,7,5)              0.0033         estimate D2E/DX2                !
 ! D20   D(9,3,7,5)           -179.041          estimate D2E/DX2                !
 ! D21   D(2,3,9,10)           -70.007          Frozen                          !
 ! D22   D(2,3,9,13)           107.4577         estimate D2E/DX2                !
 ! D23   D(7,3,9,10)           108.7609         estimate D2E/DX2                !
 ! D24   D(7,3,9,13)           -73.7744         estimate D2E/DX2                !
 ! D25   D(1,5,7,3)              0.2153         estimate D2E/DX2                !
 ! D26   D(8,5,7,3)            179.1932         estimate D2E/DX2                !
 ! D27   D(3,9,10,11)          179.768          estimate D2E/DX2                !
 ! D28   D(13,9,10,11)           1.8783         estimate D2E/DX2                !
 ! D29   D(3,9,13,12)         -179.8582         estimate D2E/DX2                !
 ! D30   D(3,9,13,14)           -9.0508         estimate D2E/DX2                !
 ! D31   D(10,9,13,12)          -2.141          estimate D2E/DX2                !
 ! D32   D(10,9,13,14)         168.6664         estimate D2E/DX2                !
 ! D33   D(9,10,11,12)          -1.1725         estimate D2E/DX2                !
 ! D34   D(9,10,11,17)        -149.8867         estimate D2E/DX2                !
 ! D35   D(10,11,12,13)          0.1218         estimate D2E/DX2                !
 ! D36   D(10,11,12,15)       -154.0365         estimate D2E/DX2                !
 ! D37   D(17,11,12,13)        153.9247         estimate D2E/DX2                !
 ! D38   D(17,11,12,15)         -0.2336         estimate D2E/DX2                !
 ! D39   D(10,11,17,16)        149.7162         estimate D2E/DX2                !
 ! D40   D(10,11,17,19)        -14.0885         estimate D2E/DX2                !
 ! D41   D(12,11,17,16)          1.0645         estimate D2E/DX2                !
 ! D42   D(12,11,17,19)       -162.7403         estimate D2E/DX2                !
 ! D43   D(11,12,13,9)           1.3373         estimate D2E/DX2                !
 ! D44   D(11,12,13,14)       -169.5608         estimate D2E/DX2                !
 ! D45   D(15,12,13,9)         150.5747         estimate D2E/DX2                !
 ! D46   D(15,12,13,14)        -20.3234         estimate D2E/DX2                !
 ! D47   D(11,12,15,16)         -0.5062         estimate D2E/DX2                !
 ! D48   D(13,12,15,16)       -149.751          estimate D2E/DX2                !
 ! D49   D(12,15,16,17)          1.1168         estimate D2E/DX2                !
 ! D50   D(12,15,16,18)        170.2865         estimate D2E/DX2                !
 ! D51   D(15,16,17,11)         -1.4406         estimate D2E/DX2                !
 ! D52   D(15,16,17,19)        162.6332         estimate D2E/DX2                !
 ! D53   D(18,16,17,11)       -170.361          estimate D2E/DX2                !
 ! D54   D(18,16,17,19)         -6.2872         estimate D2E/DX2                !
 --------------------------------------------------------------------------------
 Trust Radius=3.00D-01 FncErr=1.00D-07 GrdErr=1.00D-07 EigMax=2.50D+02 EigMin=1.00D-04
 Number of steps in this run=    127 maximum allowed number of steps=    132.
 GradGradGradGradGradGradGradGradGradGradGradGradGradGradGradGradGradGrad

                          Input orientation:                          
 ---------------------------------------------------------------------
 Center     Atomic      Atomic             Coordinates (Angstroms)
 Number     Number       Type             X           Y           Z
 ---------------------------------------------------------------------
      1          6           0       -4.250000   -1.360000   -0.210000
      2          6           0       -2.930000   -0.950000   -0.610000
      3          6           0       -1.970000   -2.050000   -0.620000
      4          6           0       -2.660000    0.470000   -0.960000
      5          6           0       -4.330000   -2.760000    0.100000
      6          1           0       -5.100000   -0.700000   -0.140000
      7         16           0       -2.800000   -3.560000   -0.110000
      8          1           0       -5.230000   -3.270000    0.410000
      9          6           0       -0.560000   -2.130000   -0.970000
     10         16           0        0.008000   -1.970000   -2.660000
     11          6           0        1.667000   -2.164000   -2.210000
     12          6           0        1.834000   -2.325000   -0.788000
     13          6           0        0.590000   -2.290000   -0.078000
     14          1           0        0.529000   -2.230000    0.998000
     15         16           0        3.396000   -1.814000   -0.237000
     16          6           0        3.879000   -1.386000   -1.880000
     17          6           0        2.823000   -1.616000   -2.839000
     18          1           0        4.788000   -0.843000   -2.093000
     19          1           0        2.823000   -1.169000   -3.830000
     20          1           0       -3.550000    1.090000   -0.830000
     21          1           0       -2.350000    0.560000   -2.000000
     22          1           0       -1.880000    0.890000   -0.310000
 ---------------------------------------------------------------------
                    Distance matrix (angstroms):
                    1          2          3          4          5
     1  C    0.000000
     2  C    1.438923   0.000000
     3  C    2.417147   1.460034   0.000000
     4  C    2.537617   1.487212   2.634787   0.000000
     5  C    1.436141   2.395871   2.567509   3.787532   0.000000
     6  H    1.078425   2.234346   3.442354   2.827525   2.212261
     7  S    2.636759   2.660639   1.796970   4.121044   1.739253
     8  H    2.234480   3.422397   3.630000   4.740190   1.079907
     9  C    3.845335   2.671872   1.454991   3.342170   3.969219
    10  S    4.950269   3.724882   2.842619   3.995225   5.201917
    11  C    6.297405   5.016593   3.971003   5.217603   6.454094
    12  C    6.187113   4.961653   3.817626   5.295059   6.242809
    13  C    4.930307   3.803817   2.627730   4.354081   4.945602
    14  H    5.005497   4.023524   2.982503   4.614486   4.969626
    15  S    7.659514   6.395616   5.384825   6.512643   7.790992
    16  C    8.298808   6.940135   6.019908   6.859275   8.555464
    17  C    7.550133   6.205563   5.299544   6.159978   7.817408
    18  H    9.246536   7.859915   7.021192   7.647245   9.571941
    19  H    7.947843   6.596466   5.835504   6.402071   8.315142
    20  H    2.622384   2.143455   3.521378   1.092428   4.036806
    21  H    3.240447   2.132745   2.976726   1.088944   4.399182
    22  H    3.269465   2.139650   2.957668   1.098772   4.415099
                    6          7          8          9         10
     6  H    0.000000
     7  S    3.670218   0.000000
     8  H    2.631406   2.501879   0.000000
     9  C    4.831708   2.793224   5.001290   0.000000
    10  S    5.835663   4.112841   6.208989   1.790063   0.000000
    11  C    7.226374   5.129611   7.460311   2.549173   1.729860
    12  C    7.151286   4.843435   7.226917   2.408814   2.639069
    13  C    5.908303   3.620224   5.922073   1.464160   2.666055
    14  H    5.943197   3.752173   5.881618   2.251432   3.704053
    15  S    8.569272   6.438560   8.771911   4.035726   4.168190
    16  C    9.171730   7.243495   9.579532   4.591988   3.991754
    17  C    8.420070   6.545587   8.839826   3.898980   2.842812
    18  H   10.080040   8.300128  10.607340   5.614143   4.943685
    19  H    8.752713   7.153559   9.340375   4.532969   3.151940
    20  H    2.466313   4.764808   4.834211   4.396374   5.037049
    21  H    3.551014   4.555107   5.363898   3.391327   3.520890
    22  H    3.595191   4.548505   5.389480   3.361309   4.155315
                   11         12         13         14         15
    11  C    0.000000
    12  C    1.440796   0.000000
    13  C    2.391909   1.432781   0.000000
    14  H    3.404506   2.214011   1.079397   0.000000
    15  S    2.646634   1.733368   2.850525   3.149281   0.000000
    16  C    2.367937   2.501242   3.857712   4.496412   1.765197
    17  C    1.425581   2.384828   3.614372   4.512427   2.671692
    18  H    3.391072   3.553233   4.876191   5.442162   2.515003
    19  H    2.225031   3.401209   4.507819   5.449563   3.695132
    20  H    6.301587   6.375849   5.397176   5.567964   7.551939
    21  H    4.858041   5.224751   4.523293   5.006071   6.462241
    22  H    5.051547   4.935434   4.033252   4.153137   5.929007
                   16         17         18         19         20
    16  C    0.000000
    17  C    1.444893   0.000000
    18  H    1.080046   2.239480   0.000000
    19  H    2.228166   1.087148   2.642853   0.000000
    20  H    7.900830   7.209275   8.651815   7.397176   0.000000
    21  H    6.527002   5.674401   7.275170   5.753110   1.757783
    22  H    6.388361   5.898651   7.116502   6.224796   1.760483
                   21         22
    21  H    0.000000
    22  H    1.784909   0.000000
 Stoichiometry    C11H8S3
 Framework group  C1[X(C11H8S3)]
 Deg. of freedom    60
 Full point group                 C1      NOp   1
 Largest Abelian subgroup         C1      NOp   1
 Largest concise Abelian subgroup C1      NOp   1
                         Standard orientation:                         
 ---------------------------------------------------------------------
 Center     Atomic      Atomic             Coordinates (Angstroms)
 Number     Number       Type             X           Y           Z
 ---------------------------------------------------------------------
      1          6           0       -4.007411    0.498456    0.542449
      2          6           0       -2.622274    0.875639    0.640573
      3          6           0       -1.721648   -0.098697    0.031275
      4          6           0       -2.236985    2.145866    1.311300
      5          6           0       -4.197982   -0.758410   -0.125735
      6          1           0       -4.828476    1.081975    0.927621
      7         16           0       -2.689399   -1.458460   -0.634762
      8          1           0       -5.158431   -1.215744   -0.311700
      9          6           0       -0.276994   -0.141610   -0.136453
     10         16           0        0.580132    0.957017   -1.260142
     11          6           0        2.127109    0.291104   -0.865377
     12          6           0        2.039499   -0.745171    0.131795
     13          6           0        0.694247   -0.985438    0.562409
     14          1           0        0.451143   -1.603406    1.413358
     15         16           0        3.502992   -0.919393    1.044155
     16          6           0        4.279537    0.367604    0.118661
     17          6           0        3.396098    0.940658   -0.870713
     18          1           0        5.233490    0.788344    0.400530
     19          1           0        3.585650    1.903250   -1.339090
     20          1           0       -3.109431    2.666860    1.712302
     21          1           0       -1.748786    2.821068    0.610184
     22          1           0       -1.563952    1.951017    2.157681
 ---------------------------------------------------------------------
 Rotational constants (GHZ):           1.1980528           0.2585768           0.2463473
 Standard basis: Aug-CC-pVDZ (5D, 7F)
 There are   434 symmetry adapted cartesian basis functions of A   symmetry.
 There are   406 symmetry adapted basis functions of A   symmetry.
   406 basis functions,   804 primitive gaussians,   434 cartesian basis functions
    61 alpha electrons       61 beta electrons
       nuclear repulsion energy      1103.9730678201 Hartrees.
 NAtoms=   22 NActive=   22 NUniq=   22 SFac= 1.00D+00 NAtFMM=   60 NAOKFM=F Big=F
 Integral buffers will be    131072 words long.
 Raffenetti 1 integral format.
 Two-electron integral symmetry is turned on.
 One-electron integrals computed using PRISM.
 NBasis=   406 RedAO= T EigKep=  5.23D-06  NBF=   406
 NBsUse=   406 1.00D-06 EigRej= -1.00D+00 NBFU=   406
 ExpMin= 2.97D-02 ExpMax= 1.11D+05 ExpMxC= 1.07D+03 IAcc=3 IRadAn=         5 AccDes= 0.00D+00
 Harris functional with IExCor=  205 and IRadAn=       5 diagonalized for initial guess.
 HarFok:  IExCor=  205 AccDes= 0.00D+00 IRadAn=         5 IDoV= 1 UseB2=F ITyADJ=14
 ICtDFT=  3500011 ScaDFX=  1.000000  1.000000  1.000000  1.000000
 FoFCou: FMM=F IPFlag=           0 FMFlag=      100000 FMFlg1=           0
         NFxFlg=           0 DoJE=T BraDBF=F KetDBF=T FulRan=T
         wScrn=  0.000000 ICntrl=       500 IOpCl=  0 I1Cent=   200000004 NGrid=           0
         NMat0=    1 NMatS0=      1 NMatT0=    0 NMatD0=    1 NMtDS0=    0 NMtDT0=    0
 Petite list used in FoFCou.
 Requested convergence on RMS density matrix=1.00D-08 within 128 cycles.
 Requested convergence on MAX density matrix=1.00D-06.
 Requested convergence on             energy=1.00D-06.
 No special actions if energy rises.
 SCF Done:  E(RHF) =  -1613.75158772     A.U. after   18 cycles
            NFock= 18  Conv=0.43D-08     -V/T= 2.0010

 **********************************************************************

            Population analysis using the SCF Density.

 **********************************************************************

 Orbital symmetries:
       Occupied  (A) (A) (A) (A) (A) (A) (A) (A) (A) (A) (A) (A)
                 (A) (A) (A) (A) (A) (A) (A) (A) (A) (A) (A) (A)
                 (A) (A) (A) (A) (A) (A) (A) (A) (A) (A) (A) (A)
                 (A) (A) (A) (A) (A) (A) (A) (A) (A) (A) (A) (A)
                 (A) (A) (A) (A) (A) (A) (A) (A) (A) (A) (A) (A)
                 (A)
       Virtual   (A) (A) (A) (A) (A) (A) (A) (A) (A) (A) (A) (A)
                 (A) (A) (A) (A) (A) (A) (A) (A) (A) (A) (A) (A)
                 (A) (A) (A) (A) (A) (A) (A) (A) (A) (A) (A) (A)
                 (A) (A) (A) (A) (A) (A) (A) (A) (A) (A) (A) (A)
                 (A) (A) (A) (A) (A) (A) (A) (A) (A) (A) (A) (A)
                 (A) (A) (A) (A) (A) (A) (A) (A) (A) (A) (A) (A)
                 (A) (A) (A) (A) (A) (A) (A) (A) (A) (A) (A) (A)
                 (A) (A) (A) (A) (A) (A) (A) (A) (A) (A) (A) (A)
                 (A) (A) (A) (A) (A) (A) (A) (A) (A) (A) (A) (A)
                 (A) (A) (A) (A) (A) (A) (A) (A) (A) (A) (A) (A)
                 (A) (A) (A) (A) (A) (A) (A) (A) (A) (A) (A) (A)
                 (A) (A) (A) (A) (A) (A) (A) (A) (A) (A) (A) (A)
                 (A) (A) (A) (A) (A) (A) (A) (A) (A) (A) (A) (A)
                 (A) (A) (A) (A) (A) (A) (A) (A) (A) (A) (A) (A)
                 (A) (A) (A) (A) (A) (A) (A) (A) (A) (A) (A) (A)
                 (A) (A) (A) (A) (A) (A) (A) (A) (A) (A) (A) (A)
                 (A) (A) (A) (A) (A) (A) (A) (A) (A) (A) (A) (A)
                 (A) (A) (A) (A) (A) (A) (A) (A) (A) (A) (A) (A)
                 (A) (A) (A) (A) (A) (A) (A) (A) (A) (A) (A) (A)
                 (A) (A) (A) (A) (A) (A) (A) (A) (A) (A) (A) (A)
                 (A) (A) (A) (A) (A) (A) (A) (A) (A) (A) (A) (A)
                 (A) (A) (A) (A) (A) (A) (A) (A) (A) (A) (A) (A)
                 (A) (A) (A) (A) (A) (A) (A) (A) (A) (A) (A) (A)
                 (A) (A) (A) (A) (A) (A) (A) (A) (A) (A) (A) (A)
                 (A) (A) (A) (A) (A) (A) (A) (A) (A) (A) (A) (A)
                 (A) (A) (A) (A) (A) (A) (A) (A) (A) (A) (A) (A)
                 (A) (A) (A) (A) (A) (A) (A) (A) (A) (A) (A) (A)
                 (A) (A) (A) (A) (A) (A) (A) (A) (A) (A) (A) (A)
                 (A) (A) (A) (A) (A) (A) (A) (A) (A)
 The electronic state is 1-A.
 Alpha  occ. eigenvalues --  -92.00076 -91.99638 -91.99524 -11.30477 -11.29426
 Alpha  occ. eigenvalues --  -11.29021 -11.28758 -11.28603 -11.28480 -11.27620
 Alpha  occ. eigenvalues --  -11.27508 -11.27251 -11.25547 -11.23914  -9.00133
 Alpha  occ. eigenvalues --   -8.99680  -8.99476  -6.68298  -6.68209  -6.68020
 Alpha  occ. eigenvalues --   -6.67843  -6.67746  -6.67629  -6.67561  -6.67530
 Alpha  occ. eigenvalues --   -6.67373  -1.19740  -1.15964  -1.10298  -1.03663
 Alpha  occ. eigenvalues --   -1.03160  -1.00464  -0.94441  -0.93590  -0.90711
 Alpha  occ. eigenvalues --   -0.81986  -0.77398  -0.76069  -0.71582  -0.69702
 Alpha  occ. eigenvalues --   -0.66253  -0.65785  -0.60345  -0.58895  -0.58350
 Alpha  occ. eigenvalues --   -0.56390  -0.55479  -0.54269  -0.53722  -0.52675
 Alpha  occ. eigenvalues --   -0.51412  -0.50693  -0.48938  -0.47264  -0.46481
 Alpha  occ. eigenvalues --   -0.44789  -0.38773  -0.34112  -0.32246  -0.31264
 Alpha  occ. eigenvalues --   -0.27870
 Alpha virt. eigenvalues --    0.03399   0.03541   0.04193   0.04550   0.04848
 Alpha virt. eigenvalues --    0.05642   0.05841   0.06541   0.07365   0.08267
 Alpha virt. eigenvalues --    0.08527   0.08799   0.09478   0.09989   0.10836
 Alpha virt. eigenvalues --    0.11229   0.11666   0.11965   0.12272   0.12749
 Alpha virt. eigenvalues --    0.13142   0.13432   0.13554   0.14062   0.14163
 Alpha virt. eigenvalues --    0.14534   0.14995   0.15389   0.16017   0.16068
 Alpha virt. eigenvalues --    0.16579   0.16899   0.17189   0.17570   0.17712
 Alpha virt. eigenvalues --    0.18334   0.18615   0.18944   0.19398   0.19693
 Alpha virt. eigenvalues --    0.20134   0.20418   0.21111   0.21296   0.21767
 Alpha virt. eigenvalues --    0.21931   0.22609   0.22974   0.23248   0.23725
 Alpha virt. eigenvalues --    0.24264   0.24998   0.25336   0.25935   0.26094
 Alpha virt. eigenvalues --    0.26495   0.26743   0.27826   0.28618   0.29014
 Alpha virt. eigenvalues --    0.29459   0.30041   0.30652   0.30820   0.31071
 Alpha virt. eigenvalues --    0.31468   0.31657   0.32508   0.33155   0.33666
 Alpha virt. eigenvalues --    0.33945   0.34450   0.35093   0.35887   0.36556
 Alpha virt. eigenvalues --    0.37031   0.37924   0.38317   0.38591   0.38772
 Alpha virt. eigenvalues --    0.40249   0.40520   0.40674   0.41447   0.41961
 Alpha virt. eigenvalues --    0.42690   0.43738   0.44337   0.44756   0.44992
 Alpha virt. eigenvalues --    0.45443   0.45742   0.46537   0.46760   0.47706
 Alpha virt. eigenvalues --    0.48356   0.49130   0.49134   0.49463   0.50547
 Alpha virt. eigenvalues --    0.51547   0.51691   0.52360   0.53048   0.53744
 Alpha virt. eigenvalues --    0.54804   0.54982   0.56166   0.56442   0.56653
 Alpha virt. eigenvalues --    0.57511   0.58035   0.58620   0.58890   0.59919
 Alpha virt. eigenvalues --    0.60326   0.60697   0.62081   0.62522   0.63423
 Alpha virt. eigenvalues --    0.64167   0.64658   0.65191   0.65577   0.66056
 Alpha virt. eigenvalues --    0.66438   0.66848   0.67089   0.67899   0.68113
 Alpha virt. eigenvalues --    0.68612   0.68888   0.69561   0.70220   0.70660
 Alpha virt. eigenvalues --    0.70770   0.71588   0.71910   0.72120   0.72813
 Alpha virt. eigenvalues --    0.73891   0.74151   0.74792   0.75494   0.75805
 Alpha virt. eigenvalues --    0.76039   0.76925   0.77480   0.78334   0.78715
 Alpha virt. eigenvalues --    0.79272   0.79735   0.80452   0.80772   0.81500
 Alpha virt. eigenvalues --    0.82005   0.83449   0.84236   0.84613   0.85392
 Alpha virt. eigenvalues --    0.85771   0.87285   0.87989   0.88704   0.89159
 Alpha virt. eigenvalues --    0.89819   0.90688   0.90967   0.92189   0.92725
 Alpha virt. eigenvalues --    0.93197   0.94086   0.94457   0.95300   0.96655
 Alpha virt. eigenvalues --    0.97620   0.98310   0.98869   0.99061   0.99763
 Alpha virt. eigenvalues --    1.00599   1.00794   1.01637   1.02370   1.03723
 Alpha virt. eigenvalues --    1.04541   1.05314   1.06171   1.07599   1.08773
 Alpha virt. eigenvalues --    1.09833   1.10888   1.12095   1.12458   1.13440
 Alpha virt. eigenvalues --    1.14737   1.16342   1.17150   1.18347   1.19376
 Alpha virt. eigenvalues --    1.19924   1.20712   1.21145   1.22611   1.24107
 Alpha virt. eigenvalues --    1.25083   1.25232   1.25898   1.27221   1.27787
 Alpha virt. eigenvalues --    1.28042   1.28803   1.29340   1.30492   1.31093
 Alpha virt. eigenvalues --    1.32102   1.33048   1.33205   1.34229   1.36270
 Alpha virt. eigenvalues --    1.38109   1.38825   1.40286   1.41608   1.42384
 Alpha virt. eigenvalues --    1.43892   1.45944   1.46570   1.47150   1.49838
 Alpha virt. eigenvalues --    1.51400   1.52995   1.54212   1.55021   1.57201
 Alpha virt. eigenvalues --    1.57924   1.58918   1.59110   1.60933   1.61835
 Alpha virt. eigenvalues --    1.62614   1.64435   1.65365   1.66316   1.66777
 Alpha virt. eigenvalues --    1.67857   1.69244   1.69609   1.71026   1.71060
 Alpha virt. eigenvalues --    1.71615   1.73825   1.74738   1.75647   1.77128
 Alpha virt. eigenvalues --    1.78119   1.78987   1.80123   1.80684   1.82351
 Alpha virt. eigenvalues --    1.83406   1.83542   1.85503   1.86061   1.88202
 Alpha virt. eigenvalues --    1.88544   1.89655   1.91131   1.92088   1.94414
 Alpha virt. eigenvalues --    1.94735   1.96401   1.97467   1.98096   1.99212
 Alpha virt. eigenvalues --    2.00652   2.01431   2.03396   2.05973   2.06306
 Alpha virt. eigenvalues --    2.07808   2.09014   2.10496   2.11319   2.13122
 Alpha virt. eigenvalues --    2.13750   2.14550   2.16161   2.16920   2.18953
 Alpha virt. eigenvalues --    2.19413   2.20391   2.22694   2.23208   2.23929
 Alpha virt. eigenvalues --    2.25551   2.25846   2.26719   2.27570   2.30257
 Alpha virt. eigenvalues --    2.31069   2.32512   2.34844   2.35639   2.37546
 Alpha virt. eigenvalues --    2.39522   2.39651   2.41252   2.43419   2.44606
 Alpha virt. eigenvalues --    2.46451   2.48927   2.49677   2.50080   2.52665
 Alpha virt. eigenvalues --    2.53925   2.57695   2.59664   2.60176   2.63850
 Alpha virt. eigenvalues --    2.69951   2.72638   2.73691   2.75759   2.80857
 Alpha virt. eigenvalues --    2.81593   2.83904   2.84461   2.87094   2.89430
 Alpha virt. eigenvalues --    2.93416   2.94466   3.00368   3.03018   3.05206
 Alpha virt. eigenvalues --    3.13937   3.19507   3.20903   3.26078   3.29813
 Alpha virt. eigenvalues --    3.40152   3.60581   3.75264   4.10525   4.21029
          Condensed to atoms (all electrons):
               1          2          3          4          5          6
     1  C    9.376543  -1.767762  -0.495641  -1.019227   0.112006  -0.455260
     2  C   -1.767762   9.727076  -2.165024   0.285154   0.311091   0.342714
     3  C   -0.495641  -2.165024  12.587822  -0.844357  -1.261336   0.037730
     4  C   -1.019227   0.285154  -0.844357   6.214486   0.159192   0.089487
     5  C    0.112006   0.311091  -1.261336   0.159192   6.282964  -0.093073
     6  H   -0.455260   0.342714   0.037730   0.089487  -0.093073   1.719007
     7  S   -0.569017   0.111187  -0.115343   0.122076   0.339237  -0.013522
     8  H   -0.000069   0.068292   0.020898   0.019671   0.224482  -0.080981
     9  C    0.175761  -0.152468  -2.412032   0.058673   0.263443   0.002003
    10  S   -0.008173   0.134938  -0.271423   0.056573  -0.000303  -0.000712
    11  C    0.010715   0.021891  -0.107969   0.044282   0.020228   0.001471
    12  C   -0.032518  -0.062848   0.290475   0.040559  -0.015077  -0.001533
    13  C   -0.029275  -0.252828   0.301959  -0.137356  -0.082021   0.000381
    14  H    0.006771   0.067686  -0.036941   0.014848  -0.000814  -0.000123
    15  S   -0.001298  -0.002846   0.013449  -0.004515   0.000073   0.000032
    16  C   -0.001720  -0.005487   0.042368   0.000913   0.000017  -0.000052
    17  C    0.001406   0.025266  -0.208762  -0.009419   0.000352  -0.000013
    18  H   -0.000137  -0.000396   0.002464   0.000217   0.000022  -0.000006
    19  H    0.000617   0.001177  -0.010339  -0.001059  -0.000112   0.000040
    20  H    0.068409   0.044222   0.082230  -0.068813   0.002964  -0.028148
    21  H    0.014491   0.025365  -0.031471   0.314968   0.002338  -0.000144
    22  H   -0.001133   0.041030  -0.098922   0.344601   0.009464   0.001530
               7          8          9         10         11         12
     1  C   -0.569017  -0.000069   0.175761  -0.008173   0.010715  -0.032518
     2  C    0.111187   0.068292  -0.152468   0.134938   0.021891  -0.062848
     3  C   -0.115343   0.020898  -2.412032  -0.271423  -0.107969   0.290475
     4  C    0.122076   0.019671   0.058673   0.056573   0.044282   0.040559
     5  C    0.339237   0.224482   0.263443  -0.000303   0.020228  -0.015077
     6  H   -0.013522  -0.080981   0.002003  -0.000712   0.001471  -0.001533
     7  S   15.976363  -0.161216  -0.361075  -0.004810  -0.029328   0.036686
     8  H   -0.161216   1.238789  -0.003639   0.000428  -0.000126   0.000182
     9  C   -0.361075  -0.003639  10.638793   0.243057   0.099668  -0.335156
    10  S   -0.004810   0.000428   0.243057  16.032816   0.124571  -0.195281
    11  C   -0.029328  -0.000126   0.099668   0.124571   7.393068   0.191957
    12  C    0.036686   0.000182  -0.335156  -0.195281   0.191957   8.360465
    13  C    0.214264   0.003206  -2.245843  -0.441047  -0.453225  -1.849222
    14  H    0.015312   0.000193   0.129670   0.049132  -0.056118   0.272730
    15  S    0.004059  -0.000024  -0.147129  -0.007616  -0.046444   0.073331
    16  C   -0.000863   0.000012   0.141155  -0.054222   0.115662  -0.271134
    17  C    0.005701   0.000014  -0.303532  -0.042623  -1.102626   0.100018
    18  H    0.000046   0.000003  -0.000146  -0.002906  -0.002773   0.000894
    19  H    0.000303  -0.000015   0.055873  -0.037048   0.222653  -0.023842
    20  H   -0.007810   0.001992   0.002506  -0.003373  -0.002082   0.002029
    21  H    0.011758   0.000757  -0.010791   0.004850  -0.003322   0.000042
    22  H    0.006011   0.000856  -0.003558  -0.001782   0.002243  -0.003359
              13         14         15         16         17         18
     1  C   -0.029275   0.006771  -0.001298  -0.001720   0.001406  -0.000137
     2  C   -0.252828   0.067686  -0.002846  -0.005487   0.025266  -0.000396
     3  C    0.301959  -0.036941   0.013449   0.042368  -0.208762   0.002464
     4  C   -0.137356   0.014848  -0.004515   0.000913  -0.009419   0.000217
     5  C   -0.082021  -0.000814   0.000073   0.000017   0.000352   0.000022
     6  H    0.000381  -0.000123   0.000032  -0.000052  -0.000013  -0.000006
     7  S    0.214264   0.015312   0.004059  -0.000863   0.005701   0.000046
     8  H    0.003206   0.000193  -0.000024   0.000012   0.000014   0.000003
     9  C   -2.245843   0.129670  -0.147129   0.141155  -0.303532  -0.000146
    10  S   -0.441047   0.049132  -0.007616  -0.054222  -0.042623  -0.002906
    11  C   -0.453225  -0.056118  -0.046444   0.115662  -1.102626  -0.002773
    12  C   -1.849222   0.272730   0.073331  -0.271134   0.100018   0.000894
    13  C   10.930678  -0.563484   0.001987  -0.291742   0.571524   0.026296
    14  H   -0.563484   1.627449  -0.062838  -0.000192  -0.013398   0.001274
    15  S    0.001987  -0.062838  15.675975   0.197255  -0.236410  -0.129407
    16  C   -0.291742  -0.000192   0.197255   5.820396   0.158410   0.232740
    17  C    0.571524  -0.013398  -0.236410   0.158410   6.659079   0.025642
    18  H    0.026296   0.001274  -0.129407   0.232740   0.025642   1.244655
    19  H   -0.019725  -0.000606   0.005767  -0.050383  -0.149120  -0.058021
    20  H    0.013418   0.000169  -0.000327   0.000041  -0.000739   0.000006
    21  H   -0.015310   0.000779  -0.000419  -0.000219   0.003039   0.000045
    22  H    0.007291   0.002311   0.001661   0.000175   0.001233   0.000069
              19         20         21         22
     1  C    0.000617   0.068409   0.014491  -0.001133
     2  C    0.001177   0.044222   0.025365   0.041030
     3  C   -0.010339   0.082230  -0.031471  -0.098922
     4  C   -0.001059  -0.068813   0.314968   0.344601
     5  C   -0.000112   0.002964   0.002338   0.009464
     6  H    0.000040  -0.028148  -0.000144   0.001530
     7  S    0.000303  -0.007810   0.011758   0.006011
     8  H   -0.000015   0.001992   0.000757   0.000856
     9  C    0.055873   0.002506  -0.010791  -0.003558
    10  S   -0.037048  -0.003373   0.004850  -0.001782
    11  C    0.222653  -0.002082  -0.003322   0.002243
    12  C   -0.023842   0.002029   0.000042  -0.003359
    13  C   -0.019725   0.013418  -0.015310   0.007291
    14  H   -0.000606   0.000169   0.000779   0.002311
    15  S    0.005767  -0.000327  -0.000419   0.001661
    16  C   -0.050383   0.000041  -0.000219   0.000175
    17  C   -0.149120  -0.000739   0.003039   0.001233
    18  H   -0.058021   0.000006   0.000045   0.000069
    19  H    1.387989  -0.000069   0.000216  -0.000099
    20  H   -0.000069   1.320002  -0.095383  -0.097026
    21  H    0.000216  -0.095383   0.811165  -0.124900
    22  H   -0.000099  -0.097026  -0.124900   0.781758
 Mulliken charges:
               1
     1  C    0.614510
     2  C   -0.797429
     3  C    0.680166
     4  C    0.319047
     5  C   -0.275138
     6  H   -0.520830
     7  S    0.419981
     8  H   -0.333707
     9  C    0.164768
    10  S    0.424955
    11  C   -0.444397
    12  C   -0.579398
    13  C    0.310073
    14  H   -0.453808
    15  S    0.665685
    16  C   -0.033128
    17  C    0.514957
    18  H   -0.340581
    19  H   -0.324197
    20  H   -0.234219
    21  H    0.092146
    22  H    0.130544
 Sum of Mulliken charges =  -0.00000
 Mulliken charges with hydrogens summed into heavy atoms:
               1
     1  C    0.093679
     2  C   -0.797429
     3  C    0.680166
     4  C    0.307518
     5  C   -0.608844
     7  S    0.419981
     9  C    0.164768
    10  S    0.424955
    11  C   -0.444397
    12  C   -0.579398
    13  C   -0.143735
    15  S    0.665685
    16  C   -0.373709
    17  C    0.190759
 Electronic spatial extent (au):  <R**2>=           4438.1248
 Charge=             -0.0000 electrons
 Dipole moment (field-independent basis, Debye):
    X=             -0.6144    Y=              1.8210    Z=              1.5207  Tot=              2.4507
 Quadrupole moment (field-independent basis, Debye-Ang):
   XX=            -89.3266   YY=           -102.5087   ZZ=           -107.7022
   XY=              3.6741   XZ=             -0.8330   YZ=             -0.8984
 Traceless Quadrupole moment (field-independent basis, Debye-Ang):
   XX=             10.5193   YY=             -2.6629   ZZ=             -7.8564
   XY=              3.6741   XZ=             -0.8330   YZ=             -0.8984
 Octapole moment (field-independent basis, Debye-Ang**2):
  XXX=            -25.8618  YYY=             10.4944  ZZZ=              7.5711  XYY=             -5.9606
  XXY=             27.7713  XXZ=             14.2526  XZZ=              2.4084  YZZ=              3.4212
  YYZ=              1.6832  XYZ=            -17.7437
 Hexadecapole moment (field-independent basis, Debye-Ang**3):
 XXXX=          -4326.1040 YYYY=           -836.6127 ZZZZ=           -584.0390 XXXY=            163.4956
 XXXZ=             61.8167 YYYX=              9.1766 YYYZ=             -7.0751 ZZZX=              8.6312
 ZZZY=             -5.8263 XXYY=           -923.1912 XXZZ=           -958.2710 YYZZ=           -222.5248
 XXYZ=             28.4277 YYXZ=            -12.6986 ZZXY=             -3.7629
 N-N= 1.103973067820D+03 E-N=-6.026461798358D+03  KE= 1.612214794071D+03
 Calling FoFJK, ICntrl=      2127 FMM=F ISym2X=0 I1Cent= 0 IOpClX= 0 NMat=1 NMatS=1 NMatT=0.
 ***** Axes restored to original set *****
 -------------------------------------------------------------------
 Center     Atomic                   Forces (Hartrees/Bohr)
 Number     Number              X              Y              Z
 -------------------------------------------------------------------
      1        6           0.017174411   -0.076288783    0.012294662
      2        6           0.029332647   -0.064390191    0.003957903
      3        6          -0.073912536    0.027007398    0.013379330
      4        6           0.010680431    0.014049360    0.000187779
      5        6           0.014494459    0.063562316   -0.017905903
      6        1           0.001170388    0.000502576   -0.000203534
      7       16          -0.007395410    0.032373130   -0.004475761
      8        1           0.004476260   -0.002898665    0.000432172
      9        6           0.082607099    0.001544518    0.035636055
     10       16          -0.007395158   -0.012992848    0.018544925
     11        6           0.012854715    0.012039504    0.052159399
     12        6          -0.029654978    0.017720564   -0.043951490
     13        6          -0.056613433    0.007995420   -0.055121511
     14        1          -0.005679624   -0.005782995   -0.001094546
     15       16           0.007965900   -0.004122565   -0.023239787
     16        6          -0.063761129   -0.009364310   -0.044329754
     17        6           0.053898162    0.021154784    0.053429648
     18        1           0.002225840   -0.007615811    0.003153605
     19        1           0.005386053   -0.010718850    0.002815555
     20        1           0.000901385   -0.004150154    0.000144253
     21        1           0.003018338    0.002159629    0.000615179
     22        1          -0.001773819   -0.001784027   -0.006428179
 -------------------------------------------------------------------
 Cartesian Forces:  Max     0.082607099 RMS     0.029680048

 GradGradGradGradGradGradGradGradGradGradGradGradGradGradGradGradGradGrad
 Berny optimization.
 FormGI is forming the generalized inverse of G from B-inverse, IUseBI=4.
 Internal  Forces:  Max     0.088995372 RMS     0.017184459
 Search for a local minimum.
 Step number   1 out of a maximum of  127
 All quantities printed in internal units (Hartrees-Bohrs-Radians)
 Mixed Optimization -- RFO/linear search
 Second derivative matrix not updated -- first step.
 ITU=  0
     Eigenvalues ---    0.00935   0.00982   0.01059   0.01215   0.01241
     Eigenvalues ---    0.01276   0.01298   0.01420   0.01457   0.01493
     Eigenvalues ---    0.01498   0.01592   0.01598   0.01774   0.02201
     Eigenvalues ---    0.02654   0.07307   0.07353   0.15076   0.15687
     Eigenvalues ---    0.15739   0.15997   0.16000   0.16000   0.16000
     Eigenvalues ---    0.16000   0.17986   0.22443   0.22545   0.23318
     Eigenvalues ---    0.23979   0.24718   0.24978   0.24995   0.25000
     Eigenvalues ---    0.26147   0.26567   0.28385   0.30920   0.31228
     Eigenvalues ---    0.31588   0.33757   0.33818   0.34533   0.34840
     Eigenvalues ---    0.34935   0.35144   0.35877   0.35989   0.36006
     Eigenvalues ---    0.36067   0.36185   0.36339   0.37598   0.38294
     Eigenvalues ---    0.38438   0.39458   0.39679   0.406881000.00000
     Eigenvalues --- 1000.000001000.000001000.000001000.000001000.00000
     Eigenvalues --- 1000.000001000.000001000.000001000.000001000.00000
     Eigenvalues --- 1000.000001000.000001000.000001000.000001000.00000
     Eigenvalues --- 1000.000001000.000001000.000001000.000001000.00000
     Eigenvalues --- 1000.000001000.000001000.000001000.000001000.00000
     Eigenvalues --- 1000.000001000.000001000.000001000.000001000.00000
     Eigenvalues --- 1000.000001000.000001000.000001000.000001000.00000
     Eigenvalues --- 1000.000001000.000001000.000001000.000001000.00000
     Eigenvalues --- 1000.000001000.000001000.000001000.000001000.00000
     Eigenvalues --- 1000.000001000.000001000.000001000.000001000.00000
     Eigenvalues --- 1000.000001000.000001000.000001000.000001000.00000
     Eigenvalues --- 1000.000001000.00000
 RFO step:  Lambda=-8.29747692D-02 EMin= 9.35106172D-03
 Linear search not attempted -- first point.
 Maximum step size (   0.300) exceeded in Quadratic search.
    -- Step size scaled by   0.715
 Iteration  1 RMS(Cart)=  0.06048797 RMS(Int)=  0.00102917
 Iteration  2 RMS(Cart)=  0.00160868 RMS(Int)=  0.00034384
 Iteration  3 RMS(Cart)=  0.00000131 RMS(Int)=  0.00034384
 Iteration  4 RMS(Cart)=  0.00000000 RMS(Int)=  0.00034384
 Iteration  1 RMS(Cart)=  0.00000012 RMS(Int)=  0.00000005
 Variable       Old X    -DE/DX   Delta X   Delta X   Delta X     New X
                                 (Linear)    (Quad)   (Total)
    R1        2.71917  -0.01241   0.00000  -0.02029  -0.02024   2.69893
    R2        2.71391  -0.07093   0.00000  -0.10576  -0.10581   2.60810
    R3        2.03793  -0.00063   0.00000  -0.00101  -0.00101   2.03692
    R4        2.75906  -0.08270   0.00000  -0.13119  -0.13110   2.62797
    R5        2.81042   0.01343   0.00000   0.02284   0.02284   2.83327
    R6        3.39578  -0.02872   0.00000  -0.05715  -0.05714   3.33865
    R7        2.74954   0.00172   0.00000   0.00267   0.00267   2.75221
    R8        2.06439  -0.00307   0.00000  -0.00513  -0.00513   2.05926
    R9        2.05781   0.00045   0.00000   0.00074   0.00074   2.05855
   R10        2.07638  -0.00574   0.00000  -0.00976  -0.00976   2.06662
   R11        3.28671  -0.02447   0.00000  -0.04262  -0.04271   3.24400
   R12        2.04073  -0.00224   0.00000  -0.00361  -0.00361   2.03712
   R13        3.38273  -0.01906   0.00000  -0.03551  -0.03586   3.34686
   R14        2.76686  -0.08900   0.00000  -0.14228  -0.14244   2.62442
   R15        3.26896  -0.00505   0.00000  -0.00771  -0.00768   3.26128
   R16        2.72271  -0.05474   0.00000  -0.08491  -0.08424   2.63847
   R17        2.69396   0.00313   0.00000   0.00239   0.00273   2.69669
   R18        2.70756  -0.00798   0.00000  -0.01396  -0.01372   2.69384
   R19        3.27559  -0.00324   0.00000  -0.00420  -0.00430   3.27130
   R20        2.03976  -0.00109   0.00000  -0.00176  -0.00176   2.03800
   R21        3.33574  -0.01814   0.00000  -0.03241  -0.03279   3.30295
   R22        2.73045  -0.08055   0.00000  -0.12250  -0.12256   2.60789
   R23        2.04099  -0.00258   0.00000  -0.00416  -0.00416   2.03683
   R24        2.05441  -0.00697   0.00000  -0.01148  -0.01148   2.04293
    A1        1.97020   0.00758   0.00000   0.01315   0.01316   1.98336
    A2        2.17330  -0.00492   0.00000  -0.00992  -0.00992   2.16338
    A3        2.13967  -0.00265   0.00000  -0.00323  -0.00324   2.13644
    A4        1.97187  -0.00186   0.00000  -0.00757  -0.00742   1.96445
    A5        2.09905   0.01326   0.00000   0.03027   0.03020   2.12924
    A6        2.21227  -0.01140   0.00000  -0.02270  -0.02278   2.18949
    A7        1.90440   0.00650   0.00000   0.01509   0.01520   1.91960
    A8        2.31891  -0.01448   0.00000  -0.03169  -0.03175   2.28717
    A9        2.05972   0.00798   0.00000   0.01659   0.01653   2.07625
   A10        1.94548  -0.00446   0.00000  -0.01230  -0.01227   1.93321
   A11        1.93409   0.00338   0.00000   0.00944   0.00945   1.94354
   A12        1.93331   0.00215   0.00000   0.00600   0.00600   1.93932
   A13        1.87410   0.00104   0.00000   0.00370   0.00373   1.87783
   A14        1.86607   0.00194   0.00000   0.00667   0.00669   1.87276
   A15        1.90848  -0.00420   0.00000  -0.01393  -0.01394   1.89454
   A16        1.95339  -0.00376   0.00000  -0.00915  -0.00928   1.94410
   A17        2.17580   0.00677   0.00000   0.01897   0.01904   2.19484
   A18        2.15384  -0.00300   0.00000  -0.00978  -0.00971   2.14413
   A19        1.62490  -0.00845   0.00000  -0.01151  -0.01165   1.61324
   A20        2.12903  -0.00281   0.00000  -0.00579  -0.00584   2.12318
   A21        2.24031  -0.00432   0.00000  -0.00904  -0.00910   2.23121
   A22        1.91316   0.00723   0.00000   0.01547   0.01544   1.92860
   A23        1.61951  -0.00688   0.00000  -0.01092  -0.01077   1.60874
   A24        1.96106  -0.01219   0.00000  -0.02205  -0.02275   1.93831
   A25        2.23927   0.00976   0.00000   0.03494   0.03378   2.27306
   A26        1.96539   0.00689   0.00000   0.01443   0.01457   1.97996
   A27        1.96677   0.00834   0.00000   0.01622   0.01635   1.98312
   A28        1.96626  -0.01421   0.00000  -0.02626  -0.02670   1.93956
   A29        2.23659   0.00987   0.00000   0.03400   0.03290   2.26948
   A30        1.96354   0.00354   0.00000   0.00159   0.00198   1.96551
   A31        2.16138  -0.00641   0.00000  -0.01307  -0.01354   2.14784
   A32        2.14648   0.00358   0.00000   0.01655   0.01609   2.16257
   A33        1.59298   0.00044   0.00000   0.00340   0.00346   1.59644
   A34        1.95972   0.00080   0.00000   0.00066   0.00049   1.96022
   A35        2.13620  -0.00383   0.00000  -0.00805  -0.00860   2.12759
   A36        2.17031   0.00430   0.00000   0.01637   0.01590   2.18621
   A37        1.94012   0.00608   0.00000   0.00779   0.00818   1.94830
   A38        2.16549  -0.00006   0.00000   0.00950   0.00853   2.17402
   A39        2.14072  -0.00379   0.00000  -0.00199  -0.00298   2.13774
    D1        0.00683  -0.00029   0.00000  -0.00288  -0.00288   0.00395
    D2       -3.13456   0.00006   0.00000  -0.00026  -0.00022  -3.13479
    D3       -3.13952  -0.00038   0.00000  -0.00323  -0.00326   3.14041
    D4        0.00227  -0.00003   0.00000  -0.00062  -0.00060   0.00167
    D5       -0.00671   0.00005   0.00000   0.00020   0.00019  -0.00652
    D6       -3.13020  -0.00038   0.00000  -0.00279  -0.00283  -3.13303
    D7        3.13954   0.00014   0.00000   0.00057   0.00059   3.14012
    D8        0.01605  -0.00029   0.00000  -0.00241  -0.00244   0.01361
    D9       -0.00388   0.00049   0.00000   0.00426   0.00425   0.00037
   D10        3.11762   0.00074   0.00000   0.00376   0.00374   3.12136
   D11        3.13750   0.00011   0.00000   0.00145   0.00149   3.13899
   D12       -0.02418   0.00037   0.00000   0.00094   0.00098  -0.02321
   D13        0.03777  -0.00021   0.00000  -0.00123  -0.00123   0.03654
   D14       -2.04840  -0.00083   0.00000  -0.00407  -0.00406  -2.05246
   D15        2.11332   0.00074   0.00000   0.00310   0.00308   2.11640
   D16       -3.10360   0.00019   0.00000   0.00178   0.00178  -3.10182
   D17        1.09342  -0.00043   0.00000  -0.00107  -0.00105   1.09237
   D18       -1.02805   0.00114   0.00000   0.00610   0.00610  -1.02195
   D19        0.00006  -0.00034   0.00000  -0.00345  -0.00348  -0.00342
   D20       -3.12486  -0.00026   0.00000  -0.00239  -0.00239  -3.12725
   D21       -1.22185  -0.00072   0.00000   0.00000   0.00000  -1.22185
   D22        1.87549   0.00254   0.00000   0.02124   0.02125   1.89674
   D23        1.89824  -0.00049   0.00000  -0.00062  -0.00063   1.89760
   D24       -1.28761   0.00277   0.00000   0.02062   0.02062  -1.26699
   D25        0.00376   0.00020   0.00000   0.00194   0.00190   0.00566
   D26        3.12751   0.00074   0.00000   0.00524   0.00517   3.13268
   D27        3.13754   0.00110   0.00000   0.00804   0.00807  -3.13757
   D28        0.03278  -0.00139   0.00000  -0.00916  -0.00936   0.02342
   D29       -3.13912  -0.00220   0.00000  -0.01370  -0.01355   3.13052
   D30       -0.15797   0.00306   0.00000   0.02221   0.02210  -0.13587
   D31       -0.03737   0.00057   0.00000   0.00505   0.00539  -0.03198
   D32        2.94378   0.00583   0.00000   0.04097   0.04103   2.98482
   D33       -0.02046   0.00238   0.00000   0.01202   0.01186  -0.00860
   D34       -2.61602  -0.00810   0.00000  -0.04795  -0.04821  -2.66423
   D35        0.00213  -0.00199   0.00000  -0.01043  -0.01027  -0.00814
   D36       -2.68844  -0.01223   0.00000  -0.06419  -0.06288  -2.75133
   D37        2.68649   0.00888   0.00000   0.04874   0.04782   2.73431
   D38       -0.00408  -0.00136   0.00000  -0.00502  -0.00480  -0.00888
   D39        2.61304   0.00679   0.00000   0.05433   0.05531   2.66835
   D40       -0.24589  -0.00105   0.00000  -0.00245  -0.00197  -0.24786
   D41        0.01858   0.00109   0.00000   0.00340   0.00325   0.02183
   D42       -2.84035  -0.00676   0.00000  -0.05338  -0.05403  -2.89439
   D43        0.02334   0.00101   0.00000   0.00335   0.00320   0.02654
   D44       -2.95939  -0.00314   0.00000  -0.02908  -0.02964  -2.98903
   D45        2.62803   0.00545   0.00000   0.04700   0.04786   2.67589
   D46       -0.35471   0.00130   0.00000   0.01457   0.01503  -0.33968
   D47       -0.00884   0.00132   0.00000   0.00451   0.00443  -0.00441
   D48       -2.61365  -0.00872   0.00000  -0.04968  -0.04962  -2.66327
   D49        0.01949  -0.00056   0.00000  -0.00236  -0.00243   0.01706
   D50        2.97206   0.00700   0.00000   0.04907   0.04864   3.02070
   D51       -0.02514  -0.00003   0.00000   0.00011   0.00032  -0.02483
   D52        2.83848   0.00836   0.00000   0.05810   0.05835   2.89683
   D53       -2.97336  -0.00672   0.00000  -0.04934  -0.04960  -3.02296
   D54       -0.10973   0.00167   0.00000   0.00865   0.00843  -0.10130
         Item               Value     Threshold  Converged?
 Maximum Force            0.088994     0.000450     NO 
 RMS     Force            0.017258     0.000300     NO 
 Maximum Displacement     0.200381     0.001800     NO 
 RMS     Displacement     0.060830     0.001200     NO 
 Predicted change in Energy=-4.320652D-02
 GradGradGradGradGradGradGradGradGradGradGradGradGradGradGradGradGradGrad

                          Input orientation:                          
 ---------------------------------------------------------------------
 Center     Atomic      Atomic             Coordinates (Angstroms)
 Number     Number       Type             X           Y           Z
 ---------------------------------------------------------------------
      1          6           0       -4.208371   -1.405621   -0.204280
      2          6           0       -2.899484   -0.996927   -0.603747
      3          6           0       -1.989124   -2.048205   -0.603531
      4          6           0       -2.587918    0.423067   -0.970410
      5          6           0       -4.299406   -2.748195    0.102347
      6          1           0       -5.053293   -0.739528   -0.138906
      7         16           0       -2.790212   -3.540566   -0.101067
      8          1           0       -5.192527   -3.263262    0.417173
      9          6           0       -0.576954   -2.090491   -0.957232
     10         16           0       -0.033003   -1.912759   -2.633320
     11          6           0        1.624505   -2.078555   -2.182152
     12          6           0        1.754079   -2.251253   -0.802729
     13          6           0        0.510392   -2.239127   -0.106167
     14          1           0        0.422963   -2.222031    0.968612
     15         16           0        3.336667   -1.802423   -0.263600
     16          6           0        3.823518   -1.391264   -1.891139
     17          6           0        2.804321   -1.570959   -2.804073
     18          1           0        4.771657   -0.923613   -2.101089
     19          1           0        2.843935   -1.166026   -3.805659
     20          1           0       -3.467214    1.055218   -0.849172
     21          1           0       -2.265269    0.503278   -2.007773
     22          1           0       -1.802260    0.832242   -0.329084
 ---------------------------------------------------------------------
                    Distance matrix (angstroms):
                    1          2          3          4          5
     1  C    0.000000
     2  C    1.428212   0.000000
     3  C    2.344647   1.390662   0.000000
     4  C    2.560649   1.499300   2.569113   0.000000
     5  C    1.380149   2.350593   2.515085   3.759907   0.000000
     6  H    1.077890   2.218383   3.364170   2.849755   2.159002
     7  S    2.565115   2.595135   1.766735   4.062889   1.716652
     8  H    2.192167   3.381804   3.574911   4.722118   1.077996
     9  C    3.771362   2.591328   1.456406   3.219026   3.925804
    10  S    4.857069   3.629687   2.822198   3.840436   5.136538
    11  C    6.195745   4.912002   3.943512   5.046875   6.384362
    12  C    6.051780   4.823751   3.753995   5.102259   6.140912
    13  C    4.792816   3.663045   2.555661   4.175371   4.841156
    14  H    4.846798   3.874512   2.884443   4.452163   4.829910
    15  S    7.555697   6.297150   5.342285   6.368131   7.703117
    16  C    8.207127   6.856503   5.989684   6.726518   8.473319
    17  C    7.480916   6.140386   5.295967   6.034459   7.765056
    18  H    9.190817   7.816253   7.015379   7.566725   9.511488
    19  H    7.922269   6.577819   5.864326   6.329998   8.294762
    20  H    2.649703   2.143327   3.446204   1.089713   4.007977
    21  H    3.266822   2.150380   2.925443   1.089339   4.377487
    22  H    3.288309   2.150628   2.899520   1.093609   4.386502
                    6          7          8          9         10
     6  H    0.000000
     7  S    3.601219   0.000000
     8  H    2.588019   2.473173   0.000000
     9  C    4.746828   2.781052   4.956601   0.000000
    10  S    5.727293   4.082189   6.144107   1.771085   0.000000
    11  C    7.110614   5.094911   7.391343   2.519324   1.725796
    12  C    7.004733   4.775484   7.125143   2.341672   2.580562
    13  C    5.762331   3.547923   5.817734   1.388786   2.605436
    14  H    5.780466   3.634177   5.737767   2.173939   3.643826
    15  S    8.457938   6.370730   8.680129   3.985038   4.120973
    16  C    9.071541   7.180897   9.493247   4.552499   3.961760
    17  C    8.338854   6.518005   8.785777   3.887641   2.862934
    18  H   10.020663   8.248054  10.540425   5.592642   4.934211
    19  H    8.717407   7.148850   9.317479   4.546498   3.195115
    20  H    2.498247   4.705233   4.819710   4.273262   4.877077
    21  H    3.579149   4.501529   5.351264   3.268284   3.348366
    22  H    3.616053   4.488818   5.368795   3.230838   3.996850
                   11         12         13         14         15
    11  C    0.000000
    12  C    1.396217   0.000000
    13  C    2.361513   1.425519   0.000000
    14  H    3.375145   2.215937   1.078465   0.000000
    15  S    2.586231   1.731095   2.864144   3.191252   0.000000
    16  C    2.322222   2.491343   3.857693   4.520191   1.747844
    17  C    1.427026   2.360335   3.603783   4.508649   2.605949
    18  H    3.353361   3.543182   4.885557   5.479059   2.491559
    19  H    2.226093   3.373883   4.503688   5.456181   3.632350
    20  H    6.125600   6.180357   5.217865   5.401683   7.402824
    21  H    4.671896   5.019435   4.340643   4.848997   6.303973
    22  H    4.863058   4.730733   3.851151   3.995525   5.775320
                   16         17         18         19         20
    16  C    0.000000
    17  C    1.380036   0.000000
    18  H    1.077843   2.187157   0.000000
    19  H    2.162337   1.081071   2.584654   0.000000
    20  H    7.760524   7.074644   8.565165   7.314734   0.000000
    21  H    6.377791   5.535097   7.180742   5.667710   1.758313
    22  H    6.247670   5.755132   7.031317   6.137327   1.758489
                   21         22
    21  H    0.000000
    22  H    1.772172   0.000000
 Stoichiometry    C11H8S3
 Framework group  C1[X(C11H8S3)]
 Deg. of freedom    60
 Full point group                 C1      NOp   1
 Largest Abelian subgroup         C1      NOp   1
 Largest concise Abelian subgroup C1      NOp   1
                         Standard orientation:                         
 ---------------------------------------------------------------------
 Center     Atomic      Atomic             Coordinates (Angstroms)
 Number     Number       Type             X           Y           Z
 ---------------------------------------------------------------------
      1          6           0       -3.946714    0.474395    0.528439
      2          6           0       -2.568313    0.834717    0.628282
      3          6           0       -1.728121   -0.100343    0.033573
      4          6           0       -2.123499    2.092350    1.312679
      5          6           0       -4.160133   -0.720692   -0.128090
      6          1           0       -4.754185    1.066658    0.927263
      7         16           0       -2.681874   -1.423294   -0.645773
      8          1           0       -5.120416   -1.171839   -0.318871
      9          6           0       -0.279690   -0.125741   -0.116505
     10         16           0        0.561804    0.991806   -1.202653
     11          6           0        2.101968    0.322468   -0.804841
     12          6           0        1.975329   -0.706650    0.130200
     13          6           0        0.630007   -0.948514    0.534817
     14          1           0        0.354051   -1.606644    1.343395
     15         16           0        3.458051   -0.956257    0.988058
     16          6           0        4.246889    0.315491    0.085090
     17          6           0        3.398161    0.919166   -0.820303
     18          1           0        5.240157    0.655505    0.329127
     19          1           0        3.635968    1.856789   -1.303029
     20          1           0       -2.976432    2.628723    1.727751
     21          1           0       -1.617995    2.763695    0.619556
     22          1           0       -1.444153    1.871151    2.140653
 ---------------------------------------------------------------------
 Rotational constants (GHZ):           1.2516262           0.2657230           0.2523068
 Standard basis: Aug-CC-pVDZ (5D, 7F)
 There are   434 symmetry adapted cartesian basis functions of A   symmetry.
 There are   406 symmetry adapted basis functions of A   symmetry.
   406 basis functions,   804 primitive gaussians,   434 cartesian basis functions
    61 alpha electrons       61 beta electrons
       nuclear repulsion energy      1120.5087289077 Hartrees.
 NAtoms=   22 NActive=   22 NUniq=   22 SFac= 1.00D+00 NAtFMM=   60 NAOKFM=F Big=F
 Integral buffers will be    131072 words long.
 Raffenetti 1 integral format.
 Two-electron integral symmetry is turned on.
 One-electron integrals computed using PRISM.
 NBasis=   406 RedAO= T EigKep=  4.21D-06  NBF=   406
 NBsUse=   406 1.00D-06 EigRej= -1.00D+00 NBFU=   406
 Initial guess from the checkpoint file:  "/tmp/pbs.4762177[105].pbs/Gau-159400.chk"
 B after Tr=    -0.000000   -0.000000    0.000000
         Rot=    0.999930   -0.011296   -0.001055    0.003463 Ang=  -1.36 deg.
 ExpMin= 2.97D-02 ExpMax= 1.11D+05 ExpMxC= 1.07D+03 IAcc=3 IRadAn=         5 AccDes= 0.00D+00
 Harris functional with IExCor=  205 and IRadAn=       5 diagonalized for initial guess.
 HarFok:  IExCor=  205 AccDes= 0.00D+00 IRadAn=         5 IDoV= 1 UseB2=F ITyADJ=14
 ICtDFT=  3500011 ScaDFX=  1.000000  1.000000  1.000000  1.000000
 FoFCou: FMM=F IPFlag=           0 FMFlag=      100000 FMFlg1=           0
         NFxFlg=           0 DoJE=T BraDBF=F KetDBF=T FulRan=T
         wScrn=  0.000000 ICntrl=       500 IOpCl=  0 I1Cent=   200000004 NGrid=           0
         NMat0=    1 NMatS0=      1 NMatT0=    0 NMatD0=    1 NMtDS0=    0 NMtDT0=    0
 Petite list used in FoFCou.
 Requested convergence on RMS density matrix=1.00D-08 within 128 cycles.
 Requested convergence on MAX density matrix=1.00D-06.
 Requested convergence on             energy=1.00D-06.
 No special actions if energy rises.
 SCF Done:  E(RHF) =  -1613.79455097     A.U. after   15 cycles
            NFock= 15  Conv=0.88D-08     -V/T= 2.0003
 Calling FoFJK, ICntrl=      2127 FMM=F ISym2X=0 I1Cent= 0 IOpClX= 0 NMat=1 NMatS=1 NMatT=0.
 ***** Axes restored to original set *****
 -------------------------------------------------------------------
 Center     Atomic                   Forces (Hartrees/Bohr)
 Number     Number              X              Y              Z
 -------------------------------------------------------------------
      1        6          -0.002409032   -0.031775857    0.007962838
      2        6           0.019722518   -0.021343521   -0.001904977
      3        6          -0.038321782    0.005496536    0.007438570
      4        6           0.003884674    0.007414343    0.000133851
      5        6           0.001836252    0.029455995   -0.007735845
      6        1           0.000323540    0.001576922   -0.000305345
      7       16           0.003508859    0.008184101   -0.002109788
      8        1           0.002722709   -0.002375510    0.000554152
      9        6           0.041928360    0.002566016    0.012996429
     10       16          -0.009856788   -0.009306136    0.002560436
     11        6           0.002392648    0.009188106    0.028068438
     12        6          -0.006546210    0.014755177   -0.024658381
     13        6          -0.028801052    0.002132533   -0.017850928
     14        1          -0.002320667   -0.005276655   -0.000280325
     15       16           0.009924268   -0.005218992   -0.003722152
     16        6          -0.028259126   -0.001534882   -0.019055903
     17        6           0.024635374    0.012163848    0.018526260
     18        1           0.002253131   -0.005351016    0.002735696
     19        1           0.002357732   -0.008541273   -0.001024979
     20        1           0.000015527   -0.001576139    0.000022178
     21        1           0.001408431    0.000673751    0.000697706
     22        1          -0.000399366   -0.001307348   -0.003047931
 -------------------------------------------------------------------
 Cartesian Forces:  Max     0.041928360 RMS     0.013583278

 GradGradGradGradGradGradGradGradGradGradGradGradGradGradGradGradGradGrad
 Berny optimization.
 Using GEDIIS/GDIIS optimizer.
 FormGI is forming the generalized inverse of G from B-inverse, IUseBI=4.
 Internal  Forces:  Max     0.035116178 RMS     0.006947373
 Search for a local minimum.
 Step number   2 out of a maximum of  127
 All quantities printed in internal units (Hartrees-Bohrs-Radians)
 Mixed Optimization -- RFO/linear search
 Update second derivatives using D2CorX and points    1    2
 DE= -4.30D-02 DEPred=-4.32D-02 R= 9.94D-01
 TightC=F SS=  1.41D+00  RLast= 3.50D-01 DXNew= 5.0454D-01 1.0487D+00
 Trust test= 9.94D-01 RLast= 3.50D-01 DXMaxT set to 5.05D-01
 ITU=  1  0
 Use linear search instead of GDIIS.
     Eigenvalues ---    0.00935   0.00981   0.01052   0.01210   0.01241
     Eigenvalues ---    0.01272   0.01293   0.01385   0.01460   0.01482
     Eigenvalues ---    0.01499   0.01590   0.01592   0.01720   0.02055
     Eigenvalues ---    0.02378   0.07254   0.07380   0.15424   0.15781
     Eigenvalues ---    0.15840   0.15967   0.15999   0.16000   0.16000
     Eigenvalues ---    0.16023   0.18660   0.22456   0.22523   0.23418
     Eigenvalues ---    0.24126   0.24607   0.24928   0.24995   0.25084
     Eigenvalues ---    0.26101   0.26563   0.28434   0.30542   0.31089
     Eigenvalues ---    0.31421   0.33707   0.33816   0.34534   0.34904
     Eigenvalues ---    0.34946   0.35151   0.35878   0.35989   0.36007
     Eigenvalues ---    0.36070   0.36092   0.36221   0.37040   0.38113
     Eigenvalues ---    0.38804   0.39474   0.40462   0.448171000.00000
     Eigenvalues --- 1000.000001000.000001000.000001000.000001000.00000
     Eigenvalues --- 1000.000001000.000001000.000001000.000001000.00000
     Eigenvalues --- 1000.000001000.000001000.000001000.000001000.00000
     Eigenvalues --- 1000.000001000.000001000.000001000.000001000.00000
     Eigenvalues --- 1000.000001000.000001000.000001000.000001000.00000
     Eigenvalues --- 1000.000001000.000001000.000001000.000001000.00000
     Eigenvalues --- 1000.000001000.000001000.000001000.000001000.00000
     Eigenvalues --- 1000.000001000.000001000.000001000.000001000.00000
     Eigenvalues --- 1000.000001000.000001000.000001000.000001000.00000
     Eigenvalues --- 1000.000001000.000001000.000001000.000001000.00000
     Eigenvalues --- 1000.000001000.000001000.000001000.000001000.00000
     Eigenvalues --- 1000.000001000.00000
 RFO step:  Lambda=-8.45103780D-03 EMin= 9.35095608D-03
 Quartic linear search produced a step of  0.55100.
 Iteration  1 RMS(Cart)=  0.07699807 RMS(Int)=  0.00595575
 Iteration  2 RMS(Cart)=  0.00775040 RMS(Int)=  0.00223276
 Iteration  3 RMS(Cart)=  0.00003529 RMS(Int)=  0.00223255
 Iteration  4 RMS(Cart)=  0.00000002 RMS(Int)=  0.00223255
 Iteration  1 RMS(Cart)=  0.00000500 RMS(Int)=  0.00000204
 Iteration  2 RMS(Cart)=  0.00000274 RMS(Int)=  0.00000228
 Iteration  3 RMS(Cart)=  0.00000151 RMS(Int)=  0.00000257
 Iteration  4 RMS(Cart)=  0.00000083 RMS(Int)=  0.00000277
 Variable       Old X    -DE/DX   Delta X   Delta X   Delta X     New X
                                 (Linear)    (Quad)   (Total)
    R1        2.69893   0.00286  -0.01115   0.02918   0.01801   2.71693
    R2        2.60810  -0.02678  -0.05830  -0.00007  -0.05848   2.54962
    R3        2.03692   0.00070  -0.00056   0.00389   0.00334   2.04026
    R4        2.62797  -0.03054  -0.07223   0.00307  -0.06907   2.55890
    R5        2.83327   0.00649   0.01259   0.00600   0.01859   2.85186
    R6        3.33865  -0.01199  -0.03148  -0.00514  -0.03653   3.30212
    R7        2.75221   0.00773   0.00147   0.02823   0.02970   2.78191
    R8        2.05926  -0.00092  -0.00283   0.00107  -0.00176   2.05750
    R9        2.05855  -0.00020   0.00041  -0.00158  -0.00117   2.05738
   R10        2.06662  -0.00256  -0.00538  -0.00163  -0.00701   2.05961
   R11        3.24400  -0.00304  -0.02353   0.02975   0.00615   3.25015
   R12        2.03712  -0.00096  -0.00199  -0.00046  -0.00245   2.03467
   R13        3.34686  -0.00741  -0.01976   0.00739  -0.01489   3.33198
   R14        2.62442  -0.03512  -0.07848  -0.00150  -0.08168   2.54274
   R15        3.26128   0.00381  -0.00423   0.02379   0.02034   3.28162
   R16        2.63847  -0.02184  -0.04642  -0.01543  -0.05735   2.58112
   R17        2.69669   0.00542   0.00150   0.01311   0.01622   2.71291
   R18        2.69384   0.00356  -0.00756   0.02231   0.01597   2.70981
   R19        3.27130   0.00331  -0.00237   0.01920   0.01665   3.28794
   R20        2.03800  -0.00017  -0.00097   0.00099   0.00002   2.03803
   R21        3.30295  -0.00576  -0.01807   0.01316  -0.00698   3.29596
   R22        2.60789  -0.03019  -0.06753   0.00396  -0.06424   2.54365
   R23        2.03683  -0.00087  -0.00229   0.00044  -0.00186   2.03497
   R24        2.04293  -0.00216  -0.00633   0.00209  -0.00424   2.03869
    A1        1.98336   0.00070   0.00725  -0.01298  -0.00586   1.97750
    A2        2.16338  -0.00186  -0.00547  -0.00286  -0.00826   2.15512
    A3        2.13644   0.00115  -0.00178   0.01584   0.01413   2.15056
    A4        1.96445  -0.00174  -0.00409  -0.00442  -0.00846   1.95599
    A5        2.12924   0.00539   0.01664   0.00007   0.01664   2.14589
    A6        2.18949  -0.00366  -0.01255   0.00431  -0.00830   2.18119
    A7        1.91960   0.00561   0.00838   0.01702   0.02558   1.94518
    A8        2.28717  -0.00919  -0.01749  -0.02001  -0.03759   2.24957
    A9        2.07625   0.00358   0.00911   0.00301   0.01202   2.08827
   A10        1.93321  -0.00160  -0.00676   0.00384  -0.00291   1.93030
   A11        1.94354   0.00116   0.00521  -0.00341   0.00179   1.94534
   A12        1.93932   0.00043   0.00331  -0.00477  -0.00146   1.93785
   A13        1.87783   0.00059   0.00205   0.00209   0.00416   1.88198
   A14        1.87276   0.00126   0.00369   0.00589   0.00958   1.88235
   A15        1.89454  -0.00183  -0.00768  -0.00320  -0.01089   1.88365
   A16        1.94410   0.00034  -0.00512   0.01310   0.00778   1.95188
   A17        2.19484   0.00336   0.01049   0.00694   0.01749   2.21234
   A18        2.14413  -0.00369  -0.00535  -0.01988  -0.02517   2.11896
   A19        1.61324  -0.00492  -0.00642  -0.01270  -0.01907   1.59417
   A20        2.12318  -0.00314  -0.00322  -0.01323  -0.01661   2.10657
   A21        2.23121  -0.00211  -0.00501  -0.00357  -0.00875   2.22246
   A22        1.92860   0.00530   0.00851   0.01749   0.02520   1.95380
   A23        1.60874  -0.00451  -0.00593  -0.01863  -0.02243   1.58631
   A24        1.93831  -0.00311  -0.01254   0.01683   0.00149   1.93980
   A25        2.27306   0.00486   0.01861   0.04238   0.05038   2.32344
   A26        1.97996   0.00143   0.00803  -0.00391   0.00312   1.98309
   A27        1.98312   0.00124   0.00901  -0.00633   0.00141   1.98453
   A28        1.93956  -0.00318  -0.01471   0.02111   0.00380   1.94336
   A29        2.26948   0.00493   0.01813   0.04176   0.04941   2.31890
   A30        1.96551   0.00112   0.00109  -0.00814  -0.00534   1.96018
   A31        2.14784  -0.00207  -0.00746   0.01106   0.00078   2.14862
   A32        2.16257   0.00140   0.00887   0.00519   0.01121   2.17378
   A33        1.59644  -0.00251   0.00191  -0.02444  -0.01976   1.57667
   A34        1.96022   0.00286   0.00027   0.02089   0.01961   1.97983
   A35        2.12759  -0.00467  -0.00474  -0.02012  -0.02972   2.09787
   A36        2.18621   0.00259   0.00876   0.01536   0.01922   2.20543
   A37        1.94830   0.00140   0.00451  -0.01295  -0.00659   1.94171
   A38        2.17402  -0.00052   0.00470   0.00724   0.00532   2.17934
   A39        2.13774   0.00049  -0.00164   0.03002   0.02193   2.15967
    D1        0.00395  -0.00025  -0.00159  -0.00898  -0.01052  -0.00657
    D2       -3.13479   0.00010  -0.00012   0.00214   0.00216  -3.13263
    D3        3.14041  -0.00030  -0.00180  -0.00724  -0.00910   3.13130
    D4        0.00167   0.00005  -0.00033   0.00387   0.00358   0.00525
    D5       -0.00652   0.00013   0.00011   0.00610   0.00620  -0.00032
    D6       -3.13303  -0.00033  -0.00156  -0.00563  -0.00740  -3.14043
    D7        3.14012   0.00019   0.00032   0.00445   0.00486  -3.13820
    D8        0.01361  -0.00027  -0.00134  -0.00728  -0.00874   0.00487
    D9        0.00037   0.00028   0.00234   0.00752   0.00987   0.01024
   D10        3.12136   0.00065   0.00206   0.00880   0.01081   3.13217
   D11        3.13899  -0.00007   0.00082  -0.00406  -0.00307   3.13593
   D12       -0.02321   0.00031   0.00054  -0.00277  -0.00213  -0.02533
   D13        0.03654  -0.00019  -0.00068  -0.00127  -0.00199   0.03455
   D14       -2.05246  -0.00063  -0.00224  -0.00421  -0.00647  -2.05893
   D15        2.11640   0.00062   0.00170   0.00551   0.00717   2.12357
   D16       -3.10182   0.00020   0.00098   0.01134   0.01235  -3.08947
   D17        1.09237  -0.00024  -0.00058   0.00840   0.00787   1.10023
   D18       -1.02195   0.00101   0.00336   0.01813   0.02150  -1.00045
   D19       -0.00342  -0.00016  -0.00191  -0.00351  -0.00550  -0.00892
   D20       -3.12725  -0.00031  -0.00132  -0.00428  -0.00565  -3.13290
   D21       -1.22185  -0.00103   0.00000   0.00000   0.00000  -1.22185
   D22        1.89674   0.00182   0.01171   0.04237   0.05411   1.95085
   D23        1.89760  -0.00063  -0.00035   0.00148   0.00107   1.89868
   D24       -1.26699   0.00222   0.01136   0.04385   0.05518  -1.21181
   D25        0.00566   0.00002   0.00105  -0.00143  -0.00052   0.00514
   D26        3.13268   0.00053   0.00285   0.01015   0.01265  -3.13785
   D27       -3.13757   0.00087   0.00445   0.00289   0.00721  -3.13036
   D28        0.02342  -0.00146  -0.00516  -0.03265  -0.03885  -0.01543
   D29        3.13052  -0.00123  -0.00747   0.00114  -0.00616   3.12436
   D30       -0.13587   0.00271   0.01218   0.07071   0.08260  -0.05327
   D31       -0.03198   0.00128   0.00297   0.03934   0.04358   0.01160
   D32        2.98482   0.00522   0.02261   0.10891   0.13234   3.11716
   D33       -0.00860   0.00145   0.00654   0.01741   0.02376   0.01516
   D34       -2.66423  -0.00638  -0.02657  -0.11742  -0.14723  -2.81146
   D35       -0.00814  -0.00080  -0.00566   0.00205  -0.00358  -0.01172
   D36       -2.75133  -0.00820  -0.03465  -0.12468  -0.15336  -2.90469
[...]

 **********************************************************************

            Population analysis using the SCF Density.

 **********************************************************************

 Orbital symmetries:
       Occupied  (A) (A) (A) (A) (A) (A) (A) (A) (A) (A) (A) (A)
                 (A) (A) (A) (A) (A) (A) (A) (A) (A) (A) (A) (A)
                 (A) (A) (A) (A) (A) (A) (A) (A) (A) (A) (A) (A)
                 (A) (A) (A) (A) (A) (A) (A) (A) (A) (A) (A) (A)
                 (A) (A) (A) (A) (A) (A) (A) (A) (A) (A) (A) (A)
                 (A)
       Virtual   (A) (A) (A) (A) (A) (A) (A) (A) (A) (A) (A) (A)
                 (A) (A) (A) (A) (A) (A) (A) (A) (A) (A) (A) (A)
                 (A) (A) (A) (A) (A) (A) (A) (A) (A) (A) (A) (A)
                 (A) (A) (A) (A) (A) (A) (A) (A) (A) (A) (A) (A)
                 (A) (A) (A) (A) (A) (A) (A) (A) (A) (A) (A) (A)
                 (A) (A) (A) (A) (A) (A) (A) (A) (A) (A) (A) (A)
                 (A) (A) (A) (A) (A) (A) (A) (A) (A) (A) (A) (A)
                 (A) (A) (A) (A) (A) (A) (A) (A) (A) (A) (A) (A)
                 (A) (A) (A) (A) (A) (A) (A) (A) (A) (A) (A) (A)
                 (A) (A) (A) (A) (A) (A) (A) (A) (A) (A) (A) (A)
                 (A) (A) (A) (A) (A) (A) (A) (A) (A) (A) (A) (A)
                 (A) (A) (A) (A) (A) (A) (A) (A) (A) (A) (A) (A)
                 (A) (A) (A) (A) (A) (A) (A) (A) (A) (A) (A) (A)
                 (A) (A) (A) (A) (A) (A) (A) (A) (A) (A) (A) (A)
                 (A) (A) (A) (A) (A) (A) (A) (A) (A) (A) (A) (A)
                 (A) (A) (A) (A) (A) (A) (A) (A) (A) (A) (A) (A)
                 (A) (A) (A) (A) (A) (A) (A) (A) (A) (A) (A) (A)
                 (A) (A) (A) (A) (A) (A) (A) (A) (A) (A) (A) (A)
                 (A) (A) (A) (A) (A) (A) (A) (A) (A) (A) (A) (A)
                 (A) (A) (A) (A) (A) (A) (A) (A) (A) (A) (A) (A)
                 (A) (A) (A) (A) (A) (A) (A) (A) (A) (A) (A) (A)
                 (A) (A) (A) (A) (A) (A) (A) (A) (A) (A) (A) (A)
                 (A) (A) (A) (A) (A) (A) (A) (A) (A) (A) (A) (A)
                 (A) (A) (A) (A) (A) (A) (A) (A) (A) (A) (A) (A)
                 (A) (A) (A) (A) (A) (A) (A) (A) (A) (A) (A) (A)
                 (A) (A) (A) (A) (A) (A) (A) (A) (A) (A) (A) (A)
                 (A) (A) (A) (A) (A) (A) (A) (A) (A) (A) (A) (A)
                 (A) (A) (A) (A) (A) (A) (A) (A) (A) (A) (A) (A)
                 (A) (A) (A) (A) (A) (A) (A) (A) (A)
 The electronic state is 1-A.
 Alpha  occ. eigenvalues --  -91.99051 -91.98984 -91.98376 -11.28818 -11.27807
 Alpha  occ. eigenvalues --  -11.27490 -11.27312 -11.27163 -11.27113 -11.25819
 Alpha  occ. eigenvalues --  -11.25787 -11.25496 -11.24303 -11.23565  -8.99234
 Alpha  occ. eigenvalues --   -8.99140  -8.98593  -6.67401  -6.67323  -6.67304
 Alpha  occ. eigenvalues --   -6.67222  -6.67116  -6.67015  -6.66757  -6.66664
 Alpha  occ. eigenvalues --   -6.66473  -1.21750  -1.18561  -1.12865  -1.03884
 Alpha  occ. eigenvalues --   -1.02568  -1.01603  -0.95730  -0.94688  -0.91826
 Alpha  occ. eigenvalues --   -0.82099  -0.77521  -0.76464  -0.72368  -0.70086
 Alpha  occ. eigenvalues --   -0.67357  -0.66878  -0.60627  -0.59110  -0.58835
 Alpha  occ. eigenvalues --   -0.56731  -0.56327  -0.54736  -0.53784  -0.52506
 Alpha  occ. eigenvalues --   -0.51662  -0.51055  -0.49524  -0.47362  -0.46310
 Alpha  occ. eigenvalues --   -0.46017  -0.38861  -0.34244  -0.33549  -0.32247
 Alpha  occ. eigenvalues --   -0.30008
 Alpha virt. eigenvalues --    0.03425   0.03482   0.04176   0.04669   0.04886
 Alpha virt. eigenvalues --    0.05824   0.06030   0.07374   0.08164   0.08671
 Alpha virt. eigenvalues --    0.08742   0.09130   0.10274   0.10501   0.11188
 Alpha virt. eigenvalues --    0.11431   0.11789   0.12476   0.12563   0.12959
 Alpha virt. eigenvalues --    0.13225   0.13457   0.14058   0.14212   0.14272
 Alpha virt. eigenvalues --    0.14718   0.15209   0.15494   0.16004   0.16322
 Alpha virt. eigenvalues --    0.16499   0.16844   0.17272   0.17863   0.18268
 Alpha virt. eigenvalues --    0.18459   0.18654   0.19252   0.19822   0.20307
 Alpha virt. eigenvalues --    0.20498   0.21391   0.21576   0.21892   0.22070
 Alpha virt. eigenvalues --    0.22433   0.22879   0.23453   0.23721   0.23975
 Alpha virt. eigenvalues --    0.24598   0.24953   0.25059   0.25362   0.26076
 Alpha virt. eigenvalues --    0.26877   0.27354   0.27660   0.28770   0.29280
 Alpha virt. eigenvalues --    0.29439   0.30463   0.30893   0.31710   0.31922
 Alpha virt. eigenvalues --    0.32130   0.32674   0.32803   0.33240   0.33923
 Alpha virt. eigenvalues --    0.34733   0.34898   0.35334   0.35956   0.36717
 Alpha virt. eigenvalues --    0.37073   0.37828   0.38160   0.39073   0.40452
 Alpha virt. eigenvalues --    0.40719   0.41231   0.41772   0.42198   0.42851
 Alpha virt. eigenvalues --    0.44187   0.44390   0.44741   0.44860   0.45418
 Alpha virt. eigenvalues --    0.45736   0.46077   0.46942   0.47500   0.47894
 Alpha virt. eigenvalues --    0.48993   0.49308   0.49743   0.50123   0.51176
 Alpha virt. eigenvalues --    0.52243   0.52482   0.53078   0.54059   0.54697
 Alpha virt. eigenvalues --    0.55295   0.56588   0.57176   0.58482   0.58661
 Alpha virt. eigenvalues --    0.58858   0.59456   0.59750   0.60235   0.60746
 Alpha virt. eigenvalues --    0.61571   0.62671   0.63030   0.63269   0.63641
 Alpha virt. eigenvalues --    0.64478   0.65233   0.65551   0.66224   0.66636
 Alpha virt. eigenvalues --    0.67417   0.68024   0.68471   0.68828   0.69396
 Alpha virt. eigenvalues --    0.69980   0.70506   0.70735   0.71145   0.71627
 Alpha virt. eigenvalues --    0.72220   0.72798   0.73848   0.74039   0.74389
 Alpha virt. eigenvalues --    0.74711   0.75135   0.75977   0.76538   0.76631
 Alpha virt. eigenvalues --    0.77205   0.77983   0.78812   0.79488   0.80149
 Alpha virt. eigenvalues --    0.81289   0.81845   0.82275   0.82504   0.83584
 Alpha virt. eigenvalues --    0.84088   0.84288   0.85348   0.86627   0.86944
 Alpha virt. eigenvalues --    0.87552   0.88676   0.89104   0.89490   0.89541
 Alpha virt. eigenvalues --    0.90763   0.91596   0.92218   0.92908   0.94460
 Alpha virt. eigenvalues --    0.94799   0.95584   0.95936   0.96536   0.97068
 Alpha virt. eigenvalues --    0.98128   0.98302   0.99896   1.00245   1.00843
 Alpha virt. eigenvalues --    1.01333   1.01707   1.02998   1.04686   1.06353
 Alpha virt. eigenvalues --    1.06853   1.07538   1.09092   1.09527   1.10340
 Alpha virt. eigenvalues --    1.11120   1.11259   1.11740   1.14636   1.14829
 Alpha virt. eigenvalues --    1.16296   1.17100   1.17497   1.19424   1.19750
 Alpha virt. eigenvalues --    1.21139   1.22369   1.23530   1.24022   1.25786
 Alpha virt. eigenvalues --    1.25851   1.26164   1.27175   1.27908   1.29272
 Alpha virt. eigenvalues --    1.30408   1.31136   1.31781   1.33930   1.34341
 Alpha virt. eigenvalues --    1.35358   1.36141   1.36708   1.37940   1.39183
 Alpha virt. eigenvalues --    1.40081   1.40992   1.42449   1.44987   1.45167
 Alpha virt. eigenvalues --    1.46307   1.48103   1.49646   1.52052   1.53308
 Alpha virt. eigenvalues --    1.55072   1.56121   1.56974   1.57004   1.57783
 Alpha virt. eigenvalues --    1.59906   1.60263   1.62698   1.63211   1.63704
 Alpha virt. eigenvalues --    1.64151   1.65394   1.67204   1.67758   1.69009
 Alpha virt. eigenvalues --    1.69205   1.70000   1.70868   1.71098   1.72404
 Alpha virt. eigenvalues --    1.74012   1.74341   1.76229   1.77328   1.79569
 Alpha virt. eigenvalues --    1.80667   1.81688   1.82550   1.84137   1.84866
 Alpha virt. eigenvalues --    1.85589   1.86306   1.88496   1.89584   1.90428
 Alpha virt. eigenvalues --    1.91238   1.93988   1.94840   1.95976   1.96593
 Alpha virt. eigenvalues --    1.96834   1.97510   2.00324   2.02609   2.02738
 Alpha virt. eigenvalues --    2.04123   2.05462   2.06342   2.07112   2.09320
 Alpha virt. eigenvalues --    2.09979   2.10588   2.12043   2.13057   2.14331
 Alpha virt. eigenvalues --    2.14570   2.15578   2.18501   2.21624   2.21873
 Alpha virt. eigenvalues --    2.22415   2.23325   2.24575   2.25946   2.27838
 Alpha virt. eigenvalues --    2.28593   2.29602   2.30931   2.32325   2.33553
 Alpha virt. eigenvalues --    2.35106   2.36439   2.37325   2.39552   2.40952
 Alpha virt. eigenvalues --    2.43244   2.44276   2.46648   2.47847   2.48093
 Alpha virt. eigenvalues --    2.49034   2.51115   2.52912   2.53712   2.54827
 Alpha virt. eigenvalues --    2.57602   2.60581   2.61513   2.63175   2.68790
 Alpha virt. eigenvalues --    2.73887   2.76137   2.78871   2.83755   2.84981
 Alpha virt. eigenvalues --    2.87574   2.88241   2.92736   2.95401   2.98968
 Alpha virt. eigenvalues --    3.00171   3.03120   3.04175   3.05599   3.23809
 Alpha virt. eigenvalues --    3.24665   3.30165   3.34321   3.45616   3.53192
 Alpha virt. eigenvalues --    3.58018   3.75451   3.81804   4.15765   4.29303
          Condensed to atoms (all electrons):
               1          2          3          4          5          6
     1  C    9.973958  -1.953142  -0.901022  -0.736284  -0.299753  -0.336742
     2  C   -1.953142  10.964244  -3.047089   0.485738   0.397296   0.267511
     3  C   -0.901022  -3.047089  14.248413  -0.966230  -1.661996  -0.084752
     4  C   -0.736284   0.485738  -0.966230   5.736996   0.160708   0.042246
     5  C   -0.299753   0.397296  -1.661996   0.160708   7.067944   0.011505
     6  H   -0.336742   0.267511  -0.084752   0.042246   0.011505   1.643148
     7  S   -0.540561  -0.059854  -0.182949   0.122978   0.387909  -0.009763
     8  H    0.075050   0.092172  -0.029281   0.031276   0.154472  -0.067206
     9  C    0.280841  -0.041390  -2.111604   0.159408   0.192277   0.034054
    10  S   -0.010012   0.336339  -0.590283   0.031162   0.009450   0.000119
    11  C    0.015606   0.061004  -0.348275   0.004800   0.012454   0.000444
    12  C   -0.030324   0.008657   0.443252   0.026187  -0.002172   0.000784
    13  C   -0.076384  -0.821357   0.710547  -0.212839  -0.161191  -0.009029
    14  H   -0.008126   0.094557   0.030343   0.011890   0.002796  -0.000746
    15  S    0.000678  -0.008770  -0.048135  -0.000327  -0.001958   0.000038
    16  C   -0.001723   0.005982   0.034399   0.001615   0.000399  -0.000118
    17  C    0.001589   0.026257  -0.405650  -0.020064  -0.002720  -0.000220
    18  H   -0.000113   0.000359   0.000141   0.000237   0.000007  -0.000010
    19  H    0.000355   0.000941  -0.010258  -0.000945  -0.000298   0.000024
    20  H   -0.017216   0.064497  -0.077618   0.298083   0.019698  -0.002836
    21  H   -0.034079   0.056091  -0.020039   0.336648   0.024786  -0.008709
    22  H   -0.039450   0.149552   0.143792   0.008493  -0.041085   0.001642
               7          8          9         10         11         12
     1  C   -0.540561   0.075050   0.280841  -0.010012   0.015606  -0.030324
     2  C   -0.059854   0.092172  -0.041390   0.336339   0.061004   0.008657
     3  C   -0.182949  -0.029281  -2.111604  -0.590283  -0.348275   0.443252
     4  C    0.122978   0.031276   0.159408   0.031162   0.004800   0.026187
     5  C    0.387909   0.154472   0.192277   0.009450   0.012454  -0.002172
     6  H   -0.009763  -0.067206   0.034054   0.000119   0.000444   0.000784
     7  S   16.308542  -0.156532  -0.577691  -0.098341  -0.001184   0.050483
     8  H   -0.156532   1.256590   0.000627  -0.001622  -0.000227   0.000606
     9  C   -0.577691   0.000627  13.790402   0.322139  -0.163794  -0.753995
    10  S   -0.098341  -0.001622   0.322139  16.680658   0.305053  -0.348582
    11  C   -0.001184  -0.000227  -0.163794   0.305053  10.939994  -0.642557
    12  C    0.050483   0.000606  -0.753995  -0.348582  -0.642557  12.334487
    13  C    0.397214  -0.000089  -4.933320  -0.782263  -1.448632  -3.253199
    14  H    0.011532   0.000305   0.208177   0.046184  -0.094457   0.774186
    15  S   -0.000916  -0.000144  -0.279750   0.101650  -0.018142  -0.302356
    16  C   -0.002266   0.000047   0.058895  -0.090773  -0.080763  -0.957955
    17  C    0.005883  -0.000158  -0.546437  -0.255665  -2.442022  -1.067543
    18  H   -0.000001   0.000003   0.007185   0.009876   0.097931  -0.056318
    19  H    0.000257  -0.000024   0.114707   0.009815   0.559460   0.083777
    20  H    0.002347   0.001355   0.001395  -0.002498  -0.002843  -0.001000
    21  H    0.005689   0.001177  -0.024263   0.001908   0.006430   0.000339
    22  H    0.011453  -0.000177  -0.058551  -0.016565  -0.013074   0.015004
              13         14         15         16         17         18
     1  C   -0.076384  -0.008126   0.000678  -0.001723   0.001589  -0.000113
     2  C   -0.821357   0.094557  -0.008770   0.005982   0.026257   0.000359
     3  C    0.710547   0.030343  -0.048135   0.034399  -0.405650   0.000141
     4  C   -0.212839   0.011890  -0.000327   0.001615  -0.020064   0.000237
     5  C   -0.161191   0.002796  -0.001958   0.000399  -0.002720   0.000007
     6  H   -0.009029  -0.000746   0.000038  -0.000118  -0.000220  -0.000010
     7  S    0.397214   0.011532  -0.000916  -0.002266   0.005883  -0.000001
     8  H   -0.000089   0.000305  -0.000144   0.000047  -0.000158   0.000003
     9  C   -4.933320   0.208177  -0.279750   0.058895  -0.546437   0.007185
    10  S   -0.782263   0.046184   0.101650  -0.090773  -0.255665   0.009876
    11  C   -1.448632  -0.094457  -0.018142  -0.080763  -2.442022   0.097931
    12  C   -3.253199   0.774186  -0.302356  -0.957955  -1.067543  -0.056318
    13  C   17.360783  -1.287830   0.041989  -0.171209   0.406253   0.025309
    14  H   -1.287830   1.756171  -0.040178   0.021112  -0.042803   0.001628
    15  S    0.041989  -0.040178  15.950300   0.176309  -0.028797  -0.157702
    16  C   -0.171209   0.021112   0.176309   6.911624   0.108803   0.190791
    17  C    0.406253  -0.042803  -0.028797   0.108803  10.162247   0.034081
    18  H    0.025309   0.001628  -0.157702   0.190791   0.034081   1.298393
    19  H   -0.077063  -0.001836  -0.007557  -0.132200  -0.579051  -0.070011
    20  H   -0.000818   0.002057  -0.000071   0.000516  -0.000437   0.000048
    21  H   -0.008077  -0.000618   0.000253  -0.000196  -0.000016   0.000031
    22  H    0.060096   0.002927  -0.001278   0.000380  -0.007624  -0.000109
              19         20         21         22
     1  C    0.000355  -0.017216  -0.034079  -0.039450
     2  C    0.000941   0.064497   0.056091   0.149552
     3  C   -0.010258  -0.077618  -0.020039   0.143792
     4  C   -0.000945   0.298083   0.336648   0.008493
     5  C   -0.000298   0.019698   0.024786  -0.041085
     6  H    0.000024  -0.002836  -0.008709   0.001642
     7  S    0.000257   0.002347   0.005689   0.011453
     8  H   -0.000024   0.001355   0.001177  -0.000177
     9  C    0.114707   0.001395  -0.024263  -0.058551
    10  S    0.009815  -0.002498   0.001908  -0.016565
    11  C    0.559460  -0.002843   0.006430  -0.013074
    12  C    0.083777  -0.001000   0.000339   0.015004
    13  C   -0.077063  -0.000818  -0.008077   0.060096
    14  H   -0.001836   0.002057  -0.000618   0.002927
    15  S   -0.007557  -0.000071   0.000253  -0.001278
    16  C   -0.132200   0.000516  -0.000196   0.000380
    17  C   -0.579051  -0.000437  -0.000016  -0.007624
    18  H   -0.070011   0.000048   0.000031  -0.000109
    19  H    1.435326  -0.000067   0.000084  -0.000149
    20  H   -0.000067   0.922337  -0.113116  -0.124691
    21  H    0.000084  -0.113116   0.805341  -0.135806
    22  H   -0.000149  -0.124691  -0.135806   1.153713
 Mulliken charges:
               1
     1  C    0.636857
     2  C   -1.079594
     3  C    0.874293
     4  C    0.478226
     5  C   -0.270529
     6  H   -0.481385
     7  S    0.325772
     8  H   -0.358220
     9  C    0.320689
    10  S    0.342252
    11  C   -0.747207
    12  C   -0.321760
    13  C    0.241109
    14  H   -0.487271
    15  S    0.624863
    16  C   -0.073670
    17  C    0.654095
    18  H   -0.381756
    19  H   -0.325289
    20  H    0.030880
    21  H    0.106142
    22  H   -0.108495
 Sum of Mulliken charges =  -0.00000
 Mulliken charges with hydrogens summed into heavy atoms:
               1
     1  C    0.155472
     2  C   -1.079594
     3  C    0.874293
     4  C    0.506752
     5  C   -0.628748
     7  S    0.325772
     9  C    0.320689
    10  S    0.342252
    11  C   -0.747207
    12  C   -0.321760
    13  C   -0.246163
    15  S    0.624863
    16  C   -0.455426
    17  C    0.328806
 Electronic spatial extent (au):  <R**2>=           4342.6078
 Charge=             -0.0000 electrons
 Dipole moment (field-independent basis, Debye):
    X=             -0.4242    Y=              1.0652    Z=              0.6613  Tot=              1.3236
 Quadrupole moment (field-independent basis, Debye-Ang):
   XX=            -86.6730   YY=           -103.0121   ZZ=           -107.0139
   XY=              1.8205   XZ=             -4.3807   YZ=             -1.2287
 Traceless Quadrupole moment (field-independent basis, Debye-Ang):
   XX=             12.2267   YY=             -4.1124   ZZ=             -8.1143
   XY=              1.8205   XZ=             -4.3807   YZ=             -1.2287
 Octapole moment (field-independent basis, Debye-Ang**2):
  XXX=             -0.1959  YYY=              4.2259  ZZZ=              3.2822  XYY=             -8.1986
  XXY=             11.7740  XXZ=             -9.8028  XZZ=             -0.0683  YZZ=              3.0928
  YYZ=             -0.2114  XYZ=            -17.7864
 Hexadecapole moment (field-independent basis, Debye-Ang**3):
 XXXX=          -4144.8892 YYYY=           -850.9867 ZZZZ=           -491.1669 XXXY=             87.9054
 XXXZ=            -37.9783 YYYX=              5.1541 YYYZ=             -8.6498 ZZZX=            -13.2874
 ZZZY=             -4.5434 XXYY=           -924.0256 XXZZ=           -924.5691 YYZZ=           -210.0579
 XXYZ=             10.3402 YYXZ=             -6.9645 ZZXY=              2.4705
 N-N= 1.123117530431D+03 E-N=-6.066450391091D+03  KE= 1.613727055434D+03
 Unable to Open any file for archive entry.
 1\1\GINC-CX3-11-3\FOpt\RHF\Aug-CC-pVDZ\C11H8S3\NS5018\26-Oct-2021\0\\#
  opt=modredundant hf/aug-cc-pvdz\\pBTTT_-70.pdb\\0,1\C,-4.2459517056,-
 1.5197986561,-0.2566174327\C,-2.9479996653,-1.0134519635,-0.6325602546
 \C,-2.0003768108,-1.9831286993,-0.602598464\C,-2.7223337543,0.43289565
 61,-0.9850322064\C,-4.2435547961,-2.8339178429,0.043589953\H,-5.129851
 1277,-0.9013079467,-0.2122606786\S,-2.6701862981,-3.5235625659,-0.1225
 613759\H,-5.0771909242,-3.4394789536,0.3568477654\C,-0.5635511101,-1.8
 829357798,-0.9222158223\S,-0.0356743587,-1.6344028015,-2.5816843144\C,
 1.6287965911,-1.6669130268,-2.0873267037\C,1.7362037605,-1.8704845905,
 -0.7426640874\C,0.4777583656,-1.997226207,-0.0676839445\H,0.3557562426
 ,-2.1567734502,0.9912216738\S,3.4003831716,-1.9024815751,-0.2446071695
 \C,3.9156477678,-1.63595989,-1.8894777051\C,2.8896972146,-1.5290897312
 ,-2.7592587105\H,4.9671273907,-1.5754062722,-2.1136514011\H,3.01305826
 27,-1.3641251965,-3.8171462182\H,-3.1089760152,1.0777546799,-0.1949483
 726\H,-3.2445858891,0.6908996252,-1.9076240838\H,-1.6671963121,0.65189
 51877,-1.1187404468\\Version=ES64L-G16RevC.01\State=1-A\HF=-1613.81483
 92\RMSD=5.101e-09\RMSF=1.789e-05\Dipole=-0.2007189,0.4773091,-0.055301
 7\Quadrupole=7.7706524,-5.3777623,-2.3928902,-0.7876048,-5.1682299,-1.
 6175093\PG=C01 [X(C11H8S3)]\\@
 The archive entry for this job was punched.


 CLIMB THE MOUNTAINS AND GET THEIR GOOD TIDINGS.
 NATURE'S PEACE WILL FLOW INTO YOU AS SUNSHINE FLOWS INTO TREES.
 THE WINDS WILL BLOW THEIR OWN FRESHNESS INTO YOU, 
 AND CARES WILL DROP OFF LIKE AUTUMN LEAVES.

                                         -- JOHN MUIR
 Job cpu time:       0 days  9 hours 53 minutes 23.7 seconds.
 Elapsed time:       0 days  1 hours 14 minutes 42.4 seconds.
 File lengths (MBytes):  RWF=    103 Int=      0 D2E=      0 Chk=     13 Scr=      1
 Normal termination of Gaussian 16 at Tue Oct 26 01:02:06 2021.
