 Entering Gaussian System, Link 0=g16
 Input=pBTTT_-65.gjf
 Output=pBTTT_-65.log
 Initial command:
 /apps/gaussian/g16-c01-avx/g16/l1.exe "/tmp/pbs.4762177[110].pbs/Gau-1413058.inp" -scrdir="/tmp/pbs.4762177[110].pbs/"
 Entering Link 1 = /apps/gaussian/g16-c01-avx/g16/l1.exe PID=   1413059.
  
 Copyright (c) 1988-2019, Gaussian, Inc.  All Rights Reserved.
  
 This is part of the Gaussian(R) 16 program.  It is based on
 the Gaussian(R) 09 system (copyright 2009, Gaussian, Inc.),
 the Gaussian(R) 03 system (copyright 2003, Gaussian, Inc.),
 the Gaussian(R) 98 system (copyright 1998, Gaussian, Inc.),
 the Gaussian(R) 94 system (copyright 1995, Gaussian, Inc.),
 the Gaussian 92(TM) system (copyright 1992, Gaussian, Inc.),
 the Gaussian 90(TM) system (copyright 1990, Gaussian, Inc.),
 the Gaussian 88(TM) system (copyright 1988, Gaussian, Inc.),
 the Gaussian 86(TM) system (copyright 1986, Carnegie Mellon
 University), and the Gaussian 82(TM) system (copyright 1983,
 Carnegie Mellon University). Gaussian is a federally registered
 trademark of Gaussian, Inc.
  
 This software contains proprietary and confidential information,
 including trade secrets, belonging to Gaussian, Inc.
  
 This software is provided under written license and may be
 used, copied, transmitted, or stored only in accord with that
 written license.
  
 The following legend is applicable only to US Government
 contracts under FAR:
  
                    RESTRICTED RIGHTS LEGEND
  
 Use, reproduction and disclosure by the US Government is
 subject to restrictions as set forth in subparagraphs (a)
 and (c) of the Commercial Computer Software - Restricted
 Rights clause in FAR 52.227-19.
  
 Gaussian, Inc.
 340 Quinnipiac St., Bldg. 40, Wallingford CT 06492
  
  
 ---------------------------------------------------------------
 Warning -- This program may not be used in any manner that
 competes with the business of Gaussian, Inc. or will provide
 assistance to any competitor of Gaussian, Inc.  The licensee
 of this program is prohibited from giving any competitor of
 Gaussian, Inc. access to this program.  By using this program,
 the user acknowledges that Gaussian, Inc. is engaged in the
 business of creating and licensing software in the field of
 computational chemistry and represents and warrants to the
 licensee that it is not a competitor of Gaussian, Inc. and that
 it will not use this program in any manner prohibited above.
 ---------------------------------------------------------------
  

 Cite this work as:
 Gaussian 16, Revision C.01,
 M. J. Frisch, G. W. Trucks, H. B. Schlegel, G. E. Scuseria, 
 M. A. Robb, J. R. Cheeseman, G. Scalmani, V. Barone, 
 G. A. Petersson, H. Nakatsuji, X. Li, M. Caricato, A. V. Marenich, 
 J. Bloino, B. G. Janesko, R. Gomperts, B. Mennucci, H. P. Hratchian, 
 J. V. Ortiz, A. F. Izmaylov, J. L. Sonnenberg, D. Williams-Young, 
 F. Ding, F. Lipparini, F. Egidi, J. Goings, B. Peng, A. Petrone, 
 T. Henderson, D. Ranasinghe, V. G. Zakrzewski, J. Gao, N. Rega, 
 G. Zheng, W. Liang, M. Hada, M. Ehara, K. Toyota, R. Fukuda, 
 J. Hasegawa, M. Ishida, T. Nakajima, Y. Honda, O. Kitao, H. Nakai, 
 T. Vreven, K. Throssell, J. A. Montgomery, Jr., J. E. Peralta, 
 F. Ogliaro, M. J. Bearpark, J. J. Heyd, E. N. Brothers, K. N. Kudin, 
 V. N. Staroverov, T. A. Keith, R. Kobayashi, J. Normand, 
 K. Raghavachari, A. P. Rendell, J. C. Burant, S. S. Iyengar, 
 J. Tomasi, M. Cossi, J. M. Millam, M. Klene, C. Adamo, R. Cammi, 
 J. W. Ochterski, R. L. Martin, K. Morokuma, O. Farkas, 
 J. B. Foresman, and D. J. Fox, Gaussian, Inc., Wallingford CT, 2019.
 
 ******************************************
 Gaussian 16:  ES64L-G16RevC.01  3-Jul-2019
                25-Oct-2021 
 ******************************************
 %mem=100GB
 %nprocshared=8
 Will use up to    8 processors via shared memory.
 ---------------------------------
 # opt=modredundant hf/aug-cc-pvdz
 ---------------------------------
 1/18=120,19=15,38=1/1,3;
 2/9=110,12=2,17=6,18=5,40=1/2;
 3/5=16,7=10,11=9,25=1,30=1,71=1/1,2,3;
 4//1;
 5/5=2,38=5/2;
 6/7=2,8=2,9=2,10=2,28=1/1;
 7//1,2,3,16;
 1/18=20,19=15/3(2);
 2/9=110/2;
 99//99;
 2/9=110/2;
 3/5=16,7=10,11=9,25=1,30=1,71=1/1,2,3;
 4/5=5,16=3,69=1/1;
 5/5=2,38=5/2;
 7//1,2,3,16;
 1/18=20,19=15/3(-5);
 2/9=110/2;
 6/7=2,8=2,9=2,10=2,19=2,28=1/1;
 99/9=1/99;
 -------------
 pBTTT_-65.pdb
 -------------
 Symbolic Z-matrix:
 Charge =  0 Multiplicity = 1
 C                    -4.25     -1.36     -0.21 
 C                    -2.93     -0.95     -0.61 
 C                    -1.97     -2.05     -0.62 
 C                    -2.66      0.47     -0.96 
 C                    -4.33     -2.76      0.1 
 H                    -5.1      -0.7      -0.14 
 S                    -2.8      -3.56     -0.11 
 H                    -5.23     -3.27      0.41 
 C                    -0.56     -2.13     -0.97 
 S                     0.021    -1.84     -2.638 
 C                     1.673    -2.107    -2.199 
 C                     1.829    -2.39     -0.795 
 C                     0.582    -2.389    -0.09 
 H                     0.515    -2.419     0.986 
 S                     3.397    -1.961    -0.197 
 C                     3.899    -1.406    -1.796 
 C                     2.843    -1.531    -2.776 
 H                     4.82     -0.866    -1.959 
 H                     2.858    -1.003    -3.725 
 H                    -3.55      1.09     -0.83 
 H                    -2.35      0.56     -2. 
 H                    -1.88      0.89     -0.31 
 
 The following ModRedundant input section has been read:
 D       2       3       9      10 F                                           
 

 GradGradGradGradGradGradGradGradGradGradGradGradGradGradGradGradGradGrad
 Berny optimization.
 Initialization pass.
                           ----------------------------
                           !    Initial Parameters    !
                           ! (Angstroms and Degrees)  !
 --------------------------                            --------------------------
 ! Name  Definition              Value          Derivative Info.                !
 --------------------------------------------------------------------------------
 ! R1    R(1,2)                  1.4389         estimate D2E/DX2                !
 ! R2    R(1,5)                  1.4361         estimate D2E/DX2                !
 ! R3    R(1,6)                  1.0784         estimate D2E/DX2                !
 ! R4    R(2,3)                  1.46           estimate D2E/DX2                !
 ! R5    R(2,4)                  1.4872         estimate D2E/DX2                !
 ! R6    R(3,7)                  1.797          estimate D2E/DX2                !
 ! R7    R(3,9)                  1.455          estimate D2E/DX2                !
 ! R8    R(4,20)                 1.0924         estimate D2E/DX2                !
 ! R9    R(4,21)                 1.0889         estimate D2E/DX2                !
 ! R10   R(4,22)                 1.0988         estimate D2E/DX2                !
 ! R11   R(5,7)                  1.7393         estimate D2E/DX2                !
 ! R12   R(5,8)                  1.0799         estimate D2E/DX2                !
 ! R13   R(9,10)                 1.7899         estimate D2E/DX2                !
 ! R14   R(9,13)                 1.4648         estimate D2E/DX2                !
 ! R15   R(10,11)                1.7301         estimate D2E/DX2                !
 ! R16   R(11,12)                1.4407         estimate D2E/DX2                !
 ! R17   R(11,17)                1.426          estimate D2E/DX2                !
 ! R18   R(12,13)                1.4325         estimate D2E/DX2                !
 ! R19   R(12,15)                1.7321         estimate D2E/DX2                !
 ! R20   R(13,14)                1.0785         estimate D2E/DX2                !
 ! R21   R(15,16)                1.7655         estimate D2E/DX2                !
 ! R22   R(16,17)                1.4461         estimate D2E/DX2                !
 ! R23   R(16,18)                1.08           estimate D2E/DX2                !
 ! R24   R(17,19)                1.0861         estimate D2E/DX2                !
 ! A1    A(2,1,5)              112.8843         estimate D2E/DX2                !
 ! A2    A(2,1,6)              124.5209         estimate D2E/DX2                !
 ! A3    A(5,1,6)              122.5942         estimate D2E/DX2                !
 ! A4    A(1,2,3)              112.9799         estimate D2E/DX2                !
 ! A5    A(1,2,4)              120.2665         estimate D2E/DX2                !
 ! A6    A(3,2,4)              126.7536         estimate D2E/DX2                !
 ! A7    A(2,3,7)              109.1138         estimate D2E/DX2                !
 ! A8    A(2,3,9)              132.8639         estimate D2E/DX2                !
 ! A9    A(7,3,9)              118.0132         estimate D2E/DX2                !
 ! A10   A(2,4,20)             111.468          estimate D2E/DX2                !
 ! A11   A(2,4,21)             110.8154         estimate D2E/DX2                !
 ! A12   A(2,4,22)             110.7706         estimate D2E/DX2                !
 ! A13   A(20,4,21)            107.3779         estimate D2E/DX2                !
 ! A14   A(20,4,22)            106.918          estimate D2E/DX2                !
 ! A15   A(21,4,22)            109.3476         estimate D2E/DX2                !
 ! A16   A(1,5,7)              111.9209         estimate D2E/DX2                !
 ! A17   A(1,5,8)              124.6643         estimate D2E/DX2                !
 ! A18   A(7,5,8)              123.4062         estimate D2E/DX2                !
 ! A19   A(3,7,5)               93.0997         estimate D2E/DX2                !
 ! A20   A(3,9,10)             121.9926         estimate D2E/DX2                !
 ! A21   A(3,9,13)             128.3693         estimate D2E/DX2                !
 ! A22   A(10,9,13)            109.5983         estimate D2E/DX2                !
 ! A23   A(9,10,11)             92.7788         estimate D2E/DX2                !
 ! A24   A(10,11,12)           112.3952         estimate D2E/DX2                !
 ! A25   A(10,11,17)           128.2012         estimate D2E/DX2                !
 ! A26   A(12,11,17)           112.6319         estimate D2E/DX2                !
 ! A27   A(11,12,13)           112.657          estimate D2E/DX2                !
 ! A28   A(11,12,15)           112.6942         estimate D2E/DX2                !
 ! A29   A(13,12,15)           128.166          estimate D2E/DX2                !
 ! A30   A(9,13,12)            112.5278         estimate D2E/DX2                !
 ! A31   A(9,13,14)            123.7697         estimate D2E/DX2                !
 ! A32   A(12,13,14)           123.0293         estimate D2E/DX2                !
 ! A33   A(12,15,16)            91.2935         estimate D2E/DX2                !
 ! A34   A(15,16,17)           112.2705         estimate D2E/DX2                !
 ! A35   A(15,16,18)           122.4363         estimate D2E/DX2                !
 ! A36   A(17,16,18)           124.3104         estimate D2E/DX2                !
 ! A37   A(11,17,16)           111.0905         estimate D2E/DX2                !
 ! A38   A(11,17,19)           124.1411         estimate D2E/DX2                !
 ! A39   A(16,17,19)           122.6863         estimate D2E/DX2                !
 ! D1    D(5,1,2,3)              0.3915         estimate D2E/DX2                !
 ! D2    D(5,1,2,4)           -179.5973         estimate D2E/DX2                !
 ! D3    D(6,1,2,3)           -179.8811         estimate D2E/DX2                !
 ! D4    D(6,1,2,4)              0.13           estimate D2E/DX2                !
 ! D5    D(2,1,5,7)             -0.3845         estimate D2E/DX2                !
 ! D6    D(2,1,5,8)           -179.3471         estimate D2E/DX2                !
 ! D7    D(6,1,5,7)            179.8822         estimate D2E/DX2                !
 ! D8    D(6,1,5,8)              0.9196         estimate D2E/DX2                !
 ! D9    D(1,2,3,7)             -0.2224         estimate D2E/DX2                !
 ! D10   D(1,2,3,9)            178.6265         estimate D2E/DX2                !
 ! D11   D(4,2,3,7)            179.7656         estimate D2E/DX2                !
 ! D12   D(4,2,3,9)             -1.3855         estimate D2E/DX2                !
 ! D13   D(1,2,4,20)             2.1641         estimate D2E/DX2                !
 ! D14   D(1,2,4,21)          -117.3645         estimate D2E/DX2                !
 ! D15   D(1,2,4,22)           121.0843         estimate D2E/DX2                !
 ! D16   D(3,2,4,20)          -177.8231         estimate D2E/DX2                !
 ! D17   D(3,2,4,21)            62.6483         estimate D2E/DX2                !
 ! D18   D(3,2,4,22)           -58.9029         estimate D2E/DX2                !
 ! D19   D(2,3,7,5)              0.0033         estimate D2E/DX2                !
 ! D20   D(9,3,7,5)           -179.041          estimate D2E/DX2                !
 ! D21   D(2,3,9,10)           -65.0055         Frozen                          !
 ! D22   D(2,3,9,13)           112.4512         estimate D2E/DX2                !
 ! D23   D(7,3,9,10)           113.7625         estimate D2E/DX2                !
 ! D24   D(7,3,9,13)           -68.7809         estimate D2E/DX2                !
 ! D25   D(1,5,7,3)              0.2153         estimate D2E/DX2                !
 ! D26   D(8,5,7,3)            179.1932         estimate D2E/DX2                !
 ! D27   D(3,9,10,11)          179.7842         estimate D2E/DX2                !
 ! D28   D(13,9,10,11)           1.9007         estimate D2E/DX2                !
 ! D29   D(3,9,13,12)         -179.8409         estimate D2E/DX2                !
 ! D30   D(3,9,13,14)           -9.011          estimate D2E/DX2                !
 ! D31   D(10,9,13,12)          -2.1305         estimate D2E/DX2                !
 ! D32   D(10,9,13,14)         168.6995         estimate D2E/DX2                !
 ! D33   D(9,10,11,12)          -1.2245         estimate D2E/DX2                !
 ! D34   D(9,10,11,17)        -149.8633         estimate D2E/DX2                !
 ! D35   D(10,11,12,13)          0.189          estimate D2E/DX2                !
 ! D36   D(10,11,12,15)       -154.0187         estimate D2E/DX2                !
 ! D37   D(17,11,12,13)        153.8873         estimate D2E/DX2                !
 ! D38   D(17,11,12,15)         -0.3204         estimate D2E/DX2                !
 ! D39   D(10,11,17,16)        149.753          estimate D2E/DX2                !
 ! D40   D(10,11,17,19)        -14.1644         estimate D2E/DX2                !
 ! D41   D(12,11,17,16)          1.174          estimate D2E/DX2                !
 ! D42   D(12,11,17,19)       -162.7433         estimate D2E/DX2                !
 ! D43   D(11,12,13,9)           1.2881         estimate D2E/DX2                !
 ! D44   D(11,12,13,14)       -169.6204         estimate D2E/DX2                !
 ! D45   D(15,12,13,9)         150.5862         estimate D2E/DX2                !
 ! D46   D(15,12,13,14)        -20.3222         estimate D2E/DX2                !
 ! D47   D(11,12,15,16)         -0.4771         estimate D2E/DX2                !
 ! D48   D(13,12,15,16)       -149.766          estimate D2E/DX2                !
 ! D49   D(12,15,16,17)          1.1505         estimate D2E/DX2                !
 ! D50   D(12,15,16,18)        170.2523         estimate D2E/DX2                !
 ! D51   D(15,16,17,11)         -1.5275         estimate D2E/DX2                !
 ! D52   D(15,16,17,19)        162.6641         estimate D2E/DX2                !
 ! D53   D(18,16,17,11)       -170.3888         estimate D2E/DX2                !
 ! D54   D(18,16,17,19)         -6.1972         estimate D2E/DX2                !
 --------------------------------------------------------------------------------
 Trust Radius=3.00D-01 FncErr=1.00D-07 GrdErr=1.00D-07 EigMax=2.50D+02 EigMin=1.00D-04
 Number of steps in this run=    127 maximum allowed number of steps=    132.
 GradGradGradGradGradGradGradGradGradGradGradGradGradGradGradGradGradGrad

                          Input orientation:                          
 ---------------------------------------------------------------------
 Center     Atomic      Atomic             Coordinates (Angstroms)
 Number     Number       Type             X           Y           Z
 ---------------------------------------------------------------------
      1          6           0       -4.250000   -1.360000   -0.210000
      2          6           0       -2.930000   -0.950000   -0.610000
      3          6           0       -1.970000   -2.050000   -0.620000
      4          6           0       -2.660000    0.470000   -0.960000
      5          6           0       -4.330000   -2.760000    0.100000
      6          1           0       -5.100000   -0.700000   -0.140000
      7         16           0       -2.800000   -3.560000   -0.110000
      8          1           0       -5.230000   -3.270000    0.410000
      9          6           0       -0.560000   -2.130000   -0.970000
     10         16           0        0.021000   -1.840000   -2.638000
     11          6           0        1.673000   -2.107000   -2.199000
     12          6           0        1.829000   -2.390000   -0.795000
     13          6           0        0.582000   -2.389000   -0.090000
     14          1           0        0.515000   -2.419000    0.986000
     15         16           0        3.397000   -1.961000   -0.197000
     16          6           0        3.899000   -1.406000   -1.796000
     17          6           0        2.843000   -1.531000   -2.776000
     18          1           0        4.820000   -0.866000   -1.959000
     19          1           0        2.858000   -1.003000   -3.725000
     20          1           0       -3.550000    1.090000   -0.830000
     21          1           0       -2.350000    0.560000   -2.000000
     22          1           0       -1.880000    0.890000   -0.310000
 ---------------------------------------------------------------------
                    Distance matrix (angstroms):
                    1          2          3          4          5
     1  C    0.000000
     2  C    1.438923   0.000000
     3  C    2.417147   1.460034   0.000000
     4  C    2.537617   1.487212   2.634787   0.000000
     5  C    1.436141   2.395871   2.567509   3.787532   0.000000
     6  H    1.078425   2.234346   3.442354   2.827525   2.212261
     7  S    2.636759   2.660639   1.796970   4.121044   1.739253
     8  H    2.234480   3.422397   3.630000   4.740190   1.079907
     9  C    3.845335   2.671872   1.454991   3.342170   3.969219
    10  S    4.936297   3.689619   2.842623   3.916573   5.222475
    11  C    6.292540   5.005115   3.970886   5.191429   6.461255
    12  C    6.193332   4.975531   3.818197   5.325218   6.234678
    13  C    4.941808   3.830831   2.628407   4.409234   4.929654
    14  H    5.025646   4.071020   2.981715   4.713158   4.937135
    15  S    7.670592   6.420562   5.384379   6.571087   7.773875
    16  C    8.302031   6.946206   6.020205   6.873045   8.552460
    17  C    7.544816   6.193274   5.299308   6.130650   7.825199
    18  H    9.250294   7.866979   7.021316   7.663765   9.568136
    19  H    7.937653   6.573202   5.834965   6.345335   8.329767
    20  H    2.622384   2.143455   3.521378   1.092428   4.036806
    21  H    3.240447   2.132745   2.976726   1.088944   4.399182
    22  H    3.269465   2.139650   2.957668   1.098772   4.415099
                    6          7          8          9         10
     6  H    0.000000
     7  S    3.670218   0.000000
     8  H    2.631406   2.501879   0.000000
     9  C    4.831708   2.793224   5.001290   0.000000
    10  S    5.810701   4.160195   6.237644   1.789940   0.000000
    11  C    7.217524   5.146150   7.470667   2.548972   1.730062
    12  C    7.162134   4.823460   7.214978   2.409470   2.639699
    13  C    5.927929   3.579045   5.899619   1.464802   2.666163
    14  H    5.979219   3.673190   5.836180   2.250574   3.703060
    15  S    8.590249   6.400561   8.746831   4.035336   4.167793
    16  C    9.177297   7.235946   9.574945   4.592291   3.992018
    17  C    8.410131   6.562610   8.851443   3.898826   2.842219
    18  H   10.086759   8.291009  10.601598   5.614287   4.943695
    19  H    8.733487   7.184667   9.362332   4.532425   3.151302
    20  H    2.466313   4.764808   4.834211   4.396374   4.960424
    21  H    3.551014   4.555107   5.363898   3.391327   3.433465
    22  H    3.595191   4.548505   5.389480   3.361309   4.060331
                   11         12         13         14         15
    11  C    0.000000
    12  C    1.440709   0.000000
    13  C    2.391168   1.432493   0.000000
    14  H    3.403312   2.213458   1.078501   0.000000
    15  S    2.646034   1.732128   2.849361   3.148837   0.000000
    16  C    2.368309   2.501031   3.857358   4.496348   1.765455
    17  C    1.426045   2.385464   3.614261   4.512291   2.672650
    18  H    3.391355   3.552964   4.875791   5.442229   2.515670
    19  H    2.225245   3.401104   4.507150   5.448690   3.695277
    20  H    6.274926   6.406658   5.452015   5.668788   7.613810
    21  H    4.830840   5.255337   4.576169   5.098908   6.529491
    22  H    5.017384   4.974968   4.106298   4.285455   5.998975
                   16         17         18         19         20
    16  C    0.000000
    17  C    1.446085   0.000000
    18  H    1.080005   2.240144   0.000000
    19  H    2.228706   1.086099   2.643288   0.000000
    20  H    7.915224   7.178231   8.669341   7.336494   0.000000
    21  H    6.554142   5.651699   7.310544   5.704547   1.757783
    22  H    6.393485   5.852275   7.119883   6.139570   1.760483
                   21         22
    21  H    0.000000
    22  H    1.784909   0.000000
 Stoichiometry    C11H8S3
 Framework group  C1[X(C11H8S3)]
 Deg. of freedom    60
 Full point group                 C1      NOp   1
 Largest Abelian subgroup         C1      NOp   1
 Largest concise Abelian subgroup C1      NOp   1
                         Standard orientation:                         
 ---------------------------------------------------------------------
 Center     Atomic      Atomic             Coordinates (Angstroms)
 Number     Number       Type             X           Y           Z
 ---------------------------------------------------------------------
      1          6           0       -4.012671    0.470955    0.537065
      2          6           0       -2.631457    0.862667    0.633538
      3          6           0       -1.721378   -0.102131    0.023111
      4          6           0       -2.258728    2.136851    1.303858
      5          6           0       -4.190831   -0.787822   -0.130947
      6          1           0       -4.839358    1.045802    0.923252
      7         16           0       -2.675590   -1.471966   -0.641822
      8          1           0       -5.146645   -1.255217   -0.315776
      9          6           0       -0.276556   -0.129857   -0.146359
     10         16           0        0.581282    1.062064   -1.169746
     11          6           0        2.128049    0.364196   -0.832687
     12          6           0        2.040463   -0.753915    0.071634
     13          6           0        0.695027   -1.030894    0.477984
     14          1           0        0.450445   -1.719724    1.270990
     15         16           0        3.502144   -1.006000    0.966180
     16          6           0        4.279845    0.356540    0.156554
     17          6           0        3.396319    1.014101   -0.780546
     18          1           0        5.233141    0.752038    0.474704
     19          1           0        3.585826    2.012532   -1.163734
     20          1           0       -3.136117    2.648636    1.705934
     21          1           0       -1.778496    2.817168    0.602185
     22          1           0       -1.582666    1.949057    2.149419
 ---------------------------------------------------------------------
 Rotational constants (GHZ):           1.1966204           0.2608296           0.2444057
 Standard basis: Aug-CC-pVDZ (5D, 7F)
 There are   434 symmetry adapted cartesian basis functions of A   symmetry.
 There are   406 symmetry adapted basis functions of A   symmetry.
   406 basis functions,   804 primitive gaussians,   434 cartesian basis functions
    61 alpha electrons       61 beta electrons
       nuclear repulsion energy      1104.1883937705 Hartrees.
 NAtoms=   22 NActive=   22 NUniq=   22 SFac= 1.00D+00 NAtFMM=   60 NAOKFM=F Big=F
 Integral buffers will be    131072 words long.
 Raffenetti 1 integral format.
 Two-electron integral symmetry is turned on.
 One-electron integrals computed using PRISM.
 NBasis=   406 RedAO= T EigKep=  5.22D-06  NBF=   406
 NBsUse=   406 1.00D-06 EigRej= -1.00D+00 NBFU=   406
 ExpMin= 2.97D-02 ExpMax= 1.11D+05 ExpMxC= 1.07D+03 IAcc=3 IRadAn=         5 AccDes= 0.00D+00
 Harris functional with IExCor=  205 and IRadAn=       5 diagonalized for initial guess.
 HarFok:  IExCor=  205 AccDes= 0.00D+00 IRadAn=         5 IDoV= 1 UseB2=F ITyADJ=14
 ICtDFT=  3500011 ScaDFX=  1.000000  1.000000  1.000000  1.000000
 FoFCou: FMM=F IPFlag=           0 FMFlag=      100000 FMFlg1=           0
         NFxFlg=           0 DoJE=T BraDBF=F KetDBF=T FulRan=T
         wScrn=  0.000000 ICntrl=       500 IOpCl=  0 I1Cent=   200000004 NGrid=           0
         NMat0=    1 NMatS0=      1 NMatT0=    0 NMatD0=    1 NMtDS0=    0 NMtDT0=    0
 Petite list used in FoFCou.
 Requested convergence on RMS density matrix=1.00D-08 within 128 cycles.
 Requested convergence on MAX density matrix=1.00D-06.
 Requested convergence on             energy=1.00D-06.
 No special actions if energy rises.
 SCF Done:  E(RHF) =  -1613.75166514     A.U. after   17 cycles
            NFock= 17  Conv=0.93D-08     -V/T= 2.0010

 **********************************************************************

            Population analysis using the SCF Density.

 **********************************************************************

 Orbital symmetries:
       Occupied  (A) (A) (A) (A) (A) (A) (A) (A) (A) (A) (A) (A)
                 (A) (A) (A) (A) (A) (A) (A) (A) (A) (A) (A) (A)
                 (A) (A) (A) (A) (A) (A) (A) (A) (A) (A) (A) (A)
                 (A) (A) (A) (A) (A) (A) (A) (A) (A) (A) (A) (A)
                 (A) (A) (A) (A) (A) (A) (A) (A) (A) (A) (A) (A)
                 (A)
       Virtual   (A) (A) (A) (A) (A) (A) (A) (A) (A) (A) (A) (A)
                 (A) (A) (A) (A) (A) (A) (A) (A) (A) (A) (A) (A)
                 (A) (A) (A) (A) (A) (A) (A) (A) (A) (A) (A) (A)
                 (A) (A) (A) (A) (A) (A) (A) (A) (A) (A) (A) (A)
                 (A) (A) (A) (A) (A) (A) (A) (A) (A) (A) (A) (A)
                 (A) (A) (A) (A) (A) (A) (A) (A) (A) (A) (A) (A)
                 (A) (A) (A) (A) (A) (A) (A) (A) (A) (A) (A) (A)
                 (A) (A) (A) (A) (A) (A) (A) (A) (A) (A) (A) (A)
                 (A) (A) (A) (A) (A) (A) (A) (A) (A) (A) (A) (A)
                 (A) (A) (A) (A) (A) (A) (A) (A) (A) (A) (A) (A)
                 (A) (A) (A) (A) (A) (A) (A) (A) (A) (A) (A) (A)
                 (A) (A) (A) (A) (A) (A) (A) (A) (A) (A) (A) (A)
                 (A) (A) (A) (A) (A) (A) (A) (A) (A) (A) (A) (A)
                 (A) (A) (A) (A) (A) (A) (A) (A) (A) (A) (A) (A)
                 (A) (A) (A) (A) (A) (A) (A) (A) (A) (A) (A) (A)
                 (A) (A) (A) (A) (A) (A) (A) (A) (A) (A) (A) (A)
                 (A) (A) (A) (A) (A) (A) (A) (A) (A) (A) (A) (A)
                 (A) (A) (A) (A) (A) (A) (A) (A) (A) (A) (A) (A)
                 (A) (A) (A) (A) (A) (A) (A) (A) (A) (A) (A) (A)
                 (A) (A) (A) (A) (A) (A) (A) (A) (A) (A) (A) (A)
                 (A) (A) (A) (A) (A) (A) (A) (A) (A) (A) (A) (A)
                 (A) (A) (A) (A) (A) (A) (A) (A) (A) (A) (A) (A)
                 (A) (A) (A) (A) (A) (A) (A) (A) (A) (A) (A) (A)
                 (A) (A) (A) (A) (A) (A) (A) (A) (A) (A) (A) (A)
                 (A) (A) (A) (A) (A) (A) (A) (A) (A) (A) (A) (A)
                 (A) (A) (A) (A) (A) (A) (A) (A) (A) (A) (A) (A)
                 (A) (A) (A) (A) (A) (A) (A) (A) (A) (A) (A) (A)
                 (A) (A) (A) (A) (A) (A) (A) (A) (A) (A) (A) (A)
                 (A) (A) (A) (A) (A) (A) (A) (A) (A)
 The electronic state is 1-A.
 Alpha  occ. eigenvalues --  -92.00073 -91.99640 -91.99566 -11.30536 -11.29412
 Alpha  occ. eigenvalues --  -11.29078 -11.28767 -11.28589 -11.28481 -11.27584
 Alpha  occ. eigenvalues --  -11.27507 -11.27255 -11.25581 -11.23926  -9.00131
 Alpha  occ. eigenvalues --   -8.99684  -8.99517  -6.68296  -6.68208  -6.68019
 Alpha  occ. eigenvalues --   -6.67848  -6.67752  -6.67670  -6.67571  -6.67566
 Alpha  occ. eigenvalues --   -6.67414  -1.19741  -1.15991  -1.10294  -1.03695
 Alpha  occ. eigenvalues --   -1.03160  -1.00479  -0.94455  -0.93582  -0.90730
 Alpha  occ. eigenvalues --   -0.81997  -0.77422  -0.76109  -0.71550  -0.69719
 Alpha  occ. eigenvalues --   -0.66272  -0.65787  -0.60346  -0.58908  -0.58384
 Alpha  occ. eigenvalues --   -0.56391  -0.55469  -0.54290  -0.53769  -0.52616
 Alpha  occ. eigenvalues --   -0.51422  -0.50703  -0.49012  -0.47253  -0.46473
 Alpha  occ. eigenvalues --   -0.44827  -0.38808  -0.34140  -0.32394  -0.31416
 Alpha  occ. eigenvalues --   -0.27576
 Alpha virt. eigenvalues --    0.03401   0.03541   0.04183   0.04556   0.04832
 Alpha virt. eigenvalues --    0.05487   0.05856   0.06480   0.07371   0.08282
 Alpha virt. eigenvalues --    0.08669   0.08908   0.09583   0.09987   0.10811
 Alpha virt. eigenvalues --    0.11244   0.11652   0.12014   0.12281   0.12667
 Alpha virt. eigenvalues --    0.13121   0.13421   0.13611   0.14048   0.14222
 Alpha virt. eigenvalues --    0.14577   0.14972   0.15354   0.16018   0.16097
 Alpha virt. eigenvalues --    0.16538   0.16967   0.17276   0.17602   0.17812
 Alpha virt. eigenvalues --    0.18344   0.18547   0.19055   0.19466   0.19616
 Alpha virt. eigenvalues --    0.20170   0.20446   0.21185   0.21430   0.21740
 Alpha virt. eigenvalues --    0.21873   0.22561   0.22976   0.23231   0.23770
 Alpha virt. eigenvalues --    0.24230   0.25027   0.25297   0.25840   0.26107
 Alpha virt. eigenvalues --    0.26640   0.26710   0.27752   0.28543   0.29018
 Alpha virt. eigenvalues --    0.29554   0.29877   0.30654   0.30850   0.31001
 Alpha virt. eigenvalues --    0.31497   0.31547   0.32715   0.33171   0.33567
 Alpha virt. eigenvalues --    0.33986   0.34548   0.35057   0.35830   0.36650
 Alpha virt. eigenvalues --    0.37157   0.37966   0.38201   0.38507   0.38787
 Alpha virt. eigenvalues --    0.40216   0.40487   0.40852   0.41554   0.41963
 Alpha virt. eigenvalues --    0.42708   0.43569   0.44524   0.44814   0.44988
 Alpha virt. eigenvalues --    0.45471   0.45830   0.46522   0.46690   0.47791
 Alpha virt. eigenvalues --    0.48217   0.48812   0.49067   0.49426   0.50282
 Alpha virt. eigenvalues --    0.51536   0.51749   0.52400   0.52841   0.53650
 Alpha virt. eigenvalues --    0.54722   0.54904   0.56103   0.56492   0.56758
 Alpha virt. eigenvalues --    0.57626   0.58170   0.58652   0.58885   0.59819
 Alpha virt. eigenvalues --    0.60381   0.60774   0.62127   0.62538   0.63431
 Alpha virt. eigenvalues --    0.64092   0.64562   0.65248   0.65588   0.66077
 Alpha virt. eigenvalues --    0.66541   0.66804   0.67115   0.67975   0.68162
 Alpha virt. eigenvalues --    0.68526   0.68841   0.69513   0.70310   0.70814
 Alpha virt. eigenvalues --    0.70911   0.71508   0.71799   0.72123   0.72954
 Alpha virt. eigenvalues --    0.73802   0.74054   0.74834   0.75095   0.75743
 Alpha virt. eigenvalues --    0.75924   0.76946   0.77639   0.78483   0.78852
 Alpha virt. eigenvalues --    0.79300   0.79929   0.80356   0.81261   0.81477
 Alpha virt. eigenvalues --    0.82174   0.83234   0.84062   0.84931   0.85275
 Alpha virt. eigenvalues --    0.85942   0.87286   0.87721   0.88486   0.89174
 Alpha virt. eigenvalues --    0.89840   0.90711   0.91086   0.92113   0.92892
 Alpha virt. eigenvalues --    0.93361   0.94216   0.94611   0.95398   0.96532
 Alpha virt. eigenvalues --    0.97655   0.98224   0.98967   0.99203   0.99609
 Alpha virt. eigenvalues --    1.00484   1.00803   1.01881   1.02436   1.04250
 Alpha virt. eigenvalues --    1.04617   1.05513   1.06153   1.07776   1.08616
 Alpha virt. eigenvalues --    1.09735   1.10574   1.11827   1.12425   1.13635
 Alpha virt. eigenvalues --    1.14704   1.16360   1.17244   1.18486   1.19105
 Alpha virt. eigenvalues --    1.19983   1.20824   1.21114   1.22869   1.23784
 Alpha virt. eigenvalues --    1.25295   1.25431   1.26146   1.27485   1.27833
 Alpha virt. eigenvalues --    1.28176   1.28716   1.29295   1.30608   1.30765
 Alpha virt. eigenvalues --    1.32019   1.33024   1.33346   1.34558   1.36260
 Alpha virt. eigenvalues --    1.38147   1.38517   1.40648   1.41678   1.42370
 Alpha virt. eigenvalues --    1.43688   1.45891   1.46846   1.46912   1.49789
 Alpha virt. eigenvalues --    1.51218   1.52714   1.54336   1.54838   1.57230
 Alpha virt. eigenvalues --    1.57871   1.58855   1.59209   1.61276   1.61895
 Alpha virt. eigenvalues --    1.62779   1.64537   1.65409   1.66334   1.66937
 Alpha virt. eigenvalues --    1.67871   1.69407   1.69530   1.70920   1.71065
 Alpha virt. eigenvalues --    1.71692   1.73721   1.74675   1.75741   1.77240
 Alpha virt. eigenvalues --    1.78227   1.79224   1.80166   1.80775   1.82519
 Alpha virt. eigenvalues --    1.83480   1.83605   1.85342   1.86248   1.88152
 Alpha virt. eigenvalues --    1.88799   1.89683   1.91084   1.92270   1.94732
 Alpha virt. eigenvalues --    1.94832   1.96499   1.97533   1.98319   1.99283
 Alpha virt. eigenvalues --    2.00572   2.01437   2.03634   2.05975   2.06379
 Alpha virt. eigenvalues --    2.07879   2.08858   2.10453   2.11242   2.12920
 Alpha virt. eigenvalues --    2.13864   2.14444   2.16027   2.17115   2.19147
 Alpha virt. eigenvalues --    2.19268   2.20446   2.22618   2.23300   2.23780
 Alpha virt. eigenvalues --    2.25344   2.25579   2.27116   2.27874   2.30225
 Alpha virt. eigenvalues --    2.31179   2.32527   2.34937   2.35755   2.37471
 Alpha virt. eigenvalues --    2.39276   2.39944   2.41545   2.43857   2.44559
 Alpha virt. eigenvalues --    2.46542   2.48783   2.49879   2.50348   2.52924
 Alpha virt. eigenvalues --    2.54017   2.57615   2.59225   2.60324   2.63762
 Alpha virt. eigenvalues --    2.70341   2.72602   2.73602   2.75551   2.81131
 Alpha virt. eigenvalues --    2.81497   2.84002   2.84429   2.87271   2.89445
 Alpha virt. eigenvalues --    2.93470   2.94511   3.00402   3.03050   3.05395
 Alpha virt. eigenvalues --    3.14050   3.19411   3.21021   3.26279   3.29865
 Alpha virt. eigenvalues --    3.39890   3.60411   3.75194   4.10740   4.20954
          Condensed to atoms (all electrons):
               1          2          3          4          5          6
     1  C    9.374043  -1.744460  -0.496873  -1.042089   0.121650  -0.449246
     2  C   -1.744460   9.736732  -2.186419   0.308526   0.283102   0.336667
     3  C   -0.496873  -2.186419  12.404235  -0.777181  -1.172544   0.037437
     4  C   -1.042089   0.308526  -0.777181   6.135256   0.145846   0.092581
     5  C    0.121650   0.283102  -1.172544   0.145846   6.242334  -0.094597
     6  H   -0.449246   0.336667   0.037437   0.092581  -0.094597   1.717457
     7  S   -0.556524   0.085373  -0.099063   0.119629   0.330519  -0.013957
     8  H   -0.004039   0.072562   0.014247   0.019858   0.227423  -0.080697
     9  C    0.164843  -0.123830  -2.316327   0.076477   0.238741  -0.000338
    10  S   -0.014122   0.152065  -0.272833   0.077207   0.002217   0.000004
    11  C    0.010597   0.027428  -0.109280   0.037815   0.018148   0.001456
    12  C   -0.035070  -0.072386   0.282851   0.040954  -0.015809  -0.001595
    13  C   -0.003115  -0.295693   0.264959  -0.159726  -0.078300   0.000319
    14  H    0.003854   0.064279  -0.034815   0.013861   0.000364  -0.000196
    15  S   -0.000743  -0.001855   0.006656  -0.004664  -0.000080   0.000055
    16  C   -0.001798  -0.005756   0.041486   0.001015   0.000031  -0.000060
    17  C    0.001056   0.023649  -0.205094  -0.009313   0.000288  -0.000023
    18  H   -0.000154  -0.000481   0.002459   0.000204   0.000021  -0.000008
    19  H    0.000719   0.001528  -0.009968  -0.001076  -0.000128   0.000048
    20  H    0.066756   0.036178   0.096949  -0.070967   0.002242  -0.027772
    21  H    0.016946   0.023103  -0.030985   0.312541   0.001378  -0.000191
    22  H    0.000725   0.041898  -0.112531   0.350423   0.008465   0.001988
               7          8          9         10         11         12
     1  C   -0.556524  -0.004039   0.164843  -0.014122   0.010597  -0.035070
     2  C    0.085373   0.072562  -0.123830   0.152065   0.027428  -0.072386
     3  C   -0.099063   0.014247  -2.316327  -0.272833  -0.109280   0.282851
     4  C    0.119629   0.019858   0.076477   0.077207   0.037815   0.040954
     5  C    0.330519   0.227423   0.238741   0.002217   0.018148  -0.015809
     6  H   -0.013957  -0.080697  -0.000338   0.000004   0.001456  -0.001595
     7  S   15.959485  -0.159054  -0.335416  -0.030492  -0.023359   0.043255
     8  H   -0.159054   1.239008  -0.000816   0.000091  -0.000104   0.000325
     9  C   -0.335416  -0.000816  10.566438   0.265431   0.081481  -0.391754
    10  S   -0.030492   0.000091   0.265431  16.034814   0.121680  -0.201353
    11  C   -0.023359  -0.000104   0.081481   0.121680   7.380253   0.191664
    12  C    0.043255   0.000325  -0.391754  -0.201353   0.191664   8.412847
    13  C    0.222254   0.002883  -2.271734  -0.471953  -0.452559  -1.815440
    14  H    0.015212   0.000236   0.159825   0.046982  -0.056787   0.256669
    15  S    0.003954  -0.000033  -0.132706  -0.008177  -0.038834   0.070593
    16  C   -0.000617   0.000013   0.137944  -0.056537   0.113981  -0.276872
    17  C    0.005526  -0.000000  -0.294584  -0.037479  -1.080637   0.118299
    18  H    0.000095   0.000003   0.000009  -0.002399   0.002372  -0.002474
    19  H    0.000110  -0.000017   0.051966  -0.035224   0.218260  -0.021432
    20  H   -0.006999   0.001972  -0.002599  -0.005562  -0.003019   0.001820
    21  H    0.011034   0.000733  -0.006816   0.003929  -0.003037   0.000212
    22  H    0.004816   0.000830   0.008785   0.000482   0.003621  -0.002473
              13         14         15         16         17         18
     1  C   -0.003115   0.003854  -0.000743  -0.001798   0.001056  -0.000154
     2  C   -0.295693   0.064279  -0.001855  -0.005756   0.023649  -0.000481
     3  C    0.264959  -0.034815   0.006656   0.041486  -0.205094   0.002459
     4  C   -0.159726   0.013861  -0.004664   0.001015  -0.009313   0.000204
     5  C   -0.078300   0.000364  -0.000080   0.000031   0.000288   0.000021
     6  H    0.000319  -0.000196   0.000055  -0.000060  -0.000023  -0.000008
     7  S    0.222254   0.015212   0.003954  -0.000617   0.005526   0.000095
     8  H    0.002883   0.000236  -0.000033   0.000013  -0.000000   0.000003
     9  C   -2.271734   0.159825  -0.132706   0.137944  -0.294584   0.000009
    10  S   -0.471953   0.046982  -0.008177  -0.056537  -0.037479  -0.002399
    11  C   -0.452559  -0.056787  -0.038834   0.113981  -1.080637   0.002372
    12  C   -1.815440   0.256669   0.070593  -0.276872   0.118299  -0.002474
    13  C   11.028014  -0.563357  -0.010827  -0.275313   0.548066   0.025569
    14  H   -0.563357   1.620221  -0.063349  -0.001274  -0.010187   0.001232
    15  S   -0.010827  -0.063349  15.683058   0.197285  -0.241738  -0.128496
    16  C   -0.275313  -0.001274   0.197285   5.814906   0.162696   0.233514
    17  C    0.548066  -0.010187  -0.241738   0.162696   6.629195   0.022520
    18  H    0.025569   0.001232  -0.128496   0.233514   0.022520   1.245122
    19  H   -0.018065  -0.000477   0.005915  -0.054418  -0.143703  -0.058291
    20  H    0.015264   0.000287  -0.000355   0.000063  -0.000590   0.000008
    21  H   -0.016812   0.000644  -0.000340  -0.000275   0.002744   0.000036
    22  H    0.001538   0.001888   0.001496   0.000370   0.000952   0.000067
              19         20         21         22
     1  C    0.000719   0.066756   0.016946   0.000725
     2  C    0.001528   0.036178   0.023103   0.041898
     3  C   -0.009968   0.096949  -0.030985  -0.112531
     4  C   -0.001076  -0.070967   0.312541   0.350423
     5  C   -0.000128   0.002242   0.001378   0.008465
     6  H    0.000048  -0.027772  -0.000191   0.001988
     7  S    0.000110  -0.006999   0.011034   0.004816
     8  H   -0.000017   0.001972   0.000733   0.000830
     9  C    0.051966  -0.002599  -0.006816   0.008785
    10  S   -0.035224  -0.005562   0.003929   0.000482
    11  C    0.218260  -0.003019  -0.003037   0.003621
    12  C   -0.021432   0.001820   0.000212  -0.002473
    13  C   -0.018065   0.015264  -0.016812   0.001538
    14  H   -0.000477   0.000287   0.000644   0.001888
    15  S    0.005915  -0.000355  -0.000340   0.001496
    16  C   -0.054418   0.000063  -0.000275   0.000370
    17  C   -0.143703  -0.000590   0.002744   0.000952
    18  H   -0.058291   0.000008   0.000036   0.000067
    19  H    1.390078  -0.000060   0.000223  -0.000113
    20  H   -0.000060   1.327896  -0.096867  -0.099354
    21  H    0.000223  -0.096867   0.818165  -0.126247
    22  H   -0.000113  -0.099354  -0.126247   0.780919
 Mulliken charges:
               1
     1  C    0.587045
     2  C   -0.762211
     3  C    0.672632
     4  C    0.332823
     5  C   -0.261311
     6  H   -0.519331
     7  S    0.424220
     8  H   -0.335423
     9  C    0.124979
    10  S    0.431230
    11  C   -0.441139
    12  C   -0.582830
    13  C    0.324027
    14  H   -0.455112
    15  S    0.663185
    16  C   -0.030386
    17  C    0.508356
    18  H   -0.340925
    19  H   -0.325873
    20  H   -0.235291
    21  H    0.089882
    22  H    0.131454
 Sum of Mulliken charges =  -0.00000
 Mulliken charges with hydrogens summed into heavy atoms:
               1
     1  C    0.067714
     2  C   -0.762211
     3  C    0.672632
     4  C    0.318867
     5  C   -0.596734
     7  S    0.424220
     9  C    0.124979
    10  S    0.431230
    11  C   -0.441139
    12  C   -0.582830
    13  C   -0.131085
    15  S    0.663185
    16  C   -0.371311
    17  C    0.182484
 Electronic spatial extent (au):  <R**2>=           4438.2783
 Charge=             -0.0000 electrons
 Dipole moment (field-independent basis, Debye):
    X=             -0.6542    Y=              1.7352    Z=              1.5833  Tot=              2.4383
 Quadrupole moment (field-independent basis, Debye-Ang):
   XX=            -89.2880   YY=           -101.8777   ZZ=           -108.3566
   XY=              3.6172   XZ=             -0.3664   YZ=             -0.6848
 Traceless Quadrupole moment (field-independent basis, Debye-Ang):
   XX=             10.5528   YY=             -2.0370   ZZ=             -8.5158
   XY=              3.6172   XZ=             -0.3664   YZ=             -0.6848
 Octapole moment (field-independent basis, Debye-Ang**2):
  XXX=            -26.3909  YYY=             10.2262  ZZZ=              7.5867  XYY=             -4.9544
  XXY=             26.4924  XXZ=             17.0698  XZZ=              1.2276  YZZ=              3.0057
  YYZ=              1.9621  XYZ=            -17.1632
 Hexadecapole moment (field-independent basis, Debye-Ang**3):
 XXXX=          -4328.0505 YYYY=           -874.9010 ZZZZ=           -543.5237 XXXY=            157.8530
 XXXZ=             71.6593 YYYX=             12.0137 YYYZ=             -9.2925 ZZZX=              9.6487
 ZZZY=             -2.1902 XXYY=           -926.3917 XXZZ=           -953.4807 YYZZ=           -224.2345
 XXYZ=             30.5391 YYXZ=            -11.2141 ZZXY=             -6.1952
 N-N= 1.104188393771D+03 E-N=-6.026878561663D+03  KE= 1.612215521123D+03
 Calling FoFJK, ICntrl=      2127 FMM=F ISym2X=0 I1Cent= 0 IOpClX= 0 NMat=1 NMatS=1 NMatT=0.
 ***** Axes restored to original set *****
 -------------------------------------------------------------------
 Center     Atomic                   Forces (Hartrees/Bohr)
 Number     Number              X              Y              Z
 -------------------------------------------------------------------
      1        6           0.017413691   -0.076246534    0.012118203
      2        6           0.028925989   -0.064118367    0.003851882
      3        6          -0.072871659    0.026609132    0.013092046
      4        6           0.010611970    0.014077419    0.000131579
      5        6           0.014408647    0.063546440   -0.017736388
      6        1           0.001176907    0.000508241   -0.000208349
      7       16          -0.007153293    0.032366907   -0.004619235
      8        1           0.004514828   -0.002895797    0.000496249
      9        6           0.081421977   -0.003082878    0.035375485
     10       16          -0.007809665   -0.014516852    0.017436382
     11        6           0.013322761    0.007784319    0.052359598
     12        6          -0.029733904    0.021687993   -0.042755964
     13        6          -0.056420597    0.013536560   -0.054677720
     14        1          -0.005716652   -0.005420756   -0.000936694
     15       16           0.008569678   -0.002152380   -0.023421197
     16        6          -0.064202751   -0.004142186   -0.045761187
     17        6           0.054211589    0.014673060    0.056936650
     18        1           0.002106688   -0.007913161    0.002579245
     19        1           0.005123267   -0.010643169    0.001305899
     20        1           0.000899771   -0.004159977    0.000142688
     21        1           0.002922107    0.002282748    0.000689977
     22        1          -0.001721351   -0.001780758   -0.006399150
 -------------------------------------------------------------------
 Cartesian Forces:  Max     0.081421977 RMS     0.029653494

 GradGradGradGradGradGradGradGradGradGradGradGradGradGradGradGradGradGrad
 Berny optimization.
 FormGI is forming the generalized inverse of G from B-inverse, IUseBI=4.
 Internal  Forces:  Max     0.089012075 RMS     0.017183259
 Search for a local minimum.
 Step number   1 out of a maximum of  127
 All quantities printed in internal units (Hartrees-Bohrs-Radians)
 Mixed Optimization -- RFO/linear search
 Second derivative matrix not updated -- first step.
 ITU=  0
     Eigenvalues ---    0.00935   0.00982   0.01056   0.01214   0.01241
     Eigenvalues ---    0.01274   0.01294   0.01415   0.01457   0.01492
     Eigenvalues ---    0.01498   0.01592   0.01593   0.01762   0.02202
     Eigenvalues ---    0.02656   0.07307   0.07353   0.15084   0.15687
     Eigenvalues ---    0.15737   0.15997   0.16000   0.16000   0.16000
     Eigenvalues ---    0.16000   0.17989   0.22443   0.22545   0.23318
     Eigenvalues ---    0.23975   0.24718   0.24978   0.24995   0.25000
     Eigenvalues ---    0.26147   0.26576   0.28365   0.30920   0.31333
     Eigenvalues ---    0.31569   0.33757   0.33818   0.34533   0.34804
     Eigenvalues ---    0.34935   0.35267   0.35877   0.35994   0.36006
     Eigenvalues ---    0.36176   0.36185   0.36286   0.37598   0.38191
     Eigenvalues ---    0.38438   0.39458   0.39713   0.406251000.00000
     Eigenvalues --- 1000.000001000.000001000.000001000.000001000.00000
     Eigenvalues --- 1000.000001000.000001000.000001000.000001000.00000
     Eigenvalues --- 1000.000001000.000001000.000001000.000001000.00000
     Eigenvalues --- 1000.000001000.000001000.000001000.000001000.00000
     Eigenvalues --- 1000.000001000.000001000.000001000.000001000.00000
     Eigenvalues --- 1000.000001000.000001000.000001000.000001000.00000
     Eigenvalues --- 1000.000001000.000001000.000001000.000001000.00000
     Eigenvalues --- 1000.000001000.000001000.000001000.000001000.00000
     Eigenvalues --- 1000.000001000.000001000.000001000.000001000.00000
     Eigenvalues --- 1000.000001000.000001000.000001000.000001000.00000
     Eigenvalues --- 1000.000001000.000001000.000001000.000001000.00000
     Eigenvalues --- 1000.000001000.00000
 RFO step:  Lambda=-8.30198586D-02 EMin= 9.35106172D-03
 Linear search not attempted -- first point.
 Maximum step size (   0.300) exceeded in Quadratic search.
    -- Step size scaled by   0.715
 Iteration  1 RMS(Cart)=  0.06014967 RMS(Int)=  0.00103875
 Iteration  2 RMS(Cart)=  0.00161546 RMS(Int)=  0.00034514
 Iteration  3 RMS(Cart)=  0.00000133 RMS(Int)=  0.00034514
 Iteration  4 RMS(Cart)=  0.00000000 RMS(Int)=  0.00034514
 Iteration  1 RMS(Cart)=  0.00000039 RMS(Int)=  0.00000016
 Variable       Old X    -DE/DX   Delta X   Delta X   Delta X     New X
                                 (Linear)    (Quad)   (Total)
    R1        2.71917  -0.01260   0.00000  -0.02056  -0.02051   2.69866
    R2        2.71391  -0.07084   0.00000  -0.10555  -0.10560   2.60831
    R3        2.03793  -0.00063   0.00000  -0.00101  -0.00101   2.03692
    R4        2.75906  -0.08218   0.00000  -0.13025  -0.13016   2.62891
    R5        2.81042   0.01354   0.00000   0.02300   0.02300   2.83343
    R6        3.39578  -0.02887   0.00000  -0.05741  -0.05740   3.33838
    R7        2.74954   0.00068   0.00000   0.00106   0.00106   2.75060
    R8        2.06439  -0.00308   0.00000  -0.00513  -0.00513   2.05926
    R9        2.05781   0.00036   0.00000   0.00060   0.00060   2.05840
   R10        2.07638  -0.00569   0.00000  -0.00965  -0.00965   2.06672
   R11        3.28671  -0.02444   0.00000  -0.04253  -0.04262   3.24409
   R12        2.04073  -0.00225   0.00000  -0.00363  -0.00363   2.03709
   R13        3.38250  -0.01901   0.00000  -0.03537  -0.03572   3.34678
   R14        2.76807  -0.08901   0.00000  -0.14242  -0.14259   2.62549
   R15        3.26934  -0.00500   0.00000  -0.00764  -0.00761   3.26173
   R16        2.72254  -0.05471   0.00000  -0.08476  -0.08409   2.63846
   R17        2.69483   0.00266   0.00000   0.00171   0.00205   2.69688
   R18        2.70702  -0.00788   0.00000  -0.01377  -0.01354   2.69347
   R19        3.27325  -0.00273   0.00000  -0.00326  -0.00336   3.26989
   R20        2.03807  -0.00043   0.00000  -0.00069  -0.00069   2.03738
   R21        3.33623  -0.01827   0.00000  -0.03265  -0.03304   3.30318
   R22        2.73270  -0.08119   0.00000  -0.12382  -0.12388   2.60882
   R23        2.04091  -0.00255   0.00000  -0.00411  -0.00411   2.03680
   R24        2.05243  -0.00624   0.00000  -0.01024  -0.01024   2.04218
    A1        1.97020   0.00770   0.00000   0.01341   0.01341   1.98361
    A2        2.17330  -0.00500   0.00000  -0.01007  -0.01007   2.16323
    A3        2.13967  -0.00271   0.00000  -0.00334  -0.00334   2.13634
    A4        1.97187  -0.00205   0.00000  -0.00796  -0.00781   1.96406
    A5        2.09905   0.01306   0.00000   0.02982   0.02974   2.12879
    A6        2.21227  -0.01101   0.00000  -0.02186  -0.02193   2.19033
    A7        1.90440   0.00657   0.00000   0.01525   0.01537   1.91977
    A8        2.31891  -0.01398   0.00000  -0.03060  -0.03066   2.28825
    A9        2.05972   0.00742   0.00000   0.01534   0.01528   2.07500
   A10        1.94548  -0.00452   0.00000  -0.01248  -0.01245   1.93303
   A11        1.93409   0.00356   0.00000   0.01000   0.01002   1.94411
   A12        1.93331   0.00211   0.00000   0.00589   0.00590   1.93921
   A13        1.87410   0.00095   0.00000   0.00341   0.00345   1.87754
   A14        1.86607   0.00195   0.00000   0.00667   0.00669   1.87276
   A15        1.90848  -0.00423   0.00000  -0.01395  -0.01395   1.89452
   A16        1.95339  -0.00376   0.00000  -0.00916  -0.00930   1.94409
   A17        2.17580   0.00679   0.00000   0.01903   0.01910   2.19490
   A18        2.15384  -0.00302   0.00000  -0.00982  -0.00975   2.14409
   A19        1.62490  -0.00846   0.00000  -0.01153  -0.01167   1.61323
   A20        2.12917  -0.00255   0.00000  -0.00522  -0.00528   2.12389
   A21        2.24047  -0.00469   0.00000  -0.00984  -0.00990   2.23057
   A22        1.91285   0.00734   0.00000   0.01573   0.01570   1.92855
   A23        1.61930  -0.00684   0.00000  -0.01086  -0.01070   1.60859
   A24        1.96167  -0.01235   0.00000  -0.02239  -0.02311   1.93856
   A25        2.23753   0.01002   0.00000   0.03559   0.03445   2.27198
   A26        1.96580   0.00680   0.00000   0.01420   0.01435   1.98015
   A27        1.96624   0.00857   0.00000   0.01670   0.01683   1.98306
   A28        1.96689  -0.01441   0.00000  -0.02667  -0.02710   1.93979
   A29        2.23692   0.00983   0.00000   0.03375   0.03265   2.26956
   A30        1.96398   0.00334   0.00000   0.00116   0.00155   1.96553
   A31        2.16019  -0.00621   0.00000  -0.01258  -0.01304   2.14715
   A32        2.14727   0.00358   0.00000   0.01642   0.01597   2.16323
   A33        1.59337   0.00036   0.00000   0.00331   0.00336   1.59673
   A34        1.95949   0.00081   0.00000   0.00064   0.00048   1.95997
   A35        2.13692  -0.00391   0.00000  -0.00826  -0.00881   2.12810
   A36        2.16963   0.00439   0.00000   0.01666   0.01619   2.18581
   A37        1.93889   0.00644   0.00000   0.00852   0.00891   1.94781
   A38        2.16667  -0.00026   0.00000   0.00900   0.00803   2.17470
   A39        2.14128  -0.00396   0.00000  -0.00238  -0.00336   2.13792
    D1        0.00683  -0.00026   0.00000  -0.00267  -0.00267   0.00417
    D2       -3.13456   0.00016   0.00000   0.00046   0.00051  -3.13405
    D3       -3.13952  -0.00042   0.00000  -0.00353  -0.00356   3.14011
    D4        0.00227  -0.00000   0.00000  -0.00040  -0.00038   0.00189
    D5       -0.00671  -0.00004   0.00000  -0.00047  -0.00047  -0.00718
    D6       -3.13020  -0.00044   0.00000  -0.00322  -0.00327  -3.13346
    D7        3.13954   0.00013   0.00000   0.00040   0.00042   3.13996
    D8        0.01605  -0.00028   0.00000  -0.00235  -0.00237   0.01368
    D9       -0.00388   0.00052   0.00000   0.00458   0.00458   0.00070
   D10        3.11762   0.00084   0.00000   0.00441   0.00438   3.12200
   D11        3.13750   0.00007   0.00000   0.00122   0.00127   3.13878
   D12       -0.02418   0.00039   0.00000   0.00104   0.00108  -0.02310
   D13        0.03777  -0.00021   0.00000  -0.00125  -0.00126   0.03651
   D14       -2.04840  -0.00081   0.00000  -0.00399  -0.00398  -2.05238
   D15        2.11332   0.00070   0.00000   0.00289   0.00287   2.11619
   D16       -3.10360   0.00027   0.00000   0.00234   0.00235  -3.10125
   D17        1.09342  -0.00033   0.00000  -0.00040  -0.00038   1.09304
   D18       -1.02805   0.00117   0.00000   0.00648   0.00648  -1.02158
   D19        0.00006  -0.00041   0.00000  -0.00404  -0.00407  -0.00401
   D20       -3.12486  -0.00039   0.00000  -0.00328  -0.00329  -3.12815
   D21       -1.13456  -0.00078   0.00000   0.00000   0.00000  -1.13456
   D22        1.96264   0.00259   0.00000   0.02184   0.02186   1.98450
   D23        1.98553  -0.00047   0.00000  -0.00025  -0.00027   1.98526
   D24       -1.20045   0.00290   0.00000   0.02159   0.02159  -1.17886
   D25        0.00376   0.00029   0.00000   0.00267   0.00262   0.00638
   D26        3.12751   0.00081   0.00000   0.00574   0.00567   3.13318
   D27        3.13783   0.00112   0.00000   0.00820   0.00825  -3.13711
   D28        0.03317  -0.00145   0.00000  -0.00948  -0.00968   0.02349
   D29       -3.13882  -0.00230   0.00000  -0.01421  -0.01405   3.13032
   D30       -0.15727   0.00292   0.00000   0.02129   0.02119  -0.13608
   D31       -0.03718   0.00057   0.00000   0.00510   0.00544  -0.03174
   D32        2.94436   0.00578   0.00000   0.04060   0.04068   2.98504
   D33       -0.02137   0.00248   0.00000   0.01256   0.01239  -0.00898
   D34       -2.61561  -0.00797   0.00000  -0.04725  -0.04753  -2.66314
   D35        0.00330  -0.00210   0.00000  -0.01103  -0.01085  -0.00756
   D36       -2.68813  -0.01231   0.00000  -0.06446  -0.06314  -2.75127
   D37        2.68584   0.00887   0.00000   0.04839   0.04747   2.73331
   D38       -0.00559  -0.00134   0.00000  -0.00503  -0.00481  -0.01041
   D39        2.61368   0.00673   0.00000   0.05410   0.05509   2.66877
   D40       -0.24721  -0.00108   0.00000  -0.00249  -0.00201  -0.24922
   D41        0.02049   0.00109   0.00000   0.00340   0.00325   0.02374
   D42       -2.84041  -0.00672   0.00000  -0.05320  -0.05385  -2.89426
   D43        0.02248   0.00106   0.00000   0.00367   0.00352   0.02600
   D44       -2.96043  -0.00306   0.00000  -0.02847  -0.02901  -2.98944
   D45        2.62823   0.00544   0.00000   0.04694   0.04780   2.67602
   D46       -0.35469   0.00132   0.00000   0.01480   0.01527  -0.33942
   D47       -0.00833   0.00133   0.00000   0.00459   0.00451  -0.00382
   D48       -2.61391  -0.00876   0.00000  -0.04946  -0.04937  -2.66328
   D49        0.02008  -0.00057   0.00000  -0.00245  -0.00252   0.01756
   D50        2.97146   0.00702   0.00000   0.04913   0.04869   3.02016
   D51       -0.02666  -0.00001   0.00000   0.00021   0.00041  -0.02625
   D52        2.83902   0.00833   0.00000   0.05794   0.05820   2.89722
   D53       -2.97385  -0.00670   0.00000  -0.04927  -0.04953  -3.02338
   D54       -0.10816   0.00164   0.00000   0.00847   0.00825  -0.09991
         Item               Value     Threshold  Converged?
 Maximum Force            0.089011     0.000450     NO 
 RMS     Force            0.017257     0.000300     NO 
 Maximum Displacement     0.199228     0.001800     NO 
 RMS     Displacement     0.060469     0.001200     NO 
 Predicted change in Energy=-4.321312D-02
 GradGradGradGradGradGradGradGradGradGradGradGradGradGradGradGradGradGrad

                          Input orientation:                          
 ---------------------------------------------------------------------
 Center     Atomic      Atomic             Coordinates (Angstroms)
 Number     Number       Type             X           Y           Z
 ---------------------------------------------------------------------
      1          6           0       -4.208217   -1.406787   -0.205911
      2          6           0       -2.899661   -0.996674   -0.604496
      3          6           0       -1.988196   -2.047649   -0.603523
      4          6           0       -2.589924    0.424048   -0.970240
      5          6           0       -4.298233   -2.749472    0.101020
      6          1           0       -5.053768   -0.741461   -0.140883
      7         16           0       -2.788342   -3.540692   -0.102076
      8          1           0       -5.190985   -3.265262    0.415669
      9          6           0       -0.576357   -2.090285   -0.954988
     10         16           0       -0.019401   -1.783395   -2.607922
     11          6           0        1.631738   -2.023522   -2.166034
     12          6           0        1.750065   -2.314731   -0.805666
     13          6           0        0.503255   -2.334470   -0.115284
     14          1           0        0.409573   -2.406532    0.956355
     15         16           0        3.338327   -1.948402   -0.224862
     16          6           0        3.843363   -1.411197   -1.809710
     17          6           0        2.825027   -1.489656   -2.738526
     18          1           0        4.802271   -0.947943   -1.975855
     19          1           0        2.878939   -1.002514   -3.701672
     20          1           0       -3.470266    1.054730   -0.848961
     21          1           0       -2.267002    0.505921   -2.007307
     22          1           0       -1.805207    0.833944   -0.328130
 ---------------------------------------------------------------------
                    Distance matrix (angstroms):
                    1          2          3          4          5
     1  C    0.000000
     2  C    1.428069   0.000000
     3  C    2.344630   1.391157   0.000000
     4  C    2.560279   1.499386   2.570184   0.000000
     5  C    1.380258   2.350756   2.514997   3.759940   0.000000
     6  H    1.077889   2.218163   3.364208   2.848995   2.159041
     7  S    2.565224   2.595543   1.766596   4.063526   1.716697
     8  H    2.192288   3.381922   3.574800   4.721999   1.077984
     9  C    3.770768   2.591635   1.455553   3.221266   3.924543
    10  S    4.843311   3.595628   2.821985   3.763295   5.155586
    11  C    6.190922   4.901672   3.942834   5.024237   6.389921
    12  C    6.056829   4.837116   3.753236   5.134539   6.131312
    13  C    4.802788   3.689019   2.554989   4.231799   4.824241
    14  H    4.865628   3.921095   2.882934   4.552025   4.797150
    15  S    7.565979   6.321583   5.340888   6.428707   7.685374
    16  C    8.209758   6.862415   5.988910   6.742404   8.469206
    17  C    7.475796   6.129369   5.294970   6.009226   7.771164
    18  H    9.194135   7.823219   7.014491   7.585391   9.506739
    19  H    7.912746   6.556275   5.863432   6.277281   8.308076
    20  H    2.648991   2.143272   3.446960   1.089711   4.007486
    21  H    3.266771   2.150797   2.927296   1.089261   4.378187
    22  H    3.287897   2.150667   2.900500   1.093664   4.386367
                    6          7          8          9         10
     6  H    0.000000
     7  S    3.601299   0.000000
     8  H    2.588078   2.473179   0.000000
     9  C    4.746504   2.779211   4.955206   0.000000
    10  S    5.702347   4.127274   6.171168   1.771037   0.000000
    11  C    7.102176   5.108702   7.399774   2.519280   1.726032
    12  C    7.014931   4.753436   7.111494   2.341989   2.580980
    13  C    5.780903   3.505675   5.794191   1.389349   2.605782
    14  H    5.815882   3.554329   5.691749   2.173776   3.643678
    15  S    8.478858   6.331393   8.654107   3.984717   4.120746
    16  C    9.077030   7.171491   9.487324   4.552542   3.961896
    17  C    8.329644   6.532039   8.795350   3.887310   2.862536
    18  H   10.027525   8.237160  10.533495   5.592562   4.934168
    19  H    8.699150   7.177570   9.337890   4.546052   3.194752
    20  H    2.497030   4.705397   4.818973   4.275169   4.801808
    21  H    3.578487   4.502974   5.351851   3.271993   3.263956
    22  H    3.615261   4.489442   5.368446   3.233286   3.903462
                   11         12         13         14         15
    11  C    0.000000
    12  C    1.396211   0.000000
    13  C    2.361301   1.425325   0.000000
    14  H    3.374863   2.215866   1.078137   0.000000
    15  S    2.585777   1.730349   2.863336   3.191044   0.000000
    16  C    2.322325   2.491260   3.857440   4.520257   1.747969
    17  C    1.427130   2.360560   3.603573   4.508573   2.606230
    18  H    3.353404   3.543080   4.885256   5.479154   2.491993
    19  H    2.226242   3.373888   4.503350   5.455845   3.632348
    20  H    6.102521   6.213452   5.273882   5.503876   7.467613
    21  H    4.650102   5.053399   4.395667   4.942643   6.373423
    22  H    4.832763   4.773065   3.925958   4.129871   5.848765
                   16         17         18         19         20
    16  C    0.000000
    17  C    1.380530   0.000000
    18  H    1.077828   2.187376   0.000000
    19  H    2.162557   1.080677   2.584691   0.000000
    20  H    7.777725   7.048054   8.585770   7.258279   0.000000
    21  H    6.407101   5.517768   7.217293   5.623785   1.758067
    22  H    6.256363   5.713860   7.039096   6.057606   1.758532
                   21         22
    21  H    0.000000
    22  H    1.772142   0.000000
 Stoichiometry    C11H8S3
 Framework group  C1[X(C11H8S3)]
 Deg. of freedom    60
 Full point group                 C1      NOp   1
 Largest Abelian subgroup         C1      NOp   1
 Largest concise Abelian subgroup C1      NOp   1
                         Standard orientation:                         
 ---------------------------------------------------------------------
 Center     Atomic      Atomic             Coordinates (Angstroms)
 Number     Number       Type             X           Y           Z
 ---------------------------------------------------------------------
      1          6           0       -3.951798    0.451482    0.517159
      2          6           0       -2.577649    0.827964    0.613893
      3          6           0       -1.727183   -0.103152    0.026485
      4          6           0       -2.147500    2.095985    1.288616
      5          6           0       -4.152183   -0.751477   -0.129251
      6          1           0       -4.765713    1.037930    0.911450
      7         16           0       -2.666386   -1.441693   -0.642142
      8          1           0       -5.107423   -1.214929   -0.315745
      9          6           0       -0.279466   -0.115808   -0.123821
     10         16           0        0.563251    1.083743   -1.117540
     11          6           0        2.103012    0.384442   -0.772140
     12          6           0        1.975481   -0.714955    0.079016
     13          6           0        0.629888   -0.987909    0.461674
     14          1           0        0.352421   -1.707424    1.215126
     15         16           0        3.456678   -1.031683    0.915586
     16          6           0        4.246945    0.307482    0.117144
     17          6           0        3.398723    0.981678   -0.738334
     18          1           0        5.239752    0.627492    0.388509
     19          1           0        3.637042    1.954083   -1.145147
     20          1           0       -3.006759    2.625471    1.699456
     21          1           0       -1.649791    2.768189    0.590821
     22          1           0       -1.465846    1.888934    2.118422
 ---------------------------------------------------------------------
 Rotational constants (GHZ):           1.2495074           0.2681002           0.2503702
 Standard basis: Aug-CC-pVDZ (5D, 7F)
 There are   434 symmetry adapted cartesian basis functions of A   symmetry.
 There are   406 symmetry adapted basis functions of A   symmetry.
   406 basis functions,   804 primitive gaussians,   434 cartesian basis functions
    61 alpha electrons       61 beta electrons
       nuclear repulsion energy      1120.7837338219 Hartrees.
 NAtoms=   22 NActive=   22 NUniq=   22 SFac= 1.00D+00 NAtFMM=   60 NAOKFM=F Big=F
 Integral buffers will be    131072 words long.
 Raffenetti 1 integral format.
 Two-electron integral symmetry is turned on.
 One-electron integrals computed using PRISM.
 NBasis=   406 RedAO= T EigKep=  4.18D-06  NBF=   406
 NBsUse=   406 1.00D-06 EigRej= -1.00D+00 NBFU=   406
 Initial guess from the checkpoint file:  "/tmp/pbs.4762177[110].pbs/Gau-1413059.chk"
 B after Tr=    -0.000000   -0.000000   -0.000000
         Rot=    0.999966   -0.007416   -0.001060    0.003400 Ang=  -0.94 deg.
 ExpMin= 2.97D-02 ExpMax= 1.11D+05 ExpMxC= 1.07D+03 IAcc=3 IRadAn=         5 AccDes= 0.00D+00
 Harris functional with IExCor=  205 and IRadAn=       5 diagonalized for initial guess.
 HarFok:  IExCor=  205 AccDes= 0.00D+00 IRadAn=         5 IDoV= 1 UseB2=F ITyADJ=14
 ICtDFT=  3500011 ScaDFX=  1.000000  1.000000  1.000000  1.000000
 FoFCou: FMM=F IPFlag=           0 FMFlag=      100000 FMFlg1=           0
         NFxFlg=           0 DoJE=T BraDBF=F KetDBF=T FulRan=T
         wScrn=  0.000000 ICntrl=       500 IOpCl=  0 I1Cent=   200000004 NGrid=           0
         NMat0=    1 NMatS0=      1 NMatT0=    0 NMatD0=    1 NMtDS0=    0 NMtDT0=    0
 Petite list used in FoFCou.
 Requested convergence on RMS density matrix=1.00D-08 within 128 cycles.
 Requested convergence on MAX density matrix=1.00D-06.
 Requested convergence on             energy=1.00D-06.
 No special actions if energy rises.
 SCF Done:  E(RHF) =  -1613.79461298     A.U. after   15 cycles
            NFock= 15  Conv=0.76D-08     -V/T= 2.0003
 Calling FoFJK, ICntrl=      2127 FMM=F ISym2X=0 I1Cent= 0 IOpClX= 0 NMat=1 NMatS=1 NMatT=0.
 ***** Axes restored to original set *****
 -------------------------------------------------------------------
 Center     Atomic                   Forces (Hartrees/Bohr)
 Number     Number              X              Y              Z
 -------------------------------------------------------------------
      1        6          -0.002250297   -0.031803330    0.007892332
      2        6           0.019586209   -0.021433630   -0.001997789
      3        6          -0.038171847    0.005579712    0.007205198
      4        6           0.003821185    0.007449810    0.000166240
      5        6           0.001781793    0.029425380   -0.007630333
      6        1           0.000317364    0.001575703   -0.000306725
      7       16           0.003508870    0.008291096   -0.002165337
      8        1           0.002735846   -0.002364928    0.000584996
      9        6           0.041751022    0.000693184    0.013048162
     10       16          -0.009905324   -0.009470210    0.001814613
     11        6           0.002569970    0.006982105    0.028456312
     12        6          -0.006471071    0.016699716   -0.023537792
     13        6          -0.028862132    0.004090268   -0.017915869
     14        1          -0.002342881   -0.005064834   -0.000492166
     15       16           0.010175177   -0.005015414   -0.004056161
     16        6          -0.028515201    0.000798296   -0.019525317
     17        6           0.025014721    0.009652222    0.020345816
     18        1           0.002151461   -0.005632869    0.002325915
     19        1           0.002162470   -0.008322119   -0.001974498
     20        1           0.000008199   -0.001596248    0.000049658
     21        1           0.001300181    0.000776216    0.000764037
     22        1          -0.000365717   -0.001310127   -0.003051292
 -------------------------------------------------------------------
 Cartesian Forces:  Max     0.041751022 RMS     0.013607784

 GradGradGradGradGradGradGradGradGradGradGradGradGradGradGradGradGradGrad
 Berny optimization.
 Using GEDIIS/GDIIS optimizer.
 FormGI is forming the generalized inverse of G from B-inverse, IUseBI=4.
 Internal  Forces:  Max     0.035176761 RMS     0.006945432
 Search for a local minimum.
 Step number   2 out of a maximum of  127
 All quantities printed in internal units (Hartrees-Bohrs-Radians)
 Mixed Optimization -- RFO/linear search
 Update second derivatives using D2CorX and points    1    2
 DE= -4.29D-02 DEPred=-4.32D-02 R= 9.94D-01
 TightC=F SS=  1.41D+00  RLast= 3.49D-01 DXNew= 5.0454D-01 1.0482D+00
 Trust test= 9.94D-01 RLast= 3.49D-01 DXMaxT set to 5.05D-01
 ITU=  1  0
 Use linear search instead of GDIIS.
     Eigenvalues ---    0.00935   0.00981   0.01049   0.01209   0.01240
     Eigenvalues ---    0.01268   0.01290   0.01379   0.01461   0.01480
     Eigenvalues ---    0.01499   0.01586   0.01592   0.01709   0.02057
     Eigenvalues ---    0.02381   0.07251   0.07381   0.15431   0.15779
     Eigenvalues ---    0.15838   0.15967   0.15999   0.16000   0.16000
     Eigenvalues ---    0.16022   0.18656   0.22458   0.22529   0.23420
     Eigenvalues ---    0.24149   0.24623   0.24943   0.24995   0.25091
     Eigenvalues ---    0.26102   0.26572   0.28414   0.30535   0.31118
     Eigenvalues ---    0.31454   0.33704   0.33816   0.34534   0.34870
     Eigenvalues ---    0.34941   0.35272   0.35833   0.35993   0.36006
     Eigenvalues ---    0.36077   0.36176   0.36215   0.36952   0.38096
     Eigenvalues ---    0.38809   0.39492   0.40402   0.448171000.00000
     Eigenvalues --- 1000.000001000.000001000.000001000.000001000.00000
     Eigenvalues --- 1000.000001000.000001000.000001000.000001000.00000
     Eigenvalues --- 1000.000001000.000001000.000001000.000001000.00000
     Eigenvalues --- 1000.000001000.000001000.000001000.000001000.00000
     Eigenvalues --- 1000.000001000.000001000.000001000.000001000.00000
     Eigenvalues --- 1000.000001000.000001000.000001000.000001000.00000
     Eigenvalues --- 1000.000001000.000001000.000001000.000001000.00000
     Eigenvalues --- 1000.000001000.000001000.000001000.000001000.00000
     Eigenvalues --- 1000.000001000.000001000.000001000.000001000.00000
     Eigenvalues --- 1000.000001000.000001000.000001000.000001000.00000
     Eigenvalues --- 1000.000001000.000001000.000001000.000001000.00000
     Eigenvalues --- 1000.000001000.00000
 RFO step:  Lambda=-8.41549093D-03 EMin= 9.35086318D-03
 Quartic linear search produced a step of  0.55038.
 Iteration  1 RMS(Cart)=  0.07905986 RMS(Int)=  0.00607432
 Iteration  2 RMS(Cart)=  0.00789182 RMS(Int)=  0.00223912
 Iteration  3 RMS(Cart)=  0.00003653 RMS(Int)=  0.00223890
 Iteration  4 RMS(Cart)=  0.00000002 RMS(Int)=  0.00223890
 Iteration  1 RMS(Cart)=  0.00000610 RMS(Int)=  0.00000252
 Iteration  2 RMS(Cart)=  0.00000335 RMS(Int)=  0.00000281
 Iteration  3 RMS(Cart)=  0.00000184 RMS(Int)=  0.00000318
 Iteration  4 RMS(Cart)=  0.00000101 RMS(Int)=  0.00000342
 Iteration  5 RMS(Cart)=  0.00000055 RMS(Int)=  0.00000357
 Variable       Old X    -DE/DX   Delta X   Delta X   Delta X     New X
                                 (Linear)    (Quad)   (Total)
    R1        2.69866   0.00281  -0.01129   0.02926   0.01796   2.71662
    R2        2.60831  -0.02684  -0.05812  -0.00045  -0.05868   2.54962
    R3        2.03692   0.00071  -0.00056   0.00391   0.00335   2.04027
    R4        2.62891  -0.03032  -0.07164   0.00319  -0.06835   2.56055
    R5        2.83343   0.00653   0.01266   0.00602   0.01868   2.85211
    R6        3.33838  -0.01202  -0.03159  -0.00494  -0.03644   3.30194
    R7        2.75060   0.00770   0.00058   0.02969   0.03027   2.78087
    R8        2.05926  -0.00092  -0.00283   0.00107  -0.00175   2.05750
    R9        2.05840  -0.00028   0.00033  -0.00180  -0.00148   2.05693
   R10        2.06672  -0.00254  -0.00531  -0.00165  -0.00696   2.05977
   R11        3.24409  -0.00315  -0.02346   0.02914   0.00562   3.24970
   R12        2.03709  -0.00096  -0.00200  -0.00045  -0.00245   2.03464
   R13        3.34678  -0.00735  -0.01966   0.00762  -0.01455   3.33223
   R14        2.62549  -0.03518  -0.07848  -0.00169  -0.08187   2.54362
   R15        3.26173   0.00376  -0.00419   0.02347   0.02006   3.28179
   R16        2.63846  -0.02188  -0.04628  -0.01566  -0.05746   2.58100
   R17        2.69688   0.00526   0.00113   0.01315   0.01589   2.71277
   R18        2.69347   0.00359  -0.00745   0.02225   0.01601   2.70949
   R19        3.26989   0.00361  -0.00185   0.01967   0.01762   3.28751
   R20        2.03738   0.00005  -0.00038   0.00089   0.00051   2.03790
   R21        3.30318  -0.00582  -0.01819   0.01311  -0.00715   3.29603
   R22        2.60882  -0.03056  -0.06818   0.00349  -0.06534   2.54348
   R23        2.03680  -0.00087  -0.00226   0.00042  -0.00184   2.03496
   R24        2.04218  -0.00188  -0.00564   0.00208  -0.00356   2.03863
    A1        1.98361   0.00082   0.00738  -0.01253  -0.00527   1.97833
    A2        2.16323  -0.00191  -0.00554  -0.00301  -0.00850   2.15473
    A3        2.13634   0.00109  -0.00184   0.01555   0.01378   2.15011
    A4        1.96406  -0.00177  -0.00430  -0.00414  -0.00840   1.95566
    A5        2.12879   0.00506   0.01637  -0.00147   0.01481   2.14360
    A6        2.19033  -0.00329  -0.01207   0.00557  -0.00658   2.18375
    A7        1.91977   0.00548   0.00846   0.01607   0.02471   1.94448
    A8        2.28825  -0.00853  -0.01688  -0.01729  -0.03425   2.25400
    A9        2.07500   0.00306   0.00841   0.00122   0.00954   2.08454
   A10        1.93303  -0.00169  -0.00685   0.00316  -0.00367   1.92935
   A11        1.94411   0.00131   0.00551  -0.00266   0.00286   1.94697
   A12        1.93921   0.00042   0.00324  -0.00468  -0.00144   1.93777
   A13        1.87754   0.00053   0.00190   0.00179   0.00370   1.88125
   A14        1.87276   0.00127   0.00368   0.00585   0.00955   1.88231
   A15        1.89452  -0.00186  -0.00768  -0.00306  -0.01075   1.88377
   A16        1.94409   0.00025  -0.00512   0.01246   0.00714   1.95123
   A17        2.19490   0.00341   0.01051   0.00719   0.01776   2.21266
   A18        2.14409  -0.00365  -0.00537  -0.01948  -0.02479   2.11930
   A19        1.61323  -0.00478  -0.00642  -0.01183  -0.01822   1.59501
   A20        2.12389  -0.00282  -0.00291  -0.01194  -0.01506   2.10883
   A21        2.23057  -0.00234  -0.00545  -0.00402  -0.00968   2.22088
   A22        1.92855   0.00521   0.00864   0.01668   0.02450   1.95305
   A23        1.60859  -0.00440  -0.00589  -0.01816  -0.02187   1.58672
   A24        1.93856  -0.00323  -0.01272   0.01662   0.00103   1.93959
   A25        2.27198   0.00503   0.01896   0.04301   0.05136   2.32334
   A26        1.98015   0.00140   0.00790  -0.00374   0.00307   1.98321
   A27        1.98306   0.00134   0.00926  -0.00645   0.00163   1.98469
   A28        1.93979  -0.00327  -0.01491   0.02094   0.00349   1.94327
   A29        2.26956   0.00491   0.01797   0.04163   0.04914   2.31871
   A30        1.96553   0.00113   0.00085  -0.00752  -0.00496   1.96057
   A31        2.14715  -0.00199  -0.00718   0.01125   0.00126   2.14841
   A32        2.16323   0.00130   0.00879   0.00442   0.01036   2.17360
   A33        1.59673  -0.00257   0.00185  -0.02456  -0.01995   1.57678
   A34        1.95997   0.00289   0.00026   0.02109   0.01974   1.97970
   A35        2.12810  -0.00473  -0.00485  -0.02025  -0.03004   2.09807
   A36        2.18581   0.00264   0.00891   0.01562   0.01955   2.20536
   A37        1.94781   0.00157   0.00491  -0.01295  -0.00613   1.94168
   A38        2.17470  -0.00063   0.00442   0.00698   0.00481   2.17951
   A39        2.13792   0.00042  -0.00185   0.02993   0.02167   2.15959
    D1        0.00417  -0.00023  -0.00147  -0.00993  -0.01135  -0.00718
    D2       -3.13405   0.00020   0.00028   0.00418   0.00462  -3.12943
    D3        3.14011  -0.00032  -0.00196  -0.00818  -0.01020   3.12991
    D4        0.00189   0.00010  -0.00021   0.00594   0.00577   0.00766
    D5       -0.00718   0.00009  -0.00026   0.00662   0.00635  -0.00083
    D6       -3.13346  -0.00036  -0.00180  -0.00523  -0.00725  -3.14071
    D7        3.13996   0.00020   0.00023   0.00497   0.00529  -3.13794
    D8        0.01368  -0.00026  -0.00131  -0.00689  -0.00831   0.00537
    D9        0.00070   0.00029   0.00252   0.00844   0.01097   0.01166
   D10        3.12200   0.00074   0.00241   0.00881   0.01117   3.13317
   D11        3.13878  -0.00014   0.00070  -0.00628  -0.00539   3.13338
   D12       -0.02310   0.00031   0.00059  -0.00591  -0.00519  -0.02829
   D13        0.03651  -0.00018  -0.00069  -0.00059  -0.00133   0.03519
   D14       -2.05238  -0.00059  -0.00219  -0.00320  -0.00542  -2.05780
   D15        2.11619   0.00058   0.00158   0.00576   0.00730   2.12349
   D16       -3.10125   0.00030   0.00129   0.01544   0.01677  -3.08449
   D17        1.09304  -0.00011  -0.00021   0.01283   0.01267   1.10571
   D18       -1.02158   0.00106   0.00356   0.02180   0.02539  -0.99618
   D19       -0.00401  -0.00018  -0.00224  -0.00406  -0.00637  -0.01039
   D20       -3.12815  -0.00041  -0.00181  -0.00410  -0.00595  -3.13409
   D21       -1.13456  -0.00120   0.00000   0.00000   0.00000  -1.13456
   D22        1.98450   0.00180   0.01203   0.04466   0.05671   2.04122
   D23        1.98526  -0.00071  -0.00015   0.00051   0.00030   1.98556
   D24       -1.17886   0.00230   0.01188   0.04517   0.05702  -1.12185
   D25        0.00638   0.00005   0.00144  -0.00142  -0.00013   0.00625
   D26        3.13318   0.00056   0.00312   0.01029   0.01305  -3.13695
   D27       -3.13711   0.00095   0.00454   0.00563   0.01012  -3.12699
   D28        0.02349  -0.00151  -0.00533  -0.03186  -0.03821  -0.01472
   D29        3.13032  -0.00136  -0.00773  -0.00218  -0.00972   3.12060
   D30       -0.13608   0.00255   0.01166   0.06759   0.07900  -0.05708
   D31       -0.03174   0.00129   0.00300   0.03811   0.04238   0.01064
   D32        2.98504   0.00520   0.02239   0.10788   0.13110   3.11615
   D33       -0.00898   0.00152   0.00682   0.01729   0.02389   0.01491
   D34       -2.66314  -0.00632  -0.02616  -0.11836  -0.14785  -2.81099
   D35       -0.00756  -0.00087  -0.00597   0.00149  -0.00440  -0.01195
[...]
 Rotational constants (GHZ):           1.2781179           0.2687506           0.2465409

 **********************************************************************

            Population analysis using the SCF Density.

 **********************************************************************

 Orbital symmetries:
       Occupied  (A) (A) (A) (A) (A) (A) (A) (A) (A) (A) (A) (A)
                 (A) (A) (A) (A) (A) (A) (A) (A) (A) (A) (A) (A)
                 (A) (A) (A) (A) (A) (A) (A) (A) (A) (A) (A) (A)
                 (A) (A) (A) (A) (A) (A) (A) (A) (A) (A) (A) (A)
                 (A) (A) (A) (A) (A) (A) (A) (A) (A) (A) (A) (A)
                 (A)
       Virtual   (A) (A) (A) (A) (A) (A) (A) (A) (A) (A) (A) (A)
                 (A) (A) (A) (A) (A) (A) (A) (A) (A) (A) (A) (A)
                 (A) (A) (A) (A) (A) (A) (A) (A) (A) (A) (A) (A)
                 (A) (A) (A) (A) (A) (A) (A) (A) (A) (A) (A) (A)
                 (A) (A) (A) (A) (A) (A) (A) (A) (A) (A) (A) (A)
                 (A) (A) (A) (A) (A) (A) (A) (A) (A) (A) (A) (A)
                 (A) (A) (A) (A) (A) (A) (A) (A) (A) (A) (A) (A)
                 (A) (A) (A) (A) (A) (A) (A) (A) (A) (A) (A) (A)
                 (A) (A) (A) (A) (A) (A) (A) (A) (A) (A) (A) (A)
                 (A) (A) (A) (A) (A) (A) (A) (A) (A) (A) (A) (A)
                 (A) (A) (A) (A) (A) (A) (A) (A) (A) (A) (A) (A)
                 (A) (A) (A) (A) (A) (A) (A) (A) (A) (A) (A) (A)
                 (A) (A) (A) (A) (A) (A) (A) (A) (A) (A) (A) (A)
                 (A) (A) (A) (A) (A) (A) (A) (A) (A) (A) (A) (A)
                 (A) (A) (A) (A) (A) (A) (A) (A) (A) (A) (A) (A)
                 (A) (A) (A) (A) (A) (A) (A) (A) (A) (A) (A) (A)
                 (A) (A) (A) (A) (A) (A) (A) (A) (A) (A) (A) (A)
                 (A) (A) (A) (A) (A) (A) (A) (A) (A) (A) (A) (A)
                 (A) (A) (A) (A) (A) (A) (A) (A) (A) (A) (A) (A)
                 (A) (A) (A) (A) (A) (A) (A) (A) (A) (A) (A) (A)
                 (A) (A) (A) (A) (A) (A) (A) (A) (A) (A) (A) (A)
                 (A) (A) (A) (A) (A) (A) (A) (A) (A) (A) (A) (A)
                 (A) (A) (A) (A) (A) (A) (A) (A) (A) (A) (A) (A)
                 (A) (A) (A) (A) (A) (A) (A) (A) (A) (A) (A) (A)
                 (A) (A) (A) (A) (A) (A) (A) (A) (A) (A) (A) (A)
                 (A) (A) (A) (A) (A) (A) (A) (A) (A) (A) (A) (A)
                 (A) (A) (A) (A) (A) (A) (A) (A) (A) (A) (A) (A)
                 (A) (A) (A) (A) (A) (A) (A) (A) (A) (A) (A) (A)
                 (A) (A) (A) (A) (A) (A) (A) (A) (A)
 The electronic state is 1-A.
 Alpha  occ. eigenvalues --  -91.99049 -91.99000 -91.98390 -11.28850 -11.27802
 Alpha  occ. eigenvalues --  -11.27533 -11.27313 -11.27165 -11.27110 -11.25821
 Alpha  occ. eigenvalues --  -11.25770 -11.25500 -11.24314 -11.23569  -8.99231
 Alpha  occ. eigenvalues --   -8.99158  -8.98609  -6.67398  -6.67322  -6.67320
 Alpha  occ. eigenvalues --   -6.67240  -6.67113  -6.67033  -6.66773  -6.66680
 Alpha  occ. eigenvalues --   -6.66489  -1.21758  -1.18572  -1.12871  -1.03888
 Alpha  occ. eigenvalues --   -1.02589  -1.01626  -0.95711  -0.94702  -0.91846
 Alpha  occ. eigenvalues --   -0.82116  -0.77555  -0.76490  -0.72300  -0.70115
 Alpha  occ. eigenvalues --   -0.67369  -0.66883  -0.60613  -0.59123  -0.58845
 Alpha  occ. eigenvalues --   -0.56740  -0.56334  -0.54753  -0.53784  -0.52514
 Alpha  occ. eigenvalues --   -0.51659  -0.51095  -0.49542  -0.47348  -0.46337
 Alpha  occ. eigenvalues --   -0.46027  -0.38887  -0.34294  -0.33749  -0.32258
 Alpha  occ. eigenvalues --   -0.29758
 Alpha virt. eigenvalues --    0.03432   0.03483   0.04171   0.04692   0.04879
 Alpha virt. eigenvalues --    0.05863   0.05994   0.07389   0.08018   0.08651
 Alpha virt. eigenvalues --    0.08788   0.09189   0.10303   0.10557   0.11215
 Alpha virt. eigenvalues --    0.11504   0.11793   0.12472   0.12590   0.12969
 Alpha virt. eigenvalues --    0.13214   0.13376   0.14076   0.14210   0.14253
 Alpha virt. eigenvalues --    0.14778   0.15205   0.15491   0.15937   0.16319
 Alpha virt. eigenvalues --    0.16557   0.16931   0.17390   0.17802   0.18319
 Alpha virt. eigenvalues --    0.18494   0.18657   0.19261   0.19783   0.20410
 Alpha virt. eigenvalues --    0.20558   0.21453   0.21642   0.21917   0.22057
 Alpha virt. eigenvalues --    0.22481   0.22916   0.23448   0.23626   0.23989
 Alpha virt. eigenvalues --    0.24634   0.25075   0.25144   0.25460   0.26074
 Alpha virt. eigenvalues --    0.26863   0.27463   0.27676   0.28771   0.29175
 Alpha virt. eigenvalues --    0.29358   0.30415   0.30907   0.31597   0.31850
 Alpha virt. eigenvalues --    0.32125   0.32707   0.32768   0.33267   0.33845
 Alpha virt. eigenvalues --    0.34713   0.34739   0.35437   0.35976   0.36896
 Alpha virt. eigenvalues --    0.37058   0.37925   0.38160   0.38941   0.40515
 Alpha virt. eigenvalues --    0.40726   0.41222   0.41653   0.42241   0.42774
 Alpha virt. eigenvalues --    0.44112   0.44321   0.44762   0.45127   0.45324
 Alpha virt. eigenvalues --    0.45617   0.46070   0.46954   0.47641   0.47830
 Alpha virt. eigenvalues --    0.48563   0.49422   0.49739   0.50136   0.51046
 Alpha virt. eigenvalues --    0.52323   0.52606   0.52827   0.54147   0.54753
 Alpha virt. eigenvalues --    0.55151   0.56469   0.57179   0.58353   0.58783
 Alpha virt. eigenvalues --    0.59005   0.59427   0.59759   0.60490   0.60903
 Alpha virt. eigenvalues --    0.61571   0.62758   0.63041   0.63182   0.63762
 Alpha virt. eigenvalues --    0.64488   0.65262   0.65581   0.66222   0.66440
 Alpha virt. eigenvalues --    0.67563   0.68050   0.68328   0.68898   0.69430
 Alpha virt. eigenvalues --    0.69955   0.70378   0.70775   0.71002   0.71678
 Alpha virt. eigenvalues --    0.72337   0.72750   0.73512   0.74045   0.74544
 Alpha virt. eigenvalues --    0.74796   0.74981   0.75643   0.76292   0.76523
 Alpha virt. eigenvalues --    0.77207   0.77878   0.78663   0.79467   0.80084
 Alpha virt. eigenvalues --    0.81794   0.81955   0.82247   0.82831   0.83585
 Alpha virt. eigenvalues --    0.84074   0.84455   0.85436   0.86447   0.87096
 Alpha virt. eigenvalues --    0.87380   0.88571   0.88961   0.89547   0.89788
 Alpha virt. eigenvalues --    0.90832   0.91600   0.92193   0.92765   0.94554
 Alpha virt. eigenvalues --    0.94824   0.95466   0.95963   0.96633   0.97153
 Alpha virt. eigenvalues --    0.98191   0.98511   0.99928   1.00422   1.00943
 Alpha virt. eigenvalues --    1.01264   1.01762   1.02883   1.04898   1.06687
 Alpha virt. eigenvalues --    1.07101   1.07369   1.09180   1.10172   1.10459
 Alpha virt. eigenvalues --    1.10983   1.11261   1.11962   1.14385   1.15395
 Alpha virt. eigenvalues --    1.16582   1.17106   1.17661   1.19438   1.19673
 Alpha virt. eigenvalues --    1.21077   1.22344   1.23633   1.23925   1.25327
 Alpha virt. eigenvalues --    1.25689   1.26350   1.27400   1.28041   1.29449
 Alpha virt. eigenvalues --    1.30369   1.31157   1.31690   1.33592   1.34318
 Alpha virt. eigenvalues --    1.35364   1.36200   1.36698   1.38348   1.39305
 Alpha virt. eigenvalues --    1.39696   1.40860   1.42465   1.44986   1.45284
 Alpha virt. eigenvalues --    1.46383   1.48133   1.49656   1.51798   1.53389
 Alpha virt. eigenvalues --    1.55237   1.56255   1.56683   1.57271   1.57499
 Alpha virt. eigenvalues --    1.59905   1.60287   1.62590   1.63244   1.63894
 Alpha virt. eigenvalues --    1.64339   1.65664   1.67276   1.67806   1.69005
 Alpha virt. eigenvalues --    1.69273   1.70421   1.71068   1.71115   1.72514
 Alpha virt. eigenvalues --    1.73894   1.74162   1.76249   1.77622   1.79467
 Alpha virt. eigenvalues --    1.80465   1.81523   1.82862   1.84162   1.84883
 Alpha virt. eigenvalues --    1.85298   1.86357   1.88310   1.90003   1.90197
 Alpha virt. eigenvalues --    1.91138   1.94049   1.94711   1.95726   1.96707
 Alpha virt. eigenvalues --    1.96836   1.97604   2.00192   2.02189   2.02927
 Alpha virt. eigenvalues --    2.04232   2.05824   2.06718   2.07066   2.09315
 Alpha virt. eigenvalues --    2.10216   2.10707   2.12479   2.13224   2.13977
 Alpha virt. eigenvalues --    2.14693   2.15552   2.18599   2.21739   2.21860
 Alpha virt. eigenvalues --    2.22318   2.23037   2.24742   2.26090   2.27750
 Alpha virt. eigenvalues --    2.28510   2.29670   2.31099   2.32455   2.33676
 Alpha virt. eigenvalues --    2.35305   2.36453   2.37609   2.39495   2.40833
 Alpha virt. eigenvalues --    2.43158   2.44279   2.46647   2.47818   2.48270
 Alpha virt. eigenvalues --    2.49155   2.51460   2.53038   2.53988   2.54745
 Alpha virt. eigenvalues --    2.57923   2.60501   2.61668   2.63899   2.68631
 Alpha virt. eigenvalues --    2.74082   2.76009   2.78509   2.83441   2.85186
 Alpha virt. eigenvalues --    2.87574   2.88232   2.92544   2.95124   2.99226
 Alpha virt. eigenvalues --    3.00226   3.03234   3.04739   3.06159   3.23721
 Alpha virt. eigenvalues --    3.24779   3.30044   3.34427   3.45793   3.53078
 Alpha virt. eigenvalues --    3.57903   3.75304   3.81584   4.16020   4.29476
          Condensed to atoms (all electrons):
               1          2          3          4          5          6
     1  C    9.947959  -1.955866  -0.830073  -0.751523  -0.284802  -0.332160
     2  C   -1.955866  11.136627  -3.260580   0.522431   0.393542   0.261407
     3  C   -0.830073  -3.260580  14.257098  -0.989822  -1.600119  -0.068231
     4  C   -0.751523   0.522431  -0.989822   5.722548   0.155669   0.043793
     5  C   -0.284802   0.393542  -1.600119   0.155669   7.005987   0.002208
     6  H   -0.332160   0.261407  -0.068231   0.043793   0.002208   1.643848
     7  S   -0.532966  -0.112819  -0.148425   0.122416   0.378098  -0.010306
     8  H    0.067928   0.098775  -0.035675   0.031232   0.155499  -0.067531
     9  C    0.236775   0.203287  -2.199437   0.184447   0.201508   0.026462
    10  S   -0.022875   0.384179  -0.611678   0.048305   0.010445   0.000881
    11  C    0.014363   0.081889  -0.341340   0.000003   0.009207   0.000171
    12  C   -0.034493  -0.022990   0.432574   0.028156  -0.002715   0.000881
    13  C   -0.033382  -1.041500   0.851210  -0.244626  -0.163371  -0.008602
    14  H   -0.012049   0.086943   0.033244   0.012493   0.003612  -0.000960
    15  S    0.000860  -0.007918  -0.047742  -0.000556  -0.001857   0.000043
    16  C   -0.001892   0.005221   0.034319   0.002421   0.000367  -0.000125
    17  C    0.001576   0.029538  -0.407439  -0.021408  -0.002768  -0.000206
    18  H   -0.000123   0.000318   0.000235   0.000251   0.000005  -0.000011
    19  H    0.000425   0.001313  -0.009810  -0.001024  -0.000327   0.000027
    20  H   -0.010358   0.056629  -0.075514   0.281171   0.018344  -0.002734
    21  H   -0.027741   0.054917  -0.023123   0.344162   0.024932  -0.009072
    22  H   -0.043392   0.124804   0.166918   0.019840  -0.039025   0.001920
               7          8          9         10         11         12
     1  C   -0.532966   0.067928   0.236775  -0.022875   0.014363  -0.034493
     2  C   -0.112819   0.098775   0.203287   0.384179   0.081889  -0.022990
     3  C   -0.148425  -0.035675  -2.199437  -0.611678  -0.341340   0.432574
     4  C    0.122416   0.031232   0.184447   0.048305   0.000003   0.028156
     5  C    0.378098   0.155499   0.201508   0.010445   0.009207  -0.002715
     6  H   -0.010306  -0.067531   0.026462   0.000881   0.000171   0.000881
     7  S   16.291447  -0.152529  -0.574873  -0.126366   0.004680   0.040917
     8  H   -0.152529   1.256384   0.002733  -0.001888  -0.000201   0.000633
     9  C   -0.574873   0.002733  13.781885   0.373478  -0.285698  -0.673628
    10  S   -0.126366  -0.001888   0.373478  16.717264   0.303638  -0.340137
    11  C    0.004680  -0.000201  -0.285698   0.303638  10.902342  -0.681034
    12  C    0.040917   0.000633  -0.673628  -0.340137  -0.681034  12.414649
    13  C    0.450472   0.000054  -5.176251  -0.874738  -1.297324  -3.297896
    14  H    0.009715   0.000474   0.285199   0.043637  -0.098446   0.734680
    15  S   -0.001353  -0.000138  -0.291852   0.106741   0.001429  -0.323986
    16  C   -0.002989   0.000041   0.058539  -0.093229  -0.085200  -0.967930
    17  C    0.006823  -0.000166  -0.472485  -0.255880  -2.434477  -1.044078
    18  H   -0.000015   0.000003   0.006431   0.010814   0.105045  -0.063831
    19  H    0.000037  -0.000025   0.108742   0.010600   0.547110   0.088512
    20  H    0.002365   0.001375   0.006859  -0.005501  -0.002409  -0.001473
    21  H    0.005614   0.001167  -0.027533   0.002839   0.004979   0.001160
    22  H    0.011710  -0.000135  -0.050713  -0.019531  -0.010620   0.008584
              13         14         15         16         17         18
     1  C   -0.033382  -0.012049   0.000860  -0.001892   0.001576  -0.000123
     2  C   -1.041500   0.086943  -0.007918   0.005221   0.029538   0.000318
     3  C    0.851210   0.033244  -0.047742   0.034319  -0.407439   0.000235
     4  C   -0.244626   0.012493  -0.000556   0.002421  -0.021408   0.000251
     5  C   -0.163371   0.003612  -0.001857   0.000367  -0.002768   0.000005
     6  H   -0.008602  -0.000960   0.000043  -0.000125  -0.000206  -0.000011
     7  S    0.450472   0.009715  -0.001353  -0.002989   0.006823  -0.000015
     8  H    0.000054   0.000474  -0.000138   0.000041  -0.000166   0.000003
     9  C   -5.176251   0.285199  -0.291852   0.058539  -0.472485   0.006431
    10  S   -0.874738   0.043637   0.106741  -0.093229  -0.255880   0.010814
    11  C   -1.297324  -0.098446   0.001429  -0.085200  -2.434477   0.105045
    12  C   -3.297896   0.734680  -0.323986  -0.967930  -1.044078  -0.063831
    13  C   17.686536  -1.295828   0.046725  -0.148586   0.294937   0.024962
    14  H   -1.295828   1.743949  -0.040014   0.019580  -0.041652   0.001625
    15  S    0.046725  -0.040014  15.961346   0.178586  -0.033831  -0.156900
    16  C   -0.148586   0.019580   0.178586   6.915650   0.104941   0.194028
    17  C    0.294937  -0.041652  -0.033831   0.104941  10.183026   0.030581
    18  H    0.024962   0.001625  -0.156900   0.194028   0.030581   1.298816
    19  H   -0.075746  -0.001691  -0.007202  -0.133504  -0.564820  -0.070279
    20  H    0.003527   0.001921  -0.000007   0.000471  -0.000354   0.000044
    21  H   -0.007615  -0.000482   0.000236  -0.000106  -0.000328   0.000033
    22  H    0.056422   0.002596  -0.001538   0.000236  -0.007084  -0.000088
              19         20         21         22
     1  C    0.000425  -0.010358  -0.027741  -0.043392
     2  C    0.001313   0.056629   0.054917   0.124804
     3  C   -0.009810  -0.075514  -0.023123   0.166918
     4  C   -0.001024   0.281171   0.344162   0.019840
     5  C   -0.000327   0.018344   0.024932  -0.039025
     6  H    0.000027  -0.002734  -0.009072   0.001920
     7  S    0.000037   0.002365   0.005614   0.011710
     8  H   -0.000025   0.001375   0.001167  -0.000135
     9  C    0.108742   0.006859  -0.027533  -0.050713
    10  S    0.010600  -0.005501   0.002839  -0.019531
    11  C    0.547110  -0.002409   0.004979  -0.010620
    12  C    0.088512  -0.001473   0.001160   0.008584
    13  C   -0.075746   0.003527  -0.007615   0.056422
    14  H   -0.001691   0.001921  -0.000482   0.002596
    15  S   -0.007202  -0.000007   0.000236  -0.001538
    16  C   -0.133504   0.000471  -0.000106   0.000236
    17  C   -0.564820  -0.000354  -0.000328  -0.007084
    18  H   -0.070279   0.000044   0.000033  -0.000088
    19  H    1.433016  -0.000048   0.000080  -0.000131
    20  H   -0.000048   0.955694  -0.112051  -0.133496
    21  H    0.000080  -0.112051   0.789149  -0.134539
    22  H   -0.000131  -0.133496  -0.134539   1.146001
 Mulliken charges:
               1
     1  C    0.603807
     2  C   -1.040145
     3  C    0.873411
     4  C    0.489620
     5  C   -0.264439
     6  H   -0.481703
     7  S    0.338347
     8  H   -0.358011
     9  C    0.276125
    10  S    0.339000
    11  C   -0.738106
    12  C   -0.296556
    13  C    0.250619
    14  H   -0.488546
    15  S    0.618928
    16  C   -0.080838
    17  C    0.635553
    18  H   -0.381943
    19  H   -0.325254
    20  H    0.015545
    21  H    0.113323
    22  H   -0.098738
 Sum of Mulliken charges =  -0.00000
 Mulliken charges with hydrogens summed into heavy atoms:
               1
     1  C    0.122104
     2  C   -1.040145
     3  C    0.873411
     4  C    0.519750
     5  C   -0.622449
     7  S    0.338347
     9  C    0.276125
    10  S    0.339000
    11  C   -0.738106
    12  C   -0.296556
    13  C   -0.237928
    15  S    0.618928
    16  C   -0.462781
    17  C    0.310299
 Electronic spatial extent (au):  <R**2>=           4343.9016
 Charge=             -0.0000 electrons
 Dipole moment (field-independent basis, Debye):
    X=             -0.4405    Y=              1.0809    Z=              0.6287  Tot=              1.3258
 Quadrupole moment (field-independent basis, Debye-Ang):
   XX=            -86.6165   YY=           -102.4552   ZZ=           -107.5813
   XY=              1.9683   XZ=             -4.0816   YZ=             -1.1933
 Traceless Quadrupole moment (field-independent basis, Debye-Ang):
   XX=             12.2678   YY=             -3.5709   ZZ=             -8.6970
   XY=              1.9683   XZ=             -4.0816   YZ=             -1.1933
 Octapole moment (field-independent basis, Debye-Ang**2):
  XXX=             -0.3057  YYY=              4.2427  ZZZ=              3.1928  XYY=             -7.7549
  XXY=             12.4124  XXZ=             -9.0550  XZZ=             -0.6372  YZZ=              3.0100
  YYZ=             -0.3948  XYZ=            -17.3481
 Hexadecapole moment (field-independent basis, Debye-Ang**3):
 XXXX=          -4146.9796 YYYY=           -888.8153 ZZZZ=           -451.9011 XXXY=             90.1802
 XXXZ=            -35.4057 YYYX=              8.0039 YYYZ=            -10.4391 ZZZX=            -11.4117
 ZZZY=             -2.3606 XXYY=           -924.9292 XXZZ=           -923.2220 YYZZ=           -211.2452
 XXYZ=             10.3668 YYXZ=             -6.9494 ZZXY=              1.2309
 N-N= 1.123312399377D+03 E-N=-6.066830784652D+03  KE= 1.613728405992D+03
 Unable to Open any file for archive entry.
 1\1\GINC-CX3-7-4\FOpt\RHF\Aug-CC-pVDZ\C11H8S3\NS5018\26-Oct-2021\0\\# 
 opt=modredundant hf/aug-cc-pvdz\\pBTTT_-65.pdb\\0,1\C,-4.2476575404,-1
 .5230942652,-0.271938205\C,-2.9479335484,-1.0119162476,-0.6345749095\C
 ,-1.996937055,-1.9785673479,-0.5942968757\C,-2.7268062941,0.4371821441
 ,-0.979867123\C,-4.2443234189,-2.8369503731,0.0293373978\H,-5.13373443
 29,-0.9071709153,-0.2359150388\S,-2.6673412713,-3.5213404475,-0.122102
 8863\H,-5.0789067174,-3.4448575714,0.3353636933\C,-0.5578620921,-1.881
 2275836,-0.9009889727\S,-0.0156469208,-1.5092088425,-2.5326090235\C,1.
 6451176438,-1.6197645632,-2.0371404882\C,1.7409443686,-1.9368171642,-0
 .7137761595\C,0.4768171477,-2.0896250568,-0.0555034474\H,0.3465114713,
 -2.3316698044,0.9866174273\S,3.4014091734,-2.0469355019,-0.2145586853\
 C,3.9309555037,-1.6560750738,-1.8298098962\C,2.9120564407,-1.454424258
 9,-2.6910709674\H,4.9846519249,-1.6006651767,-2.0446946114\H,3.0444757
 314,-1.2048542363,-3.7311432015\H,-3.1583770144,1.0765130998,-0.208955
 3492\H,-3.2101901976,0.6873497276,-1.9255900053\H,-1.6702229021,0.6721
 194586,-1.0657826723\\Version=ES64L-G16RevC.01\State=1-A\HF=-1613.8148
 075\RMSD=8.177e-09\RMSF=1.033e-04\Dipole=-0.2029062,0.4770312,-0.05771
 21\Quadrupole=7.8727012,-5.1870292,-2.6856721,-0.6486264,-5.0422121,-2
 .0658144\PG=C01 [X(C11H8S3)]\\@
 The archive entry for this job was punched.


 THE MOST BEAUTIFUL EXPERIENCE WE CAN HAVE IS THE MYSTERIOUS.
 IT IS THE FUNDAMENTAL EMOTION WHICH STANDS AT AT THE CRADLE 
 OF TRUE ART AND TRUE SCIENCE.

                                    -- ALBERT EINSTEIN
 Job cpu time:       0 days  7 hours 32 minutes  7.4 seconds.
 Elapsed time:       0 days  0 hours 56 minutes 52.5 seconds.
 File lengths (MBytes):  RWF=    103 Int=      0 D2E=      0 Chk=     13 Scr=      1
 Normal termination of Gaussian 16 at Tue Oct 26 00:48:56 2021.
