 Entering Gaussian System, Link 0=g16
 Input=pBTTT_-95.gjf
 Output=pBTTT_-95.log
 Initial command:
 /apps/gaussian/g16-c01-avx/g16/l1.exe "/tmp/pbs.4762177[80].pbs/Gau-2255941.inp" -scrdir="/tmp/pbs.4762177[80].pbs/"
 Entering Link 1 = /apps/gaussian/g16-c01-avx/g16/l1.exe PID=   2255942.
  
 Copyright (c) 1988-2019, Gaussian, Inc.  All Rights Reserved.
  
 This is part of the Gaussian(R) 16 program.  It is based on
 the Gaussian(R) 09 system (copyright 2009, Gaussian, Inc.),
 the Gaussian(R) 03 system (copyright 2003, Gaussian, Inc.),
 the Gaussian(R) 98 system (copyright 1998, Gaussian, Inc.),
 the Gaussian(R) 94 system (copyright 1995, Gaussian, Inc.),
 the Gaussian 92(TM) system (copyright 1992, Gaussian, Inc.),
 the Gaussian 90(TM) system (copyright 1990, Gaussian, Inc.),
 the Gaussian 88(TM) system (copyright 1988, Gaussian, Inc.),
 the Gaussian 86(TM) system (copyright 1986, Carnegie Mellon
 University), and the Gaussian 82(TM) system (copyright 1983,
 Carnegie Mellon University). Gaussian is a federally registered
 trademark of Gaussian, Inc.
  
 This software contains proprietary and confidential information,
 including trade secrets, belonging to Gaussian, Inc.
  
 This software is provided under written license and may be
 used, copied, transmitted, or stored only in accord with that
 written license.
  
 The following legend is applicable only to US Government
 contracts under FAR:
  
                    RESTRICTED RIGHTS LEGEND
  
 Use, reproduction and disclosure by the US Government is
 subject to restrictions as set forth in subparagraphs (a)
 and (c) of the Commercial Computer Software - Restricted
 Rights clause in FAR 52.227-19.
  
 Gaussian, Inc.
 340 Quinnipiac St., Bldg. 40, Wallingford CT 06492
  
  
 ---------------------------------------------------------------
 Warning -- This program may not be used in any manner that
 competes with the business of Gaussian, Inc. or will provide
 assistance to any competitor of Gaussian, Inc.  The licensee
 of this program is prohibited from giving any competitor of
 Gaussian, Inc. access to this program.  By using this program,
 the user acknowledges that Gaussian, Inc. is engaged in the
 business of creating and licensing software in the field of
 computational chemistry and represents and warrants to the
 licensee that it is not a competitor of Gaussian, Inc. and that
 it will not use this program in any manner prohibited above.
 ---------------------------------------------------------------
  

 Cite this work as:
 Gaussian 16, Revision C.01,
 M. J. Frisch, G. W. Trucks, H. B. Schlegel, G. E. Scuseria, 
 M. A. Robb, J. R. Cheeseman, G. Scalmani, V. Barone, 
 G. A. Petersson, H. Nakatsuji, X. Li, M. Caricato, A. V. Marenich, 
 J. Bloino, B. G. Janesko, R. Gomperts, B. Mennucci, H. P. Hratchian, 
 J. V. Ortiz, A. F. Izmaylov, J. L. Sonnenberg, D. Williams-Young, 
 F. Ding, F. Lipparini, F. Egidi, J. Goings, B. Peng, A. Petrone, 
 T. Henderson, D. Ranasinghe, V. G. Zakrzewski, J. Gao, N. Rega, 
 G. Zheng, W. Liang, M. Hada, M. Ehara, K. Toyota, R. Fukuda, 
 J. Hasegawa, M. Ishida, T. Nakajima, Y. Honda, O. Kitao, H. Nakai, 
 T. Vreven, K. Throssell, J. A. Montgomery, Jr., J. E. Peralta, 
 F. Ogliaro, M. J. Bearpark, J. J. Heyd, E. N. Brothers, K. N. Kudin, 
 V. N. Staroverov, T. A. Keith, R. Kobayashi, J. Normand, 
 K. Raghavachari, A. P. Rendell, J. C. Burant, S. S. Iyengar, 
 J. Tomasi, M. Cossi, J. M. Millam, M. Klene, C. Adamo, R. Cammi, 
 J. W. Ochterski, R. L. Martin, K. Morokuma, O. Farkas, 
 J. B. Foresman, and D. J. Fox, Gaussian, Inc., Wallingford CT, 2019.
 
 ******************************************
 Gaussian 16:  ES64L-G16RevC.01  3-Jul-2019
                25-Oct-2021 
 ******************************************
 %mem=100GB
 %nprocshared=8
 Will use up to    8 processors via shared memory.
 ---------------------------------
 # opt=modredundant hf/aug-cc-pvdz
 ---------------------------------
 1/18=120,19=15,38=1/1,3;
 2/9=110,12=2,17=6,18=5,40=1/2;
 3/5=16,7=10,11=9,25=1,30=1,71=1/1,2,3;
 4//1;
 5/5=2,38=5/2;
 6/7=2,8=2,9=2,10=2,28=1/1;
 7//1,2,3,16;
 1/18=20,19=15/3(2);
 2/9=110/2;
 99//99;
 2/9=110/2;
 3/5=16,7=10,11=9,25=1,30=1,71=1/1,2,3;
 4/5=5,16=3,69=1/1;
 5/5=2,38=5/2;
 7//1,2,3,16;
 1/18=20,19=15/3(-5);
 2/9=110/2;
 6/7=2,8=2,9=2,10=2,19=2,28=1/1;
 99/9=1/99;
 -------------
 pBTTT_-95.pdb
 -------------
 Symbolic Z-matrix:
 Charge =  0 Multiplicity = 1
 C                    -4.25     -1.36     -0.21 
 C                    -2.93     -0.95     -0.61 
 C                    -1.97     -2.05     -0.62 
 C                    -2.66      0.47     -0.96 
 C                    -4.33     -2.76      0.1 
 H                    -5.1      -0.7      -0.14 
 S                    -2.8      -3.56     -0.11 
 H                    -5.23     -3.27      0.41 
 C                    -0.56     -2.13     -0.97 
 S                    -0.015    -2.624    -2.602 
 C                     1.656    -2.455    -2.187 
 C                     1.842    -2.       -0.832 
 C                     0.602    -1.798    -0.143 
 H                     0.536    -1.308     0.816 
 S                     3.34     -1.16     -0.609 
 C                     3.773    -1.401    -2.303 
 C                     2.746    -2.105    -3.037 
 H                     4.619    -0.907    -2.76 
 H                     2.697    -2.107    -4.122 
 H                    -3.55      1.09     -0.83 
 H                    -2.35      0.56     -2. 
 H                    -1.88      0.89     -0.31 
 
 The following ModRedundant input section has been read:
 D       2       3       9      10 F                                           
 

 GradGradGradGradGradGradGradGradGradGradGradGradGradGradGradGradGradGrad
 Berny optimization.
 Initialization pass.
                           ----------------------------
                           !    Initial Parameters    !
                           ! (Angstroms and Degrees)  !
 --------------------------                            --------------------------
 ! Name  Definition              Value          Derivative Info.                !
 --------------------------------------------------------------------------------
 ! R1    R(1,2)                  1.4389         estimate D2E/DX2                !
 ! R2    R(1,5)                  1.4361         estimate D2E/DX2                !
 ! R3    R(1,6)                  1.0784         estimate D2E/DX2                !
 ! R4    R(2,3)                  1.46           estimate D2E/DX2                !
 ! R5    R(2,4)                  1.4872         estimate D2E/DX2                !
 ! R6    R(3,7)                  1.797          estimate D2E/DX2                !
 ! R7    R(3,9)                  1.455          estimate D2E/DX2                !
 ! R8    R(4,20)                 1.0924         estimate D2E/DX2                !
 ! R9    R(4,21)                 1.0889         estimate D2E/DX2                !
 ! R10   R(4,22)                 1.0988         estimate D2E/DX2                !
 ! R11   R(5,7)                  1.7393         estimate D2E/DX2                !
 ! R12   R(5,8)                  1.0799         estimate D2E/DX2                !
 ! R13   R(9,10)                 1.7901         estimate D2E/DX2                !
 ! R14   R(9,13)                 1.4644         estimate D2E/DX2                !
 ! R15   R(10,11)                1.73           estimate D2E/DX2                !
 ! R16   R(11,12)                1.4414         estimate D2E/DX2                !
 ! R17   R(11,17)                1.4259         estimate D2E/DX2                !
 ! R18   R(12,13)                1.4329         estimate D2E/DX2                !
 ! R19   R(12,15)                1.7319         estimate D2E/DX2                !
 ! R20   R(13,14)                1.079          estimate D2E/DX2                !
 ! R21   R(15,16)                1.765          estimate D2E/DX2                !
 ! R22   R(16,17)                1.4454         estimate D2E/DX2                !
 ! R23   R(16,18)                1.081          estimate D2E/DX2                !
 ! R24   R(17,19)                1.0861         estimate D2E/DX2                !
 ! A1    A(2,1,5)              112.8843         estimate D2E/DX2                !
 ! A2    A(2,1,6)              124.5209         estimate D2E/DX2                !
 ! A3    A(5,1,6)              122.5942         estimate D2E/DX2                !
 ! A4    A(1,2,3)              112.9799         estimate D2E/DX2                !
 ! A5    A(1,2,4)              120.2665         estimate D2E/DX2                !
 ! A6    A(3,2,4)              126.7536         estimate D2E/DX2                !
 ! A7    A(2,3,7)              109.1138         estimate D2E/DX2                !
 ! A8    A(2,3,9)              132.8639         estimate D2E/DX2                !
 ! A9    A(7,3,9)              118.0132         estimate D2E/DX2                !
 ! A10   A(2,4,20)             111.468          estimate D2E/DX2                !
 ! A11   A(2,4,21)             110.8154         estimate D2E/DX2                !
 ! A12   A(2,4,22)             110.7706         estimate D2E/DX2                !
 ! A13   A(20,4,21)            107.3779         estimate D2E/DX2                !
 ! A14   A(20,4,22)            106.918          estimate D2E/DX2                !
 ! A15   A(21,4,22)            109.3476         estimate D2E/DX2                !
 ! A16   A(1,5,7)              111.9209         estimate D2E/DX2                !
 ! A17   A(1,5,8)              124.6643         estimate D2E/DX2                !
 ! A18   A(7,5,8)              123.4062         estimate D2E/DX2                !
 ! A19   A(3,7,5)               93.0997         estimate D2E/DX2                !
 ! A20   A(3,9,10)             121.9727         estimate D2E/DX2                !
 ! A21   A(3,9,13)             128.3643         estimate D2E/DX2                !
 ! A22   A(10,9,13)            109.624          estimate D2E/DX2                !
 ! A23   A(9,10,11)             92.7749         estimate D2E/DX2                !
 ! A24   A(10,11,12)           112.394          estimate D2E/DX2                !
 ! A25   A(10,11,17)           128.2679         estimate D2E/DX2                !
 ! A26   A(12,11,17)           112.5981         estimate D2E/DX2                !
 ! A27   A(11,12,13)           112.6349         estimate D2E/DX2                !
 ! A28   A(11,12,15)           112.6914         estimate D2E/DX2                !
 ! A29   A(13,12,15)           128.188          estimate D2E/DX2                !
 ! A30   A(9,13,12)            112.5308         estimate D2E/DX2                !
 ! A31   A(9,13,14)            123.8061         estimate D2E/DX2                !
 ! A32   A(12,13,14)           122.9805         estimate D2E/DX2                !
 ! A33   A(12,15,16)            91.2828         estimate D2E/DX2                !
 ! A34   A(15,16,17)           112.3085         estimate D2E/DX2                !
 ! A35   A(15,16,18)           122.3669         estimate D2E/DX2                !
 ! A36   A(17,16,18)           124.3304         estimate D2E/DX2                !
 ! A37   A(11,17,16)           111.1003         estimate D2E/DX2                !
 ! A38   A(11,17,19)           124.0959         estimate D2E/DX2                !
 ! A39   A(16,17,19)           122.7015         estimate D2E/DX2                !
 ! D1    D(5,1,2,3)              0.3915         estimate D2E/DX2                !
 ! D2    D(5,1,2,4)           -179.5973         estimate D2E/DX2                !
 ! D3    D(6,1,2,3)           -179.8811         estimate D2E/DX2                !
 ! D4    D(6,1,2,4)              0.13           estimate D2E/DX2                !
 ! D5    D(2,1,5,7)             -0.3845         estimate D2E/DX2                !
 ! D6    D(2,1,5,8)           -179.3471         estimate D2E/DX2                !
 ! D7    D(6,1,5,7)            179.8822         estimate D2E/DX2                !
 ! D8    D(6,1,5,8)              0.9196         estimate D2E/DX2                !
 ! D9    D(1,2,3,7)             -0.2224         estimate D2E/DX2                !
 ! D10   D(1,2,3,9)            178.6265         estimate D2E/DX2                !
 ! D11   D(4,2,3,7)            179.7656         estimate D2E/DX2                !
 ! D12   D(4,2,3,9)             -1.3855         estimate D2E/DX2                !
 ! D13   D(1,2,4,20)             2.1641         estimate D2E/DX2                !
 ! D14   D(1,2,4,21)          -117.3645         estimate D2E/DX2                !
 ! D15   D(1,2,4,22)           121.0843         estimate D2E/DX2                !
 ! D16   D(3,2,4,20)          -177.8231         estimate D2E/DX2                !
 ! D17   D(3,2,4,21)            62.6483         estimate D2E/DX2                !
 ! D18   D(3,2,4,22)           -58.9029         estimate D2E/DX2                !
 ! D19   D(2,3,7,5)              0.0033         estimate D2E/DX2                !
 ! D20   D(9,3,7,5)           -179.041          estimate D2E/DX2                !
 ! D21   D(2,3,9,10)           -94.9943         Frozen                          !
 ! D22   D(2,3,9,13)            82.4875         estimate D2E/DX2                !
 ! D23   D(7,3,9,10)            83.7737         estimate D2E/DX2                !
 ! D24   D(7,3,9,13)           -98.7445         estimate D2E/DX2                !
 ! D25   D(1,5,7,3)              0.2153         estimate D2E/DX2                !
 ! D26   D(8,5,7,3)            179.1932         estimate D2E/DX2                !
 ! D27   D(3,9,10,11)          179.7759         estimate D2E/DX2                !
 ! D28   D(13,9,10,11)           1.8719         estimate D2E/DX2                !
 ! D29   D(3,9,13,12)         -179.8229         estimate D2E/DX2                !
 ! D30   D(3,9,13,14)           -9.0614         estimate D2E/DX2                !
 ! D31   D(10,9,13,12)          -2.0907         estimate D2E/DX2                !
 ! D32   D(10,9,13,14)         168.6708         estimate D2E/DX2                !
 ! D33   D(9,10,11,12)          -1.2126         estimate D2E/DX2                !
 ! D34   D(9,10,11,17)        -149.9054         estimate D2E/DX2                !
 ! D35   D(10,11,12,13)          0.1993         estimate D2E/DX2                !
 ! D36   D(10,11,12,15)       -154.0096         estimate D2E/DX2                !
 ! D37   D(17,11,12,13)        153.9742         estimate D2E/DX2                !
 ! D38   D(17,11,12,15)         -0.2346         estimate D2E/DX2                !
 ! D39   D(10,11,17,16)        149.748          estimate D2E/DX2                !
 ! D40   D(10,11,17,19)        -14.0975         estimate D2E/DX2                !
 ! D41   D(12,11,17,16)          1.1066         estimate D2E/DX2                !
 ! D42   D(12,11,17,19)       -162.7388         estimate D2E/DX2                !
 ! D43   D(11,12,13,9)           1.2551         estimate D2E/DX2                !
 ! D44   D(11,12,13,14)       -169.5945         estimate D2E/DX2                !
 ! D45   D(15,12,13,9)         150.5437         estimate D2E/DX2                !
 ! D46   D(15,12,13,14)        -20.3059         estimate D2E/DX2                !
 ! D47   D(11,12,15,16)         -0.5378         estimate D2E/DX2                !
 ! D48   D(13,12,15,16)       -149.8124         estimate D2E/DX2                !
 ! D49   D(12,15,16,17)          1.1735         estimate D2E/DX2                !
 ! D50   D(12,15,16,18)        170.2168         estimate D2E/DX2                !
 ! D51   D(15,16,17,11)         -1.5065         estimate D2E/DX2                !
 ! D52   D(15,16,17,19)        162.603          estimate D2E/DX2                !
 ! D53   D(18,16,17,11)       -170.2967         estimate D2E/DX2                !
 ! D54   D(18,16,17,19)         -6.1872         estimate D2E/DX2                !
 --------------------------------------------------------------------------------
 Trust Radius=3.00D-01 FncErr=1.00D-07 GrdErr=1.00D-07 EigMax=2.50D+02 EigMin=1.00D-04
 Number of steps in this run=    127 maximum allowed number of steps=    132.
 GradGradGradGradGradGradGradGradGradGradGradGradGradGradGradGradGradGrad

                          Input orientation:                          
 ---------------------------------------------------------------------
 Center     Atomic      Atomic             Coordinates (Angstroms)
 Number     Number       Type             X           Y           Z
 ---------------------------------------------------------------------
      1          6           0       -4.250000   -1.360000   -0.210000
      2          6           0       -2.930000   -0.950000   -0.610000
      3          6           0       -1.970000   -2.050000   -0.620000
      4          6           0       -2.660000    0.470000   -0.960000
      5          6           0       -4.330000   -2.760000    0.100000
      6          1           0       -5.100000   -0.700000   -0.140000
      7         16           0       -2.800000   -3.560000   -0.110000
      8          1           0       -5.230000   -3.270000    0.410000
      9          6           0       -0.560000   -2.130000   -0.970000
     10         16           0       -0.015000   -2.624000   -2.602000
     11          6           0        1.656000   -2.455000   -2.187000
     12          6           0        1.842000   -2.000000   -0.832000
     13          6           0        0.602000   -1.798000   -0.143000
     14          1           0        0.536000   -1.308000    0.816000
     15         16           0        3.340000   -1.160000   -0.609000
     16          6           0        3.773000   -1.401000   -2.303000
     17          6           0        2.746000   -2.105000   -3.037000
     18          1           0        4.619000   -0.907000   -2.760000
     19          1           0        2.697000   -2.107000   -4.122000
     20          1           0       -3.550000    1.090000   -0.830000
     21          1           0       -2.350000    0.560000   -2.000000
     22          1           0       -1.880000    0.890000   -0.310000
 ---------------------------------------------------------------------
                    Distance matrix (angstroms):
                    1          2          3          4          5
     1  C    0.000000
     2  C    1.438923   0.000000
     3  C    2.417147   1.460034   0.000000
     4  C    2.537617   1.487212   2.634787   0.000000
     5  C    1.436141   2.395871   2.567509   3.787532   0.000000
     6  H    1.078425   2.234346   3.442354   2.827525   2.212261
     7  S    2.636759   2.660639   1.796970   4.121044   1.739253
     8  H    2.234480   3.422397   3.630000   4.740190   1.079907
     9  C    3.845335   2.671872   1.454991   3.342170   3.969219
    10  S    5.025394   3.907373   2.842503   4.389194   5.092988
    11  C    6.323637   5.077731   3.970817   5.356212   6.415262
    12  C    6.157024   4.891193   3.818218   5.136661   6.288069
    13  C    4.872190   3.662269   2.627968   4.056101   5.030817
    14  H    4.895015   3.764943   2.982062   4.065695   5.128247
    15  S    7.603111   6.273516   5.384080   6.227367   7.867120
    16  C    8.291614   6.928193   6.019613   6.832846   8.560368
    17  C    7.582280   6.280233   5.299582   6.337933   7.767855
    18  H    9.239419   7.849315   7.021465   7.623645   9.575897
    19  H    8.007656   6.733196   5.835079   6.733248   8.223772
    20  H    2.622384   2.143455   3.521378   1.092428   4.036806
    21  H    3.240447   2.132745   2.976726   1.088944   4.399182
    22  H    3.269465   2.139650   2.957668   1.098772   4.415099
                    6          7          8          9         10
     6  H    0.000000
     7  S    3.670218   0.000000
     8  H    2.631406   2.501879   0.000000
     9  C    4.831708   2.793224   5.001290   0.000000
    10  S    5.968287   3.852582   6.056871   1.790108   0.000000
    11  C    7.274185   5.038937   7.404433   2.548994   1.730037
    12  C    7.096494   4.950055   7.291683   2.409470   2.640213
    13  C    5.806756   3.831362   6.040266   1.464376   2.666392
    14  H    5.748747   4.130118   6.104182   2.250932   3.703806
    15  S    8.465528   6.611248   8.884557   4.035000   4.167898
    16  C    9.159700   7.257745   9.586842   4.591647   3.991751
    17  C    8.480940   6.437583   8.766733   3.899070   2.842834
    18  H   10.068079   8.312790  10.612986   5.614434   4.944392
    19  H    8.867310   6.958762   9.204831   4.532514   3.151608
    20  H    2.466313   4.764808   4.834211   4.396374   5.424943
    21  H    3.551014   4.555107   5.363898   3.391327   3.994056
    22  H    3.595191   4.548505   5.389480   3.361309   4.591262
                   11         12         13         14         15
    11  C    0.000000
    12  C    1.441404   0.000000
    13  C    2.391757   1.432873   0.000000
    14  H    3.404118   2.213686   1.078952   0.000000
    15  S    2.646312   1.731858   2.849709   3.148801   0.000000
    16  C    2.367712   2.500281   3.857259   4.496107   1.764995
    17  C    1.425868   2.385428   3.614723   4.512751   2.672273
    18  H    3.391755   3.552965   4.876357   5.442377   2.515283
    19  H    2.224637   3.400967   4.507432   5.449052   3.694784
    20  H    6.442896   6.214641   5.104078   5.015488   7.251444
    21  H    5.017293   5.048830   4.209859   4.443903   6.104865
    22  H    5.216843   4.741083   3.662452   3.454871   5.616075
                   16         17         18         19         20
    16  C    0.000000
    17  C    1.445372   0.000000
    18  H    1.081019   2.240549   0.000000
    19  H    2.228222   1.086108   2.643696   0.000000
    20  H    7.874080   7.397195   8.628179   7.751328   0.000000
    21  H    6.436494   5.843527   7.162168   6.089990   1.757783
    22  H    6.416942   6.148693   7.174170   6.668004   1.760483
                   21         22
    21  H    0.000000
    22  H    1.784909   0.000000
 Stoichiometry    C11H8S3
 Framework group  C1[X(C11H8S3)]
 Deg. of freedom    60
 Full point group                 C1      NOp   1
 Largest Abelian subgroup         C1      NOp   1
 Largest concise Abelian subgroup C1      NOp   1
                         Standard orientation:                         
 ---------------------------------------------------------------------
 Center     Atomic      Atomic             Coordinates (Angstroms)
 Number     Number       Type             X           Y           Z
 ---------------------------------------------------------------------
      1          6           0        3.986308    0.794885    0.231521
      2          6           0        2.586959    1.068827    0.424592
      3          6           0        1.722331    0.015397   -0.099243
      4          6           0        2.154497    2.322012    1.098614
      5          6           0        4.223716   -0.450944   -0.442309
      6          1           0        4.785822    1.445757    0.547975
      7         16           0        2.740809   -1.276684   -0.821967
      8          1           0        5.201106   -0.846861   -0.675030
      9          6           0        0.278512   -0.163948   -0.114144
     10         16           0       -0.571134   -1.118086    1.139734
     11          6           0       -2.121032   -0.833323    0.425763
     12          6           0       -2.040654    0.001956   -0.746199
     13          6           0       -0.697560    0.398123   -1.049963
     14          1           0       -0.459236    1.149683   -1.786507
     15         16           0       -3.507776    0.870910   -1.049193
     16          6           0       -4.278404    0.140096    0.360505
     17          6           0       -3.389203   -0.749809    1.072188
     18          1           0       -5.233771    0.477254    0.737599
     19          1           0       -3.574931   -1.072466    2.092496
     20          1           0        3.008550    2.952392    1.356711
     21          1           0        1.622591    2.100682    2.022676
     22          1           0        1.506672    2.915683    0.438934
 ---------------------------------------------------------------------
 Rotational constants (GHZ):           1.2040066           0.2573405           0.2473159
 Standard basis: Aug-CC-pVDZ (5D, 7F)
 There are   434 symmetry adapted cartesian basis functions of A   symmetry.
 There are   406 symmetry adapted basis functions of A   symmetry.
   406 basis functions,   804 primitive gaussians,   434 cartesian basis functions
    61 alpha electrons       61 beta electrons
       nuclear repulsion energy      1103.8562619661 Hartrees.
 NAtoms=   22 NActive=   22 NUniq=   22 SFac= 1.00D+00 NAtFMM=   60 NAOKFM=F Big=F
 Integral buffers will be    131072 words long.
 Raffenetti 1 integral format.
 Two-electron integral symmetry is turned on.
 One-electron integrals computed using PRISM.
 NBasis=   406 RedAO= T EigKep=  5.47D-06  NBF=   406
 NBsUse=   406 1.00D-06 EigRej= -1.00D+00 NBFU=   406
 ExpMin= 2.97D-02 ExpMax= 1.11D+05 ExpMxC= 1.07D+03 IAcc=3 IRadAn=         5 AccDes= 0.00D+00
 Harris functional with IExCor=  205 and IRadAn=       5 diagonalized for initial guess.
 HarFok:  IExCor=  205 AccDes= 0.00D+00 IRadAn=         5 IDoV= 1 UseB2=F ITyADJ=14
 ICtDFT=  3500011 ScaDFX=  1.000000  1.000000  1.000000  1.000000
 FoFCou: FMM=F IPFlag=           0 FMFlag=      100000 FMFlg1=           0
         NFxFlg=           0 DoJE=T BraDBF=F KetDBF=T FulRan=T
         wScrn=  0.000000 ICntrl=       500 IOpCl=  0 I1Cent=   200000004 NGrid=           0
         NMat0=    1 NMatS0=      1 NMatT0=    0 NMatD0=    1 NMtDS0=    0 NMtDT0=    0
 Petite list used in FoFCou.
 Requested convergence on RMS density matrix=1.00D-08 within 128 cycles.
 Requested convergence on MAX density matrix=1.00D-06.
 Requested convergence on             energy=1.00D-06.
 No special actions if energy rises.
 SCF Done:  E(RHF) =  -1613.75015954     A.U. after   18 cycles
            NFock= 18  Conv=0.49D-08     -V/T= 2.0010

 **********************************************************************

            Population analysis using the SCF Density.

 **********************************************************************

 Orbital symmetries:
       Occupied  (A) (A) (A) (A) (A) (A) (A) (A) (A) (A) (A) (A)
                 (A) (A) (A) (A) (A) (A) (A) (A) (A) (A) (A) (A)
                 (A) (A) (A) (A) (A) (A) (A) (A) (A) (A) (A) (A)
                 (A) (A) (A) (A) (A) (A) (A) (A) (A) (A) (A) (A)
                 (A) (A) (A) (A) (A) (A) (A) (A) (A) (A) (A) (A)
                 (A)
       Virtual   (A) (A) (A) (A) (A) (A) (A) (A) (A) (A) (A) (A)
                 (A) (A) (A) (A) (A) (A) (A) (A) (A) (A) (A) (A)
                 (A) (A) (A) (A) (A) (A) (A) (A) (A) (A) (A) (A)
                 (A) (A) (A) (A) (A) (A) (A) (A) (A) (A) (A) (A)
                 (A) (A) (A) (A) (A) (A) (A) (A) (A) (A) (A) (A)
                 (A) (A) (A) (A) (A) (A) (A) (A) (A) (A) (A) (A)
                 (A) (A) (A) (A) (A) (A) (A) (A) (A) (A) (A) (A)
                 (A) (A) (A) (A) (A) (A) (A) (A) (A) (A) (A) (A)
                 (A) (A) (A) (A) (A) (A) (A) (A) (A) (A) (A) (A)
                 (A) (A) (A) (A) (A) (A) (A) (A) (A) (A) (A) (A)
                 (A) (A) (A) (A) (A) (A) (A) (A) (A) (A) (A) (A)
                 (A) (A) (A) (A) (A) (A) (A) (A) (A) (A) (A) (A)
                 (A) (A) (A) (A) (A) (A) (A) (A) (A) (A) (A) (A)
                 (A) (A) (A) (A) (A) (A) (A) (A) (A) (A) (A) (A)
                 (A) (A) (A) (A) (A) (A) (A) (A) (A) (A) (A) (A)
                 (A) (A) (A) (A) (A) (A) (A) (A) (A) (A) (A) (A)
                 (A) (A) (A) (A) (A) (A) (A) (A) (A) (A) (A) (A)
                 (A) (A) (A) (A) (A) (A) (A) (A) (A) (A) (A) (A)
                 (A) (A) (A) (A) (A) (A) (A) (A) (A) (A) (A) (A)
                 (A) (A) (A) (A) (A) (A) (A) (A) (A) (A) (A) (A)
                 (A) (A) (A) (A) (A) (A) (A) (A) (A) (A) (A) (A)
                 (A) (A) (A) (A) (A) (A) (A) (A) (A) (A) (A) (A)
                 (A) (A) (A) (A) (A) (A) (A) (A) (A) (A) (A) (A)
                 (A) (A) (A) (A) (A) (A) (A) (A) (A) (A) (A) (A)
                 (A) (A) (A) (A) (A) (A) (A) (A) (A) (A) (A) (A)
                 (A) (A) (A) (A) (A) (A) (A) (A) (A) (A) (A) (A)
                 (A) (A) (A) (A) (A) (A) (A) (A) (A) (A) (A) (A)
                 (A) (A) (A) (A) (A) (A) (A) (A) (A) (A) (A) (A)
                 (A) (A) (A) (A) (A) (A) (A) (A) (A)
 The electronic state is 1-A.
 Alpha  occ. eigenvalues --  -92.00114 -91.99683 -91.99406 -11.30401 -11.29496
 Alpha  occ. eigenvalues --  -11.28944 -11.28702 -11.28675 -11.28473 -11.27659
 Alpha  occ. eigenvalues --  -11.27475 -11.27289 -11.25469 -11.23918  -9.00173
 Alpha  occ. eigenvalues --   -8.99715  -8.99366  -6.68339  -6.68250  -6.68061
 Alpha  occ. eigenvalues --   -6.67877  -6.67780  -6.67596  -6.67520  -6.67420
 Alpha  occ. eigenvalues --   -6.67264  -1.19757  -1.15904  -1.10302  -1.03602
 Alpha  occ. eigenvalues --   -1.03199  -1.00440  -0.94400  -0.93637  -0.90660
 Alpha  occ. eigenvalues --   -0.81962  -0.77392  -0.75978  -0.71762  -0.69643
 Alpha  occ. eigenvalues --   -0.66213  -0.65808  -0.60353  -0.58871  -0.58242
 Alpha  occ. eigenvalues --   -0.56399  -0.55539  -0.54189  -0.53621  -0.52895
 Alpha  occ. eigenvalues --   -0.51401  -0.50691  -0.48773  -0.47280  -0.46532
 Alpha  occ. eigenvalues --   -0.44753  -0.38734  -0.34066  -0.32041  -0.31020
 Alpha  occ. eigenvalues --   -0.28262
 Alpha virt. eigenvalues --    0.03397   0.03545   0.04150   0.04621   0.04911
 Alpha virt. eigenvalues --    0.05675   0.06222   0.06685   0.07365   0.07852
 Alpha virt. eigenvalues --    0.08340   0.08586   0.09233   0.10136   0.10758
 Alpha virt. eigenvalues --    0.11111   0.11551   0.11948   0.12383   0.12880
 Alpha virt. eigenvalues --    0.13181   0.13403   0.13786   0.14000   0.14180
 Alpha virt. eigenvalues --    0.14476   0.15061   0.15364   0.15660   0.16165
 Alpha virt. eigenvalues --    0.16472   0.16944   0.17196   0.17411   0.17767
 Alpha virt. eigenvalues --    0.18353   0.18805   0.19035   0.19302   0.19428
 Alpha virt. eigenvalues --    0.20104   0.20574   0.20977   0.21147   0.21626
 Alpha virt. eigenvalues --    0.21825   0.22634   0.23047   0.23209   0.23367
 Alpha virt. eigenvalues --    0.24515   0.25052   0.25241   0.25745   0.26411
 Alpha virt. eigenvalues --    0.26646   0.26820   0.27740   0.27909   0.29075
 Alpha virt. eigenvalues --    0.29262   0.29890   0.30399   0.31070   0.31257
 Alpha virt. eigenvalues --    0.31765   0.31966   0.32893   0.33363   0.33659
 Alpha virt. eigenvalues --    0.33930   0.34565   0.35455   0.35760   0.36345
 Alpha virt. eigenvalues --    0.36389   0.37403   0.38186   0.38868   0.39327
 Alpha virt. eigenvalues --    0.39885   0.40154   0.40642   0.41472   0.41753
 Alpha virt. eigenvalues --    0.42797   0.43454   0.43721   0.44126   0.44715
 Alpha virt. eigenvalues --    0.45389   0.46004   0.46722   0.46996   0.47679
 Alpha virt. eigenvalues --    0.48193   0.49095   0.49359   0.50243   0.50633
 Alpha virt. eigenvalues --    0.51477   0.51679   0.52665   0.53547   0.53928
 Alpha virt. eigenvalues --    0.54579   0.55452   0.55849   0.56040   0.56885
 Alpha virt. eigenvalues --    0.57354   0.58009   0.58139   0.58603   0.60261
 Alpha virt. eigenvalues --    0.60606   0.61095   0.61664   0.62717   0.63183
 Alpha virt. eigenvalues --    0.63982   0.64476   0.64757   0.65006   0.65713
 Alpha virt. eigenvalues --    0.66594   0.66981   0.67287   0.67743   0.68098
 Alpha virt. eigenvalues --    0.68417   0.68739   0.69326   0.69961   0.70525
 Alpha virt. eigenvalues --    0.70580   0.71310   0.72191   0.72705   0.73009
 Alpha virt. eigenvalues --    0.73360   0.74275   0.74743   0.75914   0.76133
 Alpha virt. eigenvalues --    0.76360   0.76590   0.77539   0.77723   0.78852
 Alpha virt. eigenvalues --    0.79179   0.79352   0.80099   0.80874   0.81565
 Alpha virt. eigenvalues --    0.81848   0.83779   0.84167   0.84770   0.85830
 Alpha virt. eigenvalues --    0.86548   0.88011   0.88351   0.89024   0.89520
 Alpha virt. eigenvalues --    0.89807   0.90708   0.90875   0.91770   0.92830
 Alpha virt. eigenvalues --    0.93083   0.93620   0.94816   0.95266   0.96404
 Alpha virt. eigenvalues --    0.97223   0.97838   0.98567   0.99241   0.99831
 Alpha virt. eigenvalues --    1.00218   1.00636   1.01706   1.02612   1.03231
 Alpha virt. eigenvalues --    1.04459   1.05179   1.06042   1.07447   1.09486
 Alpha virt. eigenvalues --    1.10299   1.11111   1.11587   1.12643   1.13841
 Alpha virt. eigenvalues --    1.15080   1.16147   1.16787   1.17161   1.18995
 Alpha virt. eigenvalues --    1.19854   1.20652   1.21258   1.21718   1.23092
 Alpha virt. eigenvalues --    1.24111   1.25129   1.25736   1.26414   1.28485
 Alpha virt. eigenvalues --    1.28690   1.28799   1.29707   1.30312   1.31029
 Alpha virt. eigenvalues --    1.32529   1.33439   1.34034   1.34412   1.35933
 Alpha virt. eigenvalues --    1.37464   1.38456   1.39319   1.41123   1.42588
 Alpha virt. eigenvalues --    1.44748   1.45365   1.46558   1.47416   1.49109
 Alpha virt. eigenvalues --    1.51833   1.54261   1.54849   1.55907   1.56441
 Alpha virt. eigenvalues --    1.57364   1.58713   1.59381   1.59742   1.62464
 Alpha virt. eigenvalues --    1.62719   1.64558   1.65685   1.66158   1.66477
 Alpha virt. eigenvalues --    1.67806   1.68820   1.70285   1.70490   1.71280
 Alpha virt. eigenvalues --    1.73397   1.74684   1.75143   1.75892   1.76819
 Alpha virt. eigenvalues --    1.77558   1.77769   1.79270   1.81148   1.81343
 Alpha virt. eigenvalues --    1.82388   1.83126   1.84762   1.85781   1.87163
 Alpha virt. eigenvalues --    1.88326   1.89825   1.91639   1.92777   1.93275
 Alpha virt. eigenvalues --    1.94912   1.96212   1.97305   1.97859   1.99851
 Alpha virt. eigenvalues --    2.00466   2.02300   2.02825   2.05207   2.06016
 Alpha virt. eigenvalues --    2.07605   2.09618   2.10652   2.11431   2.12959
 Alpha virt. eigenvalues --    2.13547   2.15552   2.15877   2.16794   2.18223
 Alpha virt. eigenvalues --    2.19345   2.19824   2.21512   2.23226   2.23719
 Alpha virt. eigenvalues --    2.24706   2.25485   2.26927   2.29580   2.29623
 Alpha virt. eigenvalues --    2.31281   2.33574   2.34913   2.35562   2.37069
 Alpha virt. eigenvalues --    2.38377   2.39173   2.40560   2.43016   2.44497
 Alpha virt. eigenvalues --    2.45904   2.48465   2.49905   2.50559   2.52252
 Alpha virt. eigenvalues --    2.54254   2.56651   2.60023   2.61238   2.65121
 Alpha virt. eigenvalues --    2.69148   2.72382   2.73812   2.76573   2.79381
 Alpha virt. eigenvalues --    2.81917   2.83783   2.84858   2.87090   2.89754
 Alpha virt. eigenvalues --    2.93406   2.95375   3.00787   3.02211   3.04604
 Alpha virt. eigenvalues --    3.13830   3.20044   3.21480   3.25231   3.30502
 Alpha virt. eigenvalues --    3.42124   3.61098   3.75113   4.11489   4.16400
          Condensed to atoms (all electrons):
               1          2          3          4          5          6
     1  C    9.469051  -1.912590  -0.422451  -1.013348   0.122673  -0.478857
     2  C   -1.912590   9.587595  -1.774777   0.269346   0.308526   0.369907
     3  C   -0.422451  -1.774777  12.417604  -0.992379  -1.357427   0.029432
     4  C   -1.013348   0.269346  -0.992379   6.485442   0.161304   0.089611
     5  C    0.122673   0.308526  -1.357427   0.161304   6.342651  -0.088097
     6  H   -0.478857   0.369907   0.029432   0.089611  -0.088097   1.717643
     7  S   -0.599773   0.161852  -0.229594   0.121797   0.361211  -0.011625
     8  H    0.006143   0.064749   0.024579   0.019514   0.218249  -0.080491
     9  C    0.180662  -0.349815  -2.327826  -0.019149   0.269982   0.001689
    10  S    0.016176   0.043546  -0.323309  -0.057173  -0.005124  -0.002541
    11  C    0.016917   0.007910  -0.011199   0.054504   0.021525   0.000929
    12  C   -0.031195  -0.015813   0.328125   0.055839  -0.007931  -0.000515
    13  C   -0.102028  -0.073917   0.133039  -0.039210  -0.063497   0.001603
    14  H    0.018389   0.050127  -0.024437   0.029141  -0.004135   0.000273
    15  S   -0.006070  -0.012798   0.040666   0.000850   0.001050  -0.000204
    16  C   -0.001269  -0.008403   0.058021   0.003382  -0.000013   0.000001
    17  C    0.005119   0.037679  -0.251045  -0.017877  -0.000062   0.000096
    18  H   -0.000104  -0.000382   0.002857   0.000429   0.000032  -0.000003
    19  H    0.000335   0.000368  -0.011127  -0.001216   0.000005   0.000012
    20  H    0.069807   0.089351   0.059330  -0.122058   0.003284  -0.030533
    21  H    0.007014   0.015533  -0.055498   0.373984   0.005070   0.001261
    22  H   -0.015823   0.030000  -0.017569   0.315402   0.006893  -0.000401
               7          8          9         10         11         12
     1  C   -0.599773   0.006143   0.180662   0.016176   0.016917  -0.031195
     2  C    0.161852   0.064749  -0.349815   0.043546   0.007910  -0.015813
     3  C   -0.229594   0.024579  -2.327826  -0.323309  -0.011199   0.328125
     4  C    0.121797   0.019514  -0.019149  -0.057173   0.054504   0.055839
     5  C    0.361211   0.218249   0.269982  -0.005124   0.021525  -0.007931
     6  H   -0.011625  -0.080491   0.001689  -0.002541   0.000929  -0.000515
     7  S   15.992979  -0.161983  -0.267615   0.133565  -0.035521  -0.013843
     8  H   -0.161983   1.238862  -0.006978   0.001554   0.000027  -0.000320
     9  C   -0.267615  -0.006978  10.284750   0.248795  -0.075412  -0.334800
    10  S    0.133565   0.001554   0.248795  16.096207   0.112871  -0.257048
    11  C   -0.035521   0.000027  -0.075412   0.112871   7.357112   0.257241
    12  C   -0.013843  -0.000320  -0.334800  -0.257048   0.257241   8.071328
    13  C    0.103316   0.002892  -1.622698  -0.352173  -0.344851  -1.598925
    14  H    0.003962   0.000090   0.107401   0.046347  -0.044255   0.244290
    15  S    0.004322   0.000042  -0.174065  -0.004830  -0.023553   0.077875
    16  C   -0.003540  -0.000005   0.091584  -0.051412   0.098451  -0.243023
    17  C    0.014072   0.000054  -0.220882  -0.022239  -1.087191   0.004760
    18  H   -0.000168   0.000002  -0.003506  -0.005222  -0.024366   0.014394
    19  H    0.001549  -0.000004   0.062335  -0.037133   0.226302  -0.023682
    20  H   -0.008492   0.001879   0.030396   0.005395   0.001951  -0.002155
    21  H    0.009352   0.000690  -0.035786   0.001896  -0.002869   0.006284
    22  H    0.009502   0.001145  -0.028847  -0.008204  -0.002119   0.001041
              13         14         15         16         17         18
     1  C   -0.102028   0.018389  -0.006070  -0.001269   0.005119  -0.000104
     2  C   -0.073917   0.050127  -0.012798  -0.008403   0.037679  -0.000382
     3  C    0.133039  -0.024437   0.040666   0.058021  -0.251045   0.002857
     4  C   -0.039210   0.029141   0.000850   0.003382  -0.017877   0.000429
     5  C   -0.063497  -0.004135   0.001050  -0.000013  -0.000062   0.000032
     6  H    0.001603   0.000273  -0.000204   0.000001   0.000096  -0.000003
     7  S    0.103316   0.003962   0.004322  -0.003540   0.014072  -0.000168
     8  H    0.002892   0.000090   0.000042  -0.000005   0.000054   0.000002
     9  C   -1.622698   0.107401  -0.174065   0.091584  -0.220882  -0.003506
    10  S   -0.352173   0.046347  -0.004830  -0.051412  -0.022239  -0.005222
    11  C   -0.344851  -0.044255  -0.023553   0.098451  -1.087191  -0.024366
    12  C   -1.598925   0.244290   0.077875  -0.243023   0.004760   0.014394
    13  C    9.964645  -0.518908  -0.030505  -0.320035   0.503555   0.030416
    14  H   -0.518908   1.603173  -0.055575   0.000558  -0.012769   0.001556
    15  S   -0.030505  -0.055575  15.663961   0.206832  -0.243948  -0.130708
    16  C   -0.320035   0.000558   0.206832   5.834771   0.191293   0.234343
    17  C    0.503555  -0.012769  -0.243948   0.191293   6.698743   0.036350
    18  H    0.030416   0.001556  -0.130708   0.234343   0.036350   1.239863
    19  H   -0.020248  -0.000618   0.004208  -0.047571  -0.162195  -0.057799
    20  H    0.002786   0.001046   0.000183  -0.000036  -0.001079   0.000009
    21  H   -0.005983   0.001479  -0.000617   0.000296   0.001533   0.000036
    22  H    0.009210   0.001124   0.001199  -0.000035   0.002108   0.000025
              19         20         21         22
     1  C    0.000335   0.069807   0.007014  -0.015823
     2  C    0.000368   0.089351   0.015533   0.030000
     3  C   -0.011127   0.059330  -0.055498  -0.017569
     4  C   -0.001216  -0.122058   0.373984   0.315402
     5  C    0.000005   0.003284   0.005070   0.006893
     6  H    0.000012  -0.030533   0.001261  -0.000401
     7  S    0.001549  -0.008492   0.009352   0.009502
     8  H   -0.000004   0.001879   0.000690   0.001145
     9  C    0.062335   0.030396  -0.035786  -0.028847
    10  S   -0.037133   0.005395   0.001896  -0.008204
    11  C    0.226302   0.001951  -0.002869  -0.002119
    12  C   -0.023682  -0.002155   0.006284   0.001041
    13  C   -0.020248   0.002786  -0.005983   0.009210
    14  H   -0.000618   0.001046   0.001479   0.001124
    15  S    0.004208   0.000183  -0.000617   0.001199
    16  C   -0.047571  -0.000036   0.000296  -0.000035
    17  C   -0.162195  -0.001079   0.001533   0.002108
    18  H   -0.057799   0.000009   0.000036   0.000025
    19  H    1.391308  -0.000028   0.000112  -0.000009
    20  H   -0.000028   1.325753  -0.107234  -0.089456
    21  H    0.000112  -0.107234   0.794762  -0.116364
    22  H   -0.000009  -0.089456  -0.116364   0.780062
 Mulliken charges:
               1
     1  C    0.671220
     2  C   -0.887992
     3  C    0.704985
     4  C    0.281865
     5  C   -0.296168
     6  H   -0.519192
     7  S    0.414677
     8  H   -0.330690
     9  C    0.189783
    10  S    0.420055
    11  C   -0.504407
    12  C   -0.531928
    13  C    0.341518
    14  H   -0.448259
    15  S    0.681689
    16  C   -0.044189
    17  C    0.523925
    18  H   -0.338056
    19  H   -0.324904
    20  H   -0.230099
    21  H    0.105051
    22  H    0.121115
 Sum of Mulliken charges =  -0.00000
 Mulliken charges with hydrogens summed into heavy atoms:
               1
     1  C    0.152029
     2  C   -0.887992
     3  C    0.704985
     4  C    0.277932
     5  C   -0.626857
     7  S    0.414677
     9  C    0.189783
    10  S    0.420055
    11  C   -0.504407
    12  C   -0.531928
    13  C   -0.106741
    15  S    0.681689
    16  C   -0.382245
    17  C    0.199021
 Electronic spatial extent (au):  <R**2>=           4436.9816
 Charge=              0.0000 electrons
 Dipole moment (field-independent basis, Debye):
    X=              0.4781    Y=              2.0956    Z=              1.2052  Tot=              2.4643
 Quadrupole moment (field-independent basis, Debye-Ang):
   XX=            -89.5841   YY=           -105.0565   ZZ=           -105.0169
   XY=              0.8045   XZ=             -4.4595   YZ=             -0.6794
 Traceless Quadrupole moment (field-independent basis, Debye-Ang):
   XX=             10.3017   YY=             -5.1707   ZZ=             -5.1311
   XY=              0.8045   XZ=             -4.4595   YZ=             -0.6794
 Octapole moment (field-independent basis, Debye-Ang**2):
  XXX=             24.6692  YYY=             12.7366  ZZZ=              8.1026  XYY=             13.4111
  XXY=             16.1429  XXZ=             26.2543  XZZ=            -10.7824  YZZ=              2.0698
  YYZ=              1.9751  XYZ=             16.5264
 Hexadecapole moment (field-independent basis, Debye-Ang**3):
 XXXX=          -4322.7836 YYYY=           -822.8442 ZZZZ=           -585.5304 XXXY=           -102.7437
 XXXZ=           -139.7580 YYYX=              5.7559 YYYZ=              4.9071 ZZZX=            -16.3721
 ZZZY=            -16.2938 XXYY=           -946.8274 XXZZ=           -939.5997 YYZZ=           -225.7869
 XXYZ=             31.0435 YYXZ=              5.5260 ZZXY=              7.3079
 N-N= 1.103856261966D+03 E-N=-6.026240059985D+03  KE= 1.612214962429D+03
 Calling FoFJK, ICntrl=      2127 FMM=F ISym2X=0 I1Cent= 0 IOpClX= 0 NMat=1 NMatS=1 NMatT=0.
 ***** Axes restored to original set *****
 -------------------------------------------------------------------
 Center     Atomic                   Forces (Hartrees/Bohr)
 Number     Number              X              Y              Z
 -------------------------------------------------------------------
      1        6           0.016692335   -0.076687583    0.013324030
      2        6           0.030838397   -0.064782287    0.005246440
      3        6          -0.076099136    0.028057158    0.013242568
      4        6           0.010914724    0.013980438    0.000354779
      5        6           0.014285725    0.064130905   -0.018417522
      6        1           0.001129554    0.000467315   -0.000292796
      7       16          -0.008001640    0.031959813   -0.004416241
      8        1           0.004404196   -0.002994004    0.000041230
      9        6           0.085426014    0.024360401    0.031832141
     10       16          -0.005643151   -0.004501332    0.022861665
     11        6           0.011285129    0.033551387    0.042504304
     12        6          -0.031939166   -0.004428355   -0.046595306
     13        6          -0.057934644   -0.020061937   -0.052532638
     14        1          -0.004892591   -0.006597014    0.002257687
     15       16           0.009098917   -0.012162348   -0.020043460
     16        6          -0.062031531   -0.032349781   -0.034161289
     17        6           0.051474713    0.045720417    0.038863703
     18        1           0.002482628   -0.005768624    0.006157848
     19        1           0.006495796   -0.008018162    0.005974328
     20        1           0.000918953   -0.004129610    0.000163607
     21        1           0.003303405    0.001789891    0.000290380
     22        1          -0.002208624   -0.001536688   -0.006655457
 -------------------------------------------------------------------
 Cartesian Forces:  Max     0.085426014 RMS     0.030141064

 GradGradGradGradGradGradGradGradGradGradGradGradGradGradGradGradGradGrad
 Berny optimization.
 FormGI is forming the generalized inverse of G from B-inverse, IUseBI=4.
 Internal  Forces:  Max     0.089488317 RMS     0.017302373
 Search for a local minimum.
 Step number   1 out of a maximum of  127
 All quantities printed in internal units (Hartrees-Bohrs-Radians)
 Mixed Optimization -- RFO/linear search
 Second derivative matrix not updated -- first step.
 ITU=  0
     Eigenvalues ---    0.00935   0.00982   0.01057   0.01215   0.01241
     Eigenvalues ---    0.01276   0.01298   0.01421   0.01457   0.01492
     Eigenvalues ---    0.01498   0.01592   0.01593   0.01769   0.02198
     Eigenvalues ---    0.02651   0.07307   0.07353   0.15077   0.15683
     Eigenvalues ---    0.15735   0.15997   0.16000   0.16000   0.16000
     Eigenvalues ---    0.16000   0.17992   0.22444   0.22545   0.23320
     Eigenvalues ---    0.23978   0.24718   0.24978   0.24995   0.25000
     Eigenvalues ---    0.26147   0.26565   0.28400   0.30920   0.31357
     Eigenvalues ---    0.31574   0.33757   0.33818   0.34533   0.34809
     Eigenvalues ---    0.34935   0.35266   0.35872   0.35877   0.36006
     Eigenvalues ---    0.36121   0.36185   0.36301   0.37598   0.38236
     Eigenvalues ---    0.38438   0.39458   0.39664   0.406461000.00000
     Eigenvalues --- 1000.000001000.000001000.000001000.000001000.00000
     Eigenvalues --- 1000.000001000.000001000.000001000.000001000.00000
     Eigenvalues --- 1000.000001000.000001000.000001000.000001000.00000
     Eigenvalues --- 1000.000001000.000001000.000001000.000001000.00000
     Eigenvalues --- 1000.000001000.000001000.000001000.000001000.00000
     Eigenvalues --- 1000.000001000.000001000.000001000.000001000.00000
     Eigenvalues --- 1000.000001000.000001000.000001000.000001000.00000
     Eigenvalues --- 1000.000001000.000001000.000001000.000001000.00000
     Eigenvalues --- 1000.000001000.000001000.000001000.000001000.00000
     Eigenvalues --- 1000.000001000.000001000.000001000.000001000.00000
     Eigenvalues --- 1000.000001000.000001000.000001000.000001000.00000
     Eigenvalues --- 1000.000001000.00000
 RFO step:  Lambda=-8.38919150D-02 EMin= 9.35106172D-03
 Linear search not attempted -- first point.
 Maximum step size (   0.300) exceeded in Quadratic search.
    -- Step size scaled by   0.712
 Iteration  1 RMS(Cart)=  0.06148928 RMS(Int)=  0.00100570
 Iteration  2 RMS(Cart)=  0.00161913 RMS(Int)=  0.00034107
 Iteration  3 RMS(Cart)=  0.00000129 RMS(Int)=  0.00034107
 Iteration  4 RMS(Cart)=  0.00000000 RMS(Int)=  0.00034107
 Iteration  1 RMS(Cart)=  0.00000404 RMS(Int)=  0.00000156
 Iteration  2 RMS(Cart)=  0.00000220 RMS(Int)=  0.00000174
 Iteration  3 RMS(Cart)=  0.00000120 RMS(Int)=  0.00000197
 Iteration  4 RMS(Cart)=  0.00000066 RMS(Int)=  0.00000212
 Variable       Old X    -DE/DX   Delta X   Delta X   Delta X     New X
                                 (Linear)    (Quad)   (Total)
    R1        2.71917  -0.01180   0.00000  -0.01925  -0.01919   2.69998
    R2        2.71391  -0.07151   0.00000  -0.10586  -0.10591   2.60800
    R3        2.03793  -0.00062   0.00000  -0.00100  -0.00100   2.03693
    R4        2.75906  -0.08377   0.00000  -0.13196  -0.13187   2.62720
    R5        2.81042   0.01337   0.00000   0.02258   0.02258   2.83300
    R6        3.39578  -0.02806   0.00000  -0.05538  -0.05536   3.34042
    R7        2.74954   0.00386   0.00000   0.00598   0.00598   2.75551
    R8        2.06439  -0.00307   0.00000  -0.00510  -0.00510   2.05930
    R9        2.05781   0.00081   0.00000   0.00133   0.00133   2.05914
   R10        2.07638  -0.00609   0.00000  -0.01027  -0.01027   2.06610
   R11        3.28671  -0.02430   0.00000  -0.04198  -0.04208   3.24463
   R12        2.04073  -0.00224   0.00000  -0.00360  -0.00360   2.03713
   R13        3.38281  -0.01940   0.00000  -0.03591  -0.03628   3.34654
   R14        2.76727  -0.08949   0.00000  -0.14211  -0.14227   2.62500
   R15        3.26930  -0.00548   0.00000  -0.00842  -0.00840   3.26089
   R16        2.72386  -0.05530   0.00000  -0.08531  -0.08464   2.63922
   R17        2.69450   0.00285   0.00000   0.00198   0.00231   2.69681
   R18        2.70774  -0.00775   0.00000  -0.01352  -0.01328   2.69445
   R19        3.27274  -0.00240   0.00000  -0.00269  -0.00277   3.26996
   R20        2.03892  -0.00069   0.00000  -0.00110  -0.00110   2.03782
   R21        3.33536  -0.01827   0.00000  -0.03238  -0.03277   3.30259
   R22        2.73136  -0.08073   0.00000  -0.12207  -0.12214   2.60922
   R23        2.04283  -0.00330   0.00000  -0.00530  -0.00530   2.03753
   R24        2.05245  -0.00625   0.00000  -0.01018  -0.01018   2.04226
    A1        1.97020   0.00746   0.00000   0.01281   0.01282   1.98302
    A2        2.17330  -0.00484   0.00000  -0.00964  -0.00965   2.16365
    A3        2.13967  -0.00262   0.00000  -0.00316  -0.00316   2.13651
    A4        1.97187  -0.00148   0.00000  -0.00671  -0.00656   1.96531
    A5        2.09905   0.01337   0.00000   0.03026   0.03019   2.12924
    A6        2.21227  -0.01188   0.00000  -0.02355  -0.02363   2.18864
    A7        1.90440   0.00626   0.00000   0.01442   0.01453   1.91893
    A8        2.31891  -0.01562   0.00000  -0.03388  -0.03394   2.28498
    A9        2.05972   0.00937   0.00000   0.01940   0.01935   2.07907
   A10        1.94548  -0.00443   0.00000  -0.01209  -0.01206   1.93342
   A11        1.93409   0.00274   0.00000   0.00747   0.00748   1.94157
   A12        1.93331   0.00275   0.00000   0.00775   0.00776   1.94107
   A13        1.87410   0.00130   0.00000   0.00436   0.00438   1.87848
   A14        1.86607   0.00166   0.00000   0.00588   0.00591   1.87198
   A15        1.90848  -0.00419   0.00000  -0.01378  -0.01378   1.89469
   A16        1.95339  -0.00379   0.00000  -0.00908  -0.00922   1.94417
   A17        2.17580   0.00680   0.00000   0.01889   0.01895   2.19475
   A18        2.15384  -0.00301   0.00000  -0.00975  -0.00969   2.14415
   A19        1.62490  -0.00845   0.00000  -0.01141  -0.01155   1.61334
   A20        2.12883  -0.00325   0.00000  -0.00671  -0.00674   2.12208
   A21        2.24038  -0.00370   0.00000  -0.00769  -0.00773   2.23265
   A22        1.91330   0.00703   0.00000   0.01488   0.01487   1.92817
   A23        1.61923  -0.00669   0.00000  -0.01049  -0.01035   1.60887
   A24        1.96164  -0.01219   0.00000  -0.02189  -0.02255   1.93910
   A25        2.23870   0.00964   0.00000   0.03422   0.03304   2.27174
   A26        1.96521   0.00700   0.00000   0.01454   0.01472   1.97993
   A27        1.96585   0.00820   0.00000   0.01579   0.01590   1.98175
   A28        1.96684  -0.01438   0.00000  -0.02642  -0.02689   1.93995
   A29        2.23730   0.01030   0.00000   0.03502   0.03393   2.27123
   A30        1.96403   0.00368   0.00000   0.00193   0.00233   1.96636
   A31        2.16082  -0.00632   0.00000  -0.01255  -0.01304   2.14778
   A32        2.14641   0.00337   0.00000   0.01585   0.01537   2.16179
   A33        1.59319   0.00038   0.00000   0.00328   0.00335   1.59653
   A34        1.96015   0.00073   0.00000   0.00053   0.00035   1.96050
   A35        2.13571  -0.00374   0.00000  -0.00774  -0.00828   2.12742
   A36        2.16998   0.00432   0.00000   0.01625   0.01579   2.18576
   A37        1.93907   0.00627   0.00000   0.00810   0.00849   1.94755
   A38        2.16588  -0.00012   0.00000   0.00921   0.00829   2.17417
   A39        2.14155  -0.00393   0.00000  -0.00246  -0.00342   2.13813
    D1        0.00683  -0.00050   0.00000  -0.00462  -0.00464   0.00219
    D2       -3.13456  -0.00048   0.00000  -0.00450  -0.00451  -3.13908
    D3       -3.13952  -0.00017   0.00000  -0.00171  -0.00174  -3.14126
    D4        0.00227  -0.00014   0.00000  -0.00159  -0.00162   0.00065
    D5       -0.00671   0.00044   0.00000   0.00296   0.00294  -0.00378
    D6       -3.13020  -0.00000   0.00000   0.00014   0.00011  -3.13009
    D7        3.13954   0.00011   0.00000   0.00014   0.00011   3.13965
    D8        0.01605  -0.00032   0.00000  -0.00268  -0.00271   0.01334
    D9       -0.00388   0.00044   0.00000   0.00426   0.00424   0.00036
   D10        3.11762   0.00054   0.00000   0.00128   0.00129   3.11891
   D11        3.13750   0.00042   0.00000   0.00414   0.00411  -3.14157
   D12       -0.02418   0.00052   0.00000   0.00116   0.00116  -0.02302
   D13        0.03777  -0.00021   0.00000  -0.00107  -0.00107   0.03670
   D14       -2.04840  -0.00076   0.00000  -0.00357  -0.00356  -2.05196
   D15        2.11332   0.00082   0.00000   0.00356   0.00354   2.11686
   D16       -3.10360  -0.00018   0.00000  -0.00094  -0.00093  -3.10453
   D17        1.09342  -0.00073   0.00000  -0.00344  -0.00342   1.09000
   D18       -1.02805   0.00084   0.00000   0.00369   0.00368  -1.02437
   D19        0.00006  -0.00011   0.00000  -0.00211  -0.00216  -0.00210
   D20       -3.12486   0.00012   0.00000   0.00105   0.00109  -3.12376
   D21       -1.65796  -0.00114   0.00000   0.00000  -0.00000  -1.65797
   D22        1.43968   0.00164   0.00000   0.01604   0.01606   1.45574
   D23        1.46213  -0.00109   0.00000  -0.00330  -0.00329   1.45883
   D24       -1.72342   0.00169   0.00000   0.01275   0.01277  -1.71065
   D25        0.00376  -0.00015   0.00000  -0.00040  -0.00041   0.00335
   D26        3.12751   0.00040   0.00000   0.00273   0.00267   3.13018
   D27        3.13768   0.00102   0.00000   0.00650   0.00649  -3.13902
   D28        0.03267  -0.00109   0.00000  -0.00644  -0.00661   0.02606
   D29       -3.13850  -0.00187   0.00000  -0.01047  -0.01033   3.13435
   D30       -0.15815   0.00353   0.00000   0.02629   0.02619  -0.13197
   D31       -0.03649   0.00046   0.00000   0.00360   0.00389  -0.03260
   D32        2.94386   0.00585   0.00000   0.04036   0.04041   2.98427
   D33       -0.02116   0.00195   0.00000   0.00865   0.00855  -0.01261
   D34       -2.61634  -0.00858   0.00000  -0.05041  -0.05061  -2.66695
   D35        0.00348  -0.00154   0.00000  -0.00732  -0.00717  -0.00370
   D36       -2.68797  -0.01213   0.00000  -0.06224  -0.06095  -2.74892
   D37        2.68736   0.00930   0.00000   0.05083   0.04990   2.73726
   D38       -0.00410  -0.00129   0.00000  -0.00410  -0.00387  -0.00796
   D39        2.61360   0.00671   0.00000   0.05238   0.05331   2.66691
   D40       -0.24605  -0.00105   0.00000  -0.00278  -0.00232  -0.24836
   D41        0.01931   0.00099   0.00000   0.00239   0.00221   0.02152
   D42       -2.84033  -0.00677   0.00000  -0.05277  -0.05342  -2.89375
   D43        0.02191   0.00079   0.00000   0.00234   0.00217   0.02408
   D44       -2.95998  -0.00352   0.00000  -0.03106  -0.03164  -2.99162
   D45        2.62748   0.00542   0.00000   0.04693   0.04783   2.67531
   D46       -0.35440   0.00111   0.00000   0.01353   0.01402  -0.34039
   D47       -0.00939   0.00132   0.00000   0.00409   0.00399  -0.00539
   D48       -2.61472  -0.00892   0.00000  -0.05100  -0.05099  -2.66571
   D49        0.02048  -0.00061   0.00000  -0.00251  -0.00258   0.01790
   D50        2.97084   0.00703   0.00000   0.04864   0.04823   3.01907
   D51       -0.02629   0.00006   0.00000   0.00081   0.00101  -0.02528
   D52        2.83796   0.00838   0.00000   0.05724   0.05746   2.89542
   D53       -2.97224  -0.00671   0.00000  -0.04839  -0.04863  -3.02087
   D54       -0.10799   0.00161   0.00000   0.00804   0.00782  -0.10017
         Item               Value     Threshold  Converged?
 Maximum Force            0.089486     0.000450     NO 
 RMS     Force            0.017376     0.000300     NO 
 Maximum Displacement     0.209873     0.001800     NO 
 RMS     Displacement     0.061843     0.001200     NO 
 Predicted change in Energy=-4.356699D-02
 GradGradGradGradGradGradGradGradGradGradGradGradGradGradGradGradGradGrad

                          Input orientation:                          
 ---------------------------------------------------------------------
 Center     Atomic      Atomic             Coordinates (Angstroms)
 Number     Number       Type             X           Y           Z
 ---------------------------------------------------------------------
      1          6           0       -4.207177   -1.399157   -0.195720
      2          6           0       -2.897865   -0.995807   -0.601159
      3          6           0       -1.991524   -2.050001   -0.606086
      4          6           0       -2.582579    0.422261   -0.971510
      5          6           0       -4.302729   -2.741942    0.108363
      6          1           0       -5.049363   -0.729901   -0.127284
      7         16           0       -2.796942   -3.540081   -0.100490
      8          1           0       -5.197174   -3.254093    0.424210
      9          6           0       -0.580274   -2.094535   -0.970232
     10         16           0       -0.055812   -2.568151   -2.594040
     11          6           0        1.608953   -2.368228   -2.186300
     12          6           0        1.755105   -1.939831   -0.865068
     13          6           0        0.515617   -1.768109   -0.181539
     14          1           0        0.424940   -1.318618    0.794480
     15         16           0        3.277487   -1.151887   -0.628960
     16          6           0        3.719622   -1.406488   -2.300485
     17          6           0        2.727272   -2.049353   -3.013508
     18          1           0        4.610930   -0.974159   -2.726168
     19          1           0        2.723684   -2.093515   -4.093318
     20          1           0       -3.458932    1.058058   -0.847882
     21          1           0       -2.264321    0.497438   -2.010931
     22          1           0       -1.792918    0.831098   -0.335372
 ---------------------------------------------------------------------
                    Distance matrix (angstroms):
                    1          2          3          4          5
     1  C    0.000000
     2  C    1.428766   0.000000
     3  C    2.345446   1.390253   0.000000
     4  C    2.561003   1.499160   2.568066   0.000000
     5  C    1.380097   2.350756   2.516126   3.759950   0.000000
     6  H    1.077898   2.219055   3.364862   2.850477   2.159005
     7  S    2.565421   2.595031   1.767672   4.062608   1.716986
     8  H    2.192076   3.382021   3.575967   4.722259   1.078003
     9  C    3.773307   2.591263   1.458154   3.216130   3.929272
    10  S    4.934807   3.810657   2.822662   4.237891   5.036813
    11  C    6.223253   4.970676   3.944842   5.179912   6.352411
    12  C    6.024049   4.755098   3.757185   4.940274   6.187754
    13  C    4.737205   3.524825   2.558410   3.875641   4.924313
    14  H    4.737457   3.618431   2.887179   3.898019   4.984723
    15  S    7.501270   6.177387   5.345055   6.077471   7.780206
    16  C    8.201478   6.844523   5.991852   6.695389   8.481987
    17  C    7.513273   6.210600   5.297425   6.202673   7.723126
    18  H    9.183834   7.803726   7.017448   7.534944   9.519083
    19  H    7.981869   6.708349   5.864798   6.650657   8.212494
    20  H    2.650111   2.143368   3.445545   1.089732   4.008290
    21  H    3.266000   2.149096   2.921892   1.089649   4.374940
    22  H    3.289710   2.151541   2.900597   1.093336   4.388926
                    6          7          8          9         10
     6  H    0.000000
     7  S    3.601559   0.000000
     8  H    2.587961   2.473502   0.000000
     9  C    4.748215   2.785619   4.960324   0.000000
    10  S    5.865117   3.830957   6.001163   1.770911   0.000000
    11  C    7.159388   5.013558   7.343221   2.519215   1.725591
    12  C    6.950470   4.885337   7.191920   2.342859   2.581385
    13  C    5.661256   3.757593   5.933892   1.389088   2.605141
    14  H    5.582493   4.014523   5.957461   2.174099   3.643422
    15  S    8.352615   6.548393   8.794790   3.985897   4.120465
    16  C    9.059562   7.201237   9.505097   4.553250   3.961002
    17  C    8.399244   6.420661   8.721591   3.888043   2.861933
    18  H   10.006754   8.267691  10.550919   5.593492   4.933229
    19  H    8.832277   6.965094   9.192116   4.546405   3.193542
    20  H    2.499105   4.705285   4.820202   4.270888   5.270644
    21  H    3.579238   4.498337   5.348414   3.261501   3.823005
    22  H    3.617244   4.491152   5.371659   3.229997   4.435539
                   11         12         13         14         15
    11  C    0.000000
    12  C    1.396617   0.000000
    13  C    2.361057   1.425843   0.000000
    14  H    3.374702   2.215704   1.078368   0.000000
    15  S    2.586272   1.730391   2.864933   3.192335   0.000000
    16  C    2.322263   2.490824   3.858283   4.521223   1.747656
    17  C    1.427092   2.360698   3.604242   4.509487   2.606578
    18  H    3.353617   3.542874   4.886418   5.480522   2.491574
    19  H    2.225940   3.373923   4.503716   5.456670   3.632511
    20  H    6.262129   6.014467   4.922223   4.840496   7.093034
    21  H    4.821312   4.838291   4.025846   4.289582   5.944893
    22  H    5.023380   4.532889   3.479781   3.288881   5.452287
                   16         17         18         19         20
    16  C    0.000000
    17  C    1.380737   0.000000
    18  H    1.078213   2.187869   0.000000
    19  H    2.162903   1.080719   2.585296   0.000000
    20  H    7.727592   7.253624   8.531151   7.660940   0.000000
    21  H    6.286203   5.692742   7.067265   5.994127   1.758998
    22  H    6.265505   5.991788   7.069945   6.563170   1.757777
                   21         22
    21  H    0.000000
    22  H    1.772300   0.000000
 Stoichiometry    C11H8S3
 Framework group  C1[X(C11H8S3)]
 Deg. of freedom    60
 Full point group                 C1      NOp   1
 Largest Abelian subgroup         C1      NOp   1
 Largest concise Abelian subgroup C1      NOp   1
                         Standard orientation:                         
 ---------------------------------------------------------------------
 Center     Atomic      Atomic             Coordinates (Angstroms)
 Number     Number       Type             X           Y           Z
 ---------------------------------------------------------------------
      1          6           0        3.925989    0.773251    0.227796
      2          6           0        2.532718    1.027950    0.415663
      3          6           0        1.730264    0.017263   -0.101426
      4          6           0        2.036819    2.265314    1.101591
      5          6           0        4.187882   -0.413596   -0.426018
      6          1           0        4.709276    1.436058    0.557967
      7         16           0        2.738085   -1.245198   -0.819168
      8          1           0        5.166204   -0.801267   -0.659874
      9          6           0        0.280936   -0.142830   -0.107213
     10         16           0       -0.552709   -1.089217    1.135973
     11          6           0       -2.096077   -0.783607    0.427254
     12          6           0       -1.978004    0.024501   -0.705688
     13          6           0       -0.634568    0.401757   -0.998752
     14          1           0       -0.364291    1.126502   -1.750133
     15         16           0       -3.465468    0.839125   -1.049333
     16          6           0       -4.246221    0.087391    0.321660
     17          6           0       -3.390669   -0.736319    1.025910
     18          1           0       -5.239774    0.365708    0.634607
     19          1           0       -3.622968   -1.105813    2.014577
     20          1           0        2.868080    2.913148    1.378777
     21          1           0        1.491522    2.020135    2.012565
     22          1           0        1.379016    2.843743    0.447298
 ---------------------------------------------------------------------
 Rotational constants (GHZ):           1.2592197           0.2632810           0.2539505
 Standard basis: Aug-CC-pVDZ (5D, 7F)
 There are   434 symmetry adapted cartesian basis functions of A   symmetry.
 There are   406 symmetry adapted basis functions of A   symmetry.
   406 basis functions,   804 primitive gaussians,   434 cartesian basis functions
    61 alpha electrons       61 beta electrons
       nuclear repulsion energy      1120.0288843104 Hartrees.
 NAtoms=   22 NActive=   22 NUniq=   22 SFac= 1.00D+00 NAtFMM=   60 NAOKFM=F Big=F
 Integral buffers will be    131072 words long.
 Raffenetti 1 integral format.
 Two-electron integral symmetry is turned on.
 One-electron integrals computed using PRISM.
 NBasis=   406 RedAO= T EigKep=  4.45D-06  NBF=   406
 NBsUse=   406 1.00D-06 EigRej= -1.00D+00 NBFU=   406
 Initial guess from the checkpoint file:  "/tmp/pbs.4762177[80].pbs/Gau-2255942.chk"
 B after Tr=    -0.000000    0.000000   -0.000000
         Rot=    0.999992   -0.001671    0.002516   -0.002567 Ang=  -0.45 deg.
 ExpMin= 2.97D-02 ExpMax= 1.11D+05 ExpMxC= 1.07D+03 IAcc=3 IRadAn=         5 AccDes= 0.00D+00
 Harris functional with IExCor=  205 and IRadAn=       5 diagonalized for initial guess.
 HarFok:  IExCor=  205 AccDes= 0.00D+00 IRadAn=         5 IDoV= 1 UseB2=F ITyADJ=14
 ICtDFT=  3500011 ScaDFX=  1.000000  1.000000  1.000000  1.000000
 FoFCou: FMM=F IPFlag=           0 FMFlag=      100000 FMFlg1=           0
         NFxFlg=           0 DoJE=T BraDBF=F KetDBF=T FulRan=T
         wScrn=  0.000000 ICntrl=       500 IOpCl=  0 I1Cent=   200000004 NGrid=           0
         NMat0=    1 NMatS0=      1 NMatT0=    0 NMatD0=    1 NMtDS0=    0 NMtDT0=    0
 Petite list used in FoFCou.
 Requested convergence on RMS density matrix=1.00D-08 within 128 cycles.
 Requested convergence on MAX density matrix=1.00D-06.
 Requested convergence on             energy=1.00D-06.
 No special actions if energy rises.
 SCF Done:  E(RHF) =  -1613.79358193     A.U. after   16 cycles
            NFock= 16  Conv=0.49D-08     -V/T= 2.0003
 Calling FoFJK, ICntrl=      2127 FMM=F ISym2X=0 I1Cent= 0 IOpClX= 0 NMat=1 NMatS=1 NMatT=0.
 ***** Axes restored to original set *****
 -------------------------------------------------------------------
 Center     Atomic                   Forces (Hartrees/Bohr)
 Number     Number              X              Y              Z
 -------------------------------------------------------------------
      1        6          -0.002661355   -0.032212041    0.008511690
      2        6           0.020747521   -0.021475037   -0.000662231
      3        6          -0.039084882    0.005571113    0.007508888
      4        6           0.004074878    0.007307599   -0.000060973
      5        6           0.001999962    0.030116083   -0.008149183
      6        1           0.000331425    0.001569008   -0.000367466
      7       16           0.003232116    0.007901349   -0.002225465
      8        1           0.002709710   -0.002467799    0.000363527
      9        6           0.043130461    0.011870496    0.011607029
     10       16          -0.008911740   -0.008069192    0.006681399
     11        6           0.001184241    0.020151959    0.022001291
     12        6          -0.008698390    0.002858282   -0.028715338
     13        6          -0.029561227   -0.007458696   -0.016879683
     14        1          -0.001687702   -0.005633910    0.002384106
     15       16           0.010811593   -0.005181152   -0.001694326
     16        6          -0.028108079   -0.012088196   -0.016004919
     17        6           0.023572359    0.021102513    0.011555755
     18        1           0.002622184   -0.003635610    0.004708394
     19        1           0.003314060   -0.007929881    0.002235405
     20        1           0.000014969   -0.001568773   -0.000077991
     21        1           0.001699616    0.000387354    0.000438482
     22        1          -0.000731720   -0.001115470   -0.003158391
 -------------------------------------------------------------------
 Cartesian Forces:  Max     0.043130461 RMS     0.013903078

 GradGradGradGradGradGradGradGradGradGradGradGradGradGradGradGradGradGrad
 Berny optimization.
 Using GEDIIS/GDIIS optimizer.
 FormGI is forming the generalized inverse of G from B-inverse, IUseBI=4.
 Internal  Forces:  Max     0.036006921 RMS     0.007118076
 Search for a local minimum.
 Step number   2 out of a maximum of  127
 All quantities printed in internal units (Hartrees-Bohrs-Radians)
 Mixed Optimization -- RFO/linear search
 Update second derivatives using D2CorX and points    1    2
 DE= -4.34D-02 DEPred=-4.36D-02 R= 9.97D-01
 TightC=F SS=  1.41D+00  RLast= 3.49D-01 DXNew= 5.0454D-01 1.0456D+00
 Trust test= 9.97D-01 RLast= 3.49D-01 DXMaxT set to 5.05D-01
 ITU=  1  0
 Use linear search instead of GDIIS.
     Eigenvalues ---    0.00935   0.00981   0.01051   0.01210   0.01241
     Eigenvalues ---    0.01273   0.01291   0.01386   0.01460   0.01480
     Eigenvalues ---    0.01499   0.01586   0.01592   0.01716   0.02052
     Eigenvalues ---    0.02376   0.07257   0.07377   0.15419   0.15777
     Eigenvalues ---    0.15839   0.15966   0.16000   0.16000   0.16000
     Eigenvalues ---    0.16024   0.18666   0.22459   0.22508   0.23420
     Eigenvalues ---    0.24060   0.24573   0.24895   0.24992   0.25074
     Eigenvalues ---    0.26113   0.26565   0.28455   0.30533   0.31144
     Eigenvalues ---    0.31466   0.33714   0.33816   0.34534   0.34885
     Eigenvalues ---    0.34937   0.35270   0.35871   0.35957   0.36008
     Eigenvalues ---    0.36075   0.36123   0.36233   0.37060   0.38074
     Eigenvalues ---    0.38797   0.39459   0.40416   0.447031000.00000
     Eigenvalues --- 1000.000001000.000001000.000001000.000001000.00000
     Eigenvalues --- 1000.000001000.000001000.000001000.000001000.00000
     Eigenvalues --- 1000.000001000.000001000.000001000.000001000.00000
     Eigenvalues --- 1000.000001000.000001000.000001000.000001000.00000
     Eigenvalues --- 1000.000001000.000001000.000001000.000001000.00000
     Eigenvalues --- 1000.000001000.000001000.000001000.000001000.00000
     Eigenvalues --- 1000.000001000.000001000.000001000.000001000.00000
     Eigenvalues --- 1000.000001000.000001000.000001000.000001000.00000
     Eigenvalues --- 1000.000001000.000001000.000001000.000001000.00000
     Eigenvalues --- 1000.000001000.000001000.000001000.000001000.00000
     Eigenvalues --- 1000.000001000.000001000.000001000.000001000.00000
     Eigenvalues --- 1000.000001000.00000
 RFO step:  Lambda=-8.59395248D-03 EMin= 9.35105315D-03
 Quartic linear search produced a step of  0.56587.
 Iteration  1 RMS(Cart)=  0.07512008 RMS(Int)=  0.00569885
 Iteration  2 RMS(Cart)=  0.00726925 RMS(Int)=  0.00222919
 Iteration  3 RMS(Cart)=  0.00003122 RMS(Int)=  0.00222904
 Iteration  4 RMS(Cart)=  0.00000002 RMS(Int)=  0.00222904
 Iteration  1 RMS(Cart)=  0.00000644 RMS(Int)=  0.00000250
 Iteration  2 RMS(Cart)=  0.00000353 RMS(Int)=  0.00000279
 Iteration  3 RMS(Cart)=  0.00000194 RMS(Int)=  0.00000315
 Iteration  4 RMS(Cart)=  0.00000106 RMS(Int)=  0.00000339
 Iteration  5 RMS(Cart)=  0.00000058 RMS(Int)=  0.00000354
 Variable       Old X    -DE/DX   Delta X   Delta X   Delta X     New X
                                 (Linear)    (Quad)   (Total)
    R1        2.69998   0.00294  -0.01086   0.02914   0.01825   2.71823
    R2        2.60800  -0.02726  -0.05993   0.00061  -0.05944   2.54857
    R3        2.03693   0.00069  -0.00056   0.00389   0.00333   2.04026
    R4        2.62720  -0.03155  -0.07462   0.00272  -0.07180   2.55540
    R5        2.83300   0.00651   0.01278   0.00589   0.01867   2.85167
    R6        3.34042  -0.01185  -0.03133  -0.00486  -0.03608   3.30433
    R7        2.75551   0.00777   0.00338   0.02530   0.02868   2.78419
    R8        2.05930  -0.00094  -0.00288   0.00111  -0.00177   2.05752
    R9        2.05914   0.00010   0.00075  -0.00090  -0.00015   2.05899
   R10        2.06610  -0.00278  -0.00581  -0.00186  -0.00768   2.05843
   R11        3.24463  -0.00294  -0.02381   0.03095   0.00707   3.25171
   R12        2.03713  -0.00097  -0.00204  -0.00044  -0.00247   2.03466
   R13        3.34654  -0.00767  -0.02053   0.00731  -0.01575   3.33079
   R14        2.62500  -0.03601  -0.08051  -0.00224  -0.08443   2.54056
   R15        3.26089   0.00361  -0.00475   0.02409   0.02009   3.28099
   R16        2.63922  -0.02219  -0.04789  -0.01464  -0.05801   2.58121
   R17        2.69681   0.00538   0.00131   0.01347   0.01635   2.71316
   R18        2.69445   0.00345  -0.00752   0.02198   0.01573   2.71018
   R19        3.26996   0.00367  -0.00157   0.01955   0.01784   3.28780
   R20        2.03782  -0.00005  -0.00062   0.00091   0.00029   2.03811
   R21        3.30259  -0.00579  -0.01854   0.01386  -0.00676   3.29583
   R22        2.60922  -0.03077  -0.06912   0.00388  -0.06594   2.54327
   R23        2.03753  -0.00115  -0.00300   0.00052  -0.00248   2.03505
   R24        2.04226  -0.00192  -0.00576   0.00212  -0.00365   2.03862
    A1        1.98302   0.00057   0.00725  -0.01400  -0.00690   1.97612
    A2        2.16365  -0.00181  -0.00546  -0.00259  -0.00798   2.15568
    A3        2.13651   0.00123  -0.00179   0.01659   0.01488   2.15139
    A4        1.96531  -0.00165  -0.00371  -0.00480  -0.00845   1.95686
    A5        2.12924   0.00581   0.01708   0.00183   0.01888   2.14811
    A6        2.18864  -0.00416  -0.01337   0.00297  -0.01043   2.17821
    A7        1.91893   0.00583   0.00822   0.01878   0.02718   1.94611
    A8        2.28498  -0.01072  -0.01920  -0.02592  -0.04522   2.23975
    A9        2.07907   0.00488   0.01095   0.00725   0.01811   2.09717
   A10        1.93342  -0.00153  -0.00683   0.00479  -0.00203   1.93139
   A11        1.94157   0.00068   0.00423  -0.00574  -0.00152   1.94006
   A12        1.94107   0.00085   0.00439  -0.00336   0.00102   1.94209
   A13        1.87848   0.00075   0.00248   0.00232   0.00481   1.88329
   A14        1.87198   0.00108   0.00334   0.00554   0.00890   1.88087
   A15        1.89469  -0.00183  -0.00780  -0.00311  -0.01092   1.88377
   A16        1.94417   0.00051  -0.00522   0.01461   0.00919   1.95336
   A17        2.19475   0.00334   0.01072   0.00641   0.01720   2.21196
   A18        2.14415  -0.00384  -0.00548  -0.02088  -0.02629   2.11786
   A19        1.61334  -0.00527  -0.00654  -0.01459  -0.02107   1.59227
   A20        2.12208  -0.00352  -0.00382  -0.01446  -0.01831   2.10377
   A21        2.23265  -0.00199  -0.00437  -0.00418  -0.00859   2.22406
   A22        1.92817   0.00556   0.00842   0.01933   0.02708   1.95525
   A23        1.60887  -0.00468  -0.00586  -0.01978  -0.02361   1.58526
   A24        1.93910  -0.00313  -0.01276   0.01720   0.00174   1.94084
   A25        2.27174   0.00486   0.01870   0.04203   0.05017   2.32191
   A26        1.97993   0.00147   0.00833  -0.00448   0.00291   1.98284
   A27        1.98175   0.00128   0.00900  -0.00610   0.00152   1.98327
   A28        1.93995  -0.00332  -0.01521   0.02156   0.00361   1.94356
   A29        2.27123   0.00510   0.01920   0.04097   0.04962   2.32085
   A30        1.96636   0.00102   0.00132  -0.00928  -0.00633   1.96003
   A31        2.14778  -0.00198  -0.00738   0.01182   0.00148   2.14926
   A32        2.16179   0.00143   0.00870   0.00592   0.01163   2.17342
   A33        1.59653  -0.00255   0.00189  -0.02478  -0.02007   1.57647
   A34        1.96050   0.00285   0.00020   0.02110   0.01964   1.98014
   A35        2.12742  -0.00464  -0.00469  -0.02006  -0.02961   2.09781
   A36        2.18576   0.00261   0.00893   0.01539   0.01943   2.20520
   A37        1.94755   0.00158   0.00480  -0.01263  -0.00594   1.94161
   A38        2.17417  -0.00057   0.00469   0.00679   0.00504   2.17921
   A39        2.13813   0.00037  -0.00193   0.02972   0.02152   2.15965
    D1        0.00219  -0.00039  -0.00263  -0.00709  -0.00969  -0.00749
    D2       -3.13908  -0.00041  -0.00255  -0.00943  -0.01197   3.13214
    D3       -3.14126  -0.00015  -0.00099  -0.00392  -0.00497   3.13696
    D4        0.00065  -0.00018  -0.00091  -0.00626  -0.00725  -0.00659
    D5       -0.00378   0.00030   0.00166   0.00285   0.00449   0.00072
    D6       -3.13009  -0.00011   0.00006  -0.00664  -0.00674  -3.13682
    D7        3.13965   0.00007   0.00006  -0.00025  -0.00019   3.13946
    D8        0.01334  -0.00034  -0.00154  -0.00974  -0.01142   0.00192
    D9        0.00036   0.00031   0.00240   0.00783   0.01026   0.01062
   D10        3.11891   0.00054   0.00073   0.01364   0.01433   3.13324
   D11       -3.14157   0.00033   0.00233   0.01027   0.01260  -3.12897
   D12       -0.02302   0.00057   0.00066   0.01607   0.01667  -0.00635
   D13        0.03670  -0.00021  -0.00061  -0.00241  -0.00302   0.03368
   D14       -2.05196  -0.00058  -0.00202  -0.00473  -0.00673  -2.05869
   D15        2.11686   0.00070   0.00200   0.00550   0.00749   2.12435
   D16       -3.10453  -0.00023  -0.00053  -0.00506  -0.00559  -3.11012
   D17        1.09000  -0.00061  -0.00194  -0.00738  -0.00931   1.08069
   D18       -1.02437   0.00067   0.00208   0.00285   0.00492  -1.01945
   D19       -0.00210  -0.00011  -0.00122  -0.00533  -0.00665  -0.00875
   D20       -3.12376  -0.00007   0.00062  -0.00983  -0.00937  -3.13313
   D21       -1.65797  -0.00098  -0.00000   0.00000   0.00000  -1.65797
   D22        1.45574   0.00140   0.00909   0.03498   0.04419   1.49993
   D23        1.45883  -0.00075  -0.00186   0.00632   0.00438   1.46321
   D24       -1.71065   0.00164   0.00723   0.04130   0.04856  -1.66208
   D25        0.00335  -0.00011  -0.00023   0.00143   0.00108   0.00443
   D26        3.13018   0.00036   0.00151   0.01086   0.01204  -3.14096
   D27       -3.13902   0.00064   0.00367  -0.00605  -0.00261   3.14156
   D28        0.02606  -0.00128  -0.00374  -0.03526  -0.04005  -0.01400
   D29        3.13435  -0.00088  -0.00585   0.01041   0.00474   3.13909
   D30       -0.13197   0.00325   0.01482   0.08311   0.09770  -0.03427
   D31       -0.03260   0.00118   0.00220   0.04181   0.04524   0.01265
   D32        2.98427   0.00531   0.02287   0.11450   0.13820   3.12247
   D33       -0.01261   0.00123   0.00484   0.01950   0.02415   0.01154
[...]
      5          6           0        4.161539   -0.569349   -0.495835
      6          1           0        4.804538    1.333295    0.301868
      7         16           0        2.653455   -1.371406   -0.756302
      8          1           0        5.088371   -1.045473   -0.768133
      9          6           0        0.290384   -0.047667   -0.028622
     10         16           0       -0.516820   -0.800631    1.342975
     11          6           0       -2.076584   -0.419617    0.673140
     12          6           0       -1.957664    0.238461   -0.525398
     13          6           0       -0.598032    0.451802   -0.937694
     14          1           0       -0.295867    0.940264   -1.850098
     15         16           0       -3.517173    0.618336   -1.201486
     16          6           0       -4.312154   -0.126865    0.162556
     17          6           0       -3.438532   -0.637573    1.082549
     18          1           0       -5.388202   -0.144745    0.205800
     19          1           0       -3.740765   -1.135294    1.989967
     20          1           0        2.986499    2.997938    0.982079
     21          1           0        1.788895    2.131071    1.940671
     22          1           0        1.354658    2.760691    0.356937
 ---------------------------------------------------------------------
 Rotational constants (GHZ):           1.2735838           0.2578662           0.2537287

 **********************************************************************

            Population analysis using the SCF Density.

 **********************************************************************

 Orbital symmetries:
       Occupied  (A) (A) (A) (A) (A) (A) (A) (A) (A) (A) (A) (A)
                 (A) (A) (A) (A) (A) (A) (A) (A) (A) (A) (A) (A)
                 (A) (A) (A) (A) (A) (A) (A) (A) (A) (A) (A) (A)
                 (A) (A) (A) (A) (A) (A) (A) (A) (A) (A) (A) (A)
                 (A) (A) (A) (A) (A) (A) (A) (A) (A) (A) (A) (A)
                 (A)
       Virtual   (A) (A) (A) (A) (A) (A) (A) (A) (A) (A) (A) (A)
                 (A) (A) (A) (A) (A) (A) (A) (A) (A) (A) (A) (A)
                 (A) (A) (A) (A) (A) (A) (A) (A) (A) (A) (A) (A)
                 (A) (A) (A) (A) (A) (A) (A) (A) (A) (A) (A) (A)
                 (A) (A) (A) (A) (A) (A) (A) (A) (A) (A) (A) (A)
                 (A) (A) (A) (A) (A) (A) (A) (A) (A) (A) (A) (A)
                 (A) (A) (A) (A) (A) (A) (A) (A) (A) (A) (A) (A)
                 (A) (A) (A) (A) (A) (A) (A) (A) (A) (A) (A) (A)
                 (A) (A) (A) (A) (A) (A) (A) (A) (A) (A) (A) (A)
                 (A) (A) (A) (A) (A) (A) (A) (A) (A) (A) (A) (A)
                 (A) (A) (A) (A) (A) (A) (A) (A) (A) (A) (A) (A)
                 (A) (A) (A) (A) (A) (A) (A) (A) (A) (A) (A) (A)
                 (A) (A) (A) (A) (A) (A) (A) (A) (A) (A) (A) (A)
                 (A) (A) (A) (A) (A) (A) (A) (A) (A) (A) (A) (A)
                 (A) (A) (A) (A) (A) (A) (A) (A) (A) (A) (A) (A)
                 (A) (A) (A) (A) (A) (A) (A) (A) (A) (A) (A) (A)
                 (A) (A) (A) (A) (A) (A) (A) (A) (A) (A) (A) (A)
                 (A) (A) (A) (A) (A) (A) (A) (A) (A) (A) (A) (A)
                 (A) (A) (A) (A) (A) (A) (A) (A) (A) (A) (A) (A)
                 (A) (A) (A) (A) (A) (A) (A) (A) (A) (A) (A) (A)
                 (A) (A) (A) (A) (A) (A) (A) (A) (A) (A) (A) (A)
                 (A) (A) (A) (A) (A) (A) (A) (A) (A) (A) (A) (A)
                 (A) (A) (A) (A) (A) (A) (A) (A) (A) (A) (A) (A)
                 (A) (A) (A) (A) (A) (A) (A) (A) (A) (A) (A) (A)
                 (A) (A) (A) (A) (A) (A) (A) (A) (A) (A) (A) (A)
                 (A) (A) (A) (A) (A) (A) (A) (A) (A) (A) (A) (A)
                 (A) (A) (A) (A) (A) (A) (A) (A) (A) (A) (A) (A)
                 (A) (A) (A) (A) (A) (A) (A) (A) (A) (A) (A) (A)
                 (A) (A) (A) (A) (A) (A) (A) (A) (A)
 The electronic state is 1-A.
 Alpha  occ. eigenvalues --  -91.99230 -91.99077 -91.98653 -11.28995 -11.28107
 Alpha  occ. eigenvalues --  -11.27573 -11.27518 -11.27410 -11.27367 -11.26133
 Alpha  occ. eigenvalues --  -11.26084 -11.25832 -11.24660 -11.23666  -8.99383
 Alpha  occ. eigenvalues --   -8.99208  -8.98825  -6.67549  -6.67470  -6.67371
 Alpha  occ. eigenvalues --   -6.67287  -6.67267  -6.67083  -6.66987  -6.66895
 Alpha  occ. eigenvalues --   -6.66711  -1.21296  -1.18035  -1.12391  -1.03656
 Alpha  occ. eigenvalues --   -1.02392  -1.01299  -0.95376  -0.94659  -0.91722
 Alpha  occ. eigenvalues --   -0.81903  -0.77370  -0.76359  -0.72448  -0.69908
 Alpha  occ. eigenvalues --   -0.67149  -0.66688  -0.60448  -0.58768  -0.58679
 Alpha  occ. eigenvalues --   -0.56467  -0.56203  -0.54483  -0.53816  -0.52744
 Alpha  occ. eigenvalues --   -0.51615  -0.50893  -0.49487  -0.47506  -0.46345
 Alpha  occ. eigenvalues --   -0.45903  -0.38666  -0.34216  -0.32559  -0.32198
 Alpha  occ. eigenvalues --   -0.30287
 Alpha virt. eigenvalues --    0.03448   0.03490   0.04129   0.04710   0.04887
 Alpha virt. eigenvalues --    0.05670   0.06591   0.07346   0.08367   0.08538
 Alpha virt. eigenvalues --    0.08630   0.09201   0.09475   0.10292   0.10878
 Alpha virt. eigenvalues --    0.11286   0.11721   0.12361   0.12555   0.13139
 Alpha virt. eigenvalues --    0.13183   0.13705   0.13999   0.14150   0.14271
 Alpha virt. eigenvalues --    0.14685   0.15297   0.15665   0.15784   0.16352
 Alpha virt. eigenvalues --    0.16429   0.16645   0.17187   0.17894   0.18057
 Alpha virt. eigenvalues --    0.18336   0.18620   0.19691   0.19784   0.20352
 Alpha virt. eigenvalues --    0.20398   0.20506   0.21295   0.21619   0.22022
 Alpha virt. eigenvalues --    0.22267   0.22833   0.23237   0.23554   0.24008
 Alpha virt. eigenvalues --    0.24450   0.24766   0.24883   0.25639   0.26430
 Alpha virt. eigenvalues --    0.26623   0.27507   0.27650   0.28443   0.29442
 Alpha virt. eigenvalues --    0.29578   0.30113   0.30678   0.31383   0.31977
 Alpha virt. eigenvalues --    0.32494   0.32928   0.33292   0.33520   0.33997
 Alpha virt. eigenvalues --    0.34374   0.34769   0.35392   0.35847   0.36333
 Alpha virt. eigenvalues --    0.37056   0.37672   0.38494   0.39436   0.39917
 Alpha virt. eigenvalues --    0.40360   0.40709   0.41404   0.42307   0.43163
 Alpha virt. eigenvalues --    0.43421   0.43697   0.44427   0.45081   0.45385
 Alpha virt. eigenvalues --    0.45655   0.45918   0.46947   0.47590   0.48154
 Alpha virt. eigenvalues --    0.48996   0.49037   0.49800   0.51124   0.51264
 Alpha virt. eigenvalues --    0.51817   0.52037   0.53628   0.54200   0.54395
 Alpha virt. eigenvalues --    0.54732   0.55626   0.56765   0.57321   0.58264
 Alpha virt. eigenvalues --    0.58956   0.59002   0.59630   0.60099   0.60841
 Alpha virt. eigenvalues --    0.61311   0.61815   0.63128   0.63276   0.64169
 Alpha virt. eigenvalues --    0.64753   0.65083   0.65563   0.65910   0.66974
 Alpha virt. eigenvalues --    0.67639   0.67854   0.68344   0.69035   0.69189
 Alpha virt. eigenvalues --    0.69576   0.70226   0.70694   0.71095   0.71496
 Alpha virt. eigenvalues --    0.72055   0.72781   0.73326   0.73651   0.74034
 Alpha virt. eigenvalues --    0.74237   0.74630   0.75068   0.76310   0.76714
 Alpha virt. eigenvalues --    0.77083   0.77235   0.78528   0.78857   0.79832
 Alpha virt. eigenvalues --    0.80342   0.80836   0.81276   0.81479   0.82814
 Alpha virt. eigenvalues --    0.83549   0.84326   0.85325   0.86079   0.86792
 Alpha virt. eigenvalues --    0.87163   0.87874   0.89522   0.90280   0.90492
 Alpha virt. eigenvalues --    0.90940   0.91268   0.92405   0.92803   0.93784
 Alpha virt. eigenvalues --    0.94897   0.95512   0.96103   0.96268   0.96897
 Alpha virt. eigenvalues --    0.97019   0.98435   0.99196   1.00017   1.00897
 Alpha virt. eigenvalues --    1.01749   1.02288   1.03253   1.04578   1.04906
 Alpha virt. eigenvalues --    1.05858   1.06987   1.07428   1.09223   1.09724
 Alpha virt. eigenvalues --    1.09893   1.11586   1.12495   1.13575   1.14554
 Alpha virt. eigenvalues --    1.15527   1.17093   1.17679   1.18259   1.20375
 Alpha virt. eigenvalues --    1.20900   1.21807   1.23079   1.23891   1.24869
 Alpha virt. eigenvalues --    1.25161   1.26074   1.26802   1.27894   1.28821
 Alpha virt. eigenvalues --    1.29472   1.30751   1.31413   1.32803   1.33163
 Alpha virt. eigenvalues --    1.34849   1.35097   1.36424   1.37178   1.38118
 Alpha virt. eigenvalues --    1.39046   1.40639   1.42102   1.44241   1.44882
 Alpha virt. eigenvalues --    1.45712   1.47557   1.47887   1.50370   1.52813
 Alpha virt. eigenvalues --    1.54691   1.55659   1.56694   1.57631   1.58320
 Alpha virt. eigenvalues --    1.59365   1.60099   1.61381   1.63113   1.64386
 Alpha virt. eigenvalues --    1.64557   1.65729   1.66927   1.68134   1.68692
 Alpha virt. eigenvalues --    1.69617   1.70731   1.71385   1.71762   1.73120
 Alpha virt. eigenvalues --    1.73815   1.74611   1.75439   1.77726   1.79159
 Alpha virt. eigenvalues --    1.80267   1.81191   1.81452   1.82469   1.82947
 Alpha virt. eigenvalues --    1.84448   1.85775   1.88009   1.89047   1.89337
 Alpha virt. eigenvalues --    1.90983   1.92903   1.94318   1.95330   1.96297
 Alpha virt. eigenvalues --    1.96844   1.97960   1.99315   2.00325   2.02002
 Alpha virt. eigenvalues --    2.03644   2.05258   2.06204   2.07259   2.07466
 Alpha virt. eigenvalues --    2.09682   2.10845   2.12676   2.13705   2.14481
 Alpha virt. eigenvalues --    2.15286   2.16150   2.17977   2.19663   2.21228
 Alpha virt. eigenvalues --    2.21506   2.21934   2.23994   2.24732   2.25260
 Alpha virt. eigenvalues --    2.28310   2.28961   2.29466   2.31345   2.32885
 Alpha virt. eigenvalues --    2.34477   2.36220   2.37141   2.38272   2.40097
 Alpha virt. eigenvalues --    2.41197   2.42588   2.43558   2.46742   2.47667
 Alpha virt. eigenvalues --    2.48320   2.50603   2.51202   2.52463   2.54115
 Alpha virt. eigenvalues --    2.57846   2.60113   2.61951   2.64918   2.67578
 Alpha virt. eigenvalues --    2.73050   2.74070   2.78729   2.83810   2.84223
 Alpha virt. eigenvalues --    2.86644   2.87541   2.89736   2.94562   2.97135
 Alpha virt. eigenvalues --    2.98022   3.01888   3.04335   3.07505   3.16097
 Alpha virt. eigenvalues --    3.22990   3.28630   3.32679   3.39732   3.51465
 Alpha virt. eigenvalues --    3.57018   3.74330   3.80655   4.14559   4.23933
          Condensed to atoms (all electrons):
               1          2          3          4          5          6
     1  C    9.946666  -2.080319  -0.729676  -1.063618  -0.063610  -0.531984
     2  C   -2.080319  10.711406  -2.602087   0.392655   0.318695   0.372279
     3  C   -0.729676  -2.602087  14.494659  -1.002560  -1.649626   0.001501
     4  C   -1.063618   0.392655  -1.002560   6.381920   0.163744   0.075419
     5  C   -0.063610   0.318695  -1.649626   0.163744   6.873496  -0.063697
     6  H   -0.531984   0.372279   0.001501   0.075419  -0.063697   1.710447
     7  S   -0.623812   0.175155  -0.414090   0.156425   0.454015  -0.008130
     8  H    0.044453   0.084737   0.009914   0.028897   0.163500  -0.071703
     9  C    0.374641  -1.006147  -1.869710  -0.049200   0.288985   0.040785
    10  S    0.038305   0.079755  -0.465890  -0.060249  -0.010056  -0.001547
    11  C    0.029856   0.008585  -0.406643  -0.022178   0.027646   0.002939
    12  C   -0.032187   0.068015   0.515893   0.110218  -0.000779  -0.002418
    13  C   -0.171120   0.068787  -0.050435  -0.128556  -0.146358  -0.006153
    14  H    0.014685   0.077703   0.039610   0.036880   0.000664  -0.000195
    15  S   -0.001125   0.001132  -0.049411  -0.001943  -0.001183  -0.000022
    16  C   -0.000990  -0.000684   0.039048  -0.000913   0.000399  -0.000067
    17  C    0.006341   0.026255  -0.412155  -0.026336  -0.002091   0.000276
    18  H   -0.000057   0.000253   0.000090   0.000049   0.000025  -0.000005
    19  H    0.000318   0.000209  -0.013474  -0.000884  -0.000160   0.000025
    20  H    0.125974   0.066828   0.017417  -0.116355   0.003922  -0.016278
    21  H   -0.030705   0.053325  -0.051267   0.434556   0.013881  -0.001076
    22  H   -0.075506   0.040748   0.027862   0.334448   0.001697  -0.002500
               7          8          9         10         11         12
     1  C   -0.623812   0.044453   0.374641   0.038305   0.029856  -0.032187
     2  C    0.175155   0.084737  -1.006147   0.079755   0.008585   0.068015
     3  C   -0.414090   0.009914  -1.869710  -0.465890  -0.406643   0.515893
     4  C    0.156425   0.028897  -0.049200  -0.060249  -0.022178   0.110218
     5  C    0.454015   0.163500   0.288985  -0.010056   0.027646  -0.000779
     6  H   -0.008130  -0.071703   0.040785  -0.001547   0.002939  -0.002418
     7  S   16.327151  -0.162819  -0.569055   0.062461  -0.000258   0.044893
     8  H   -0.162819   1.261136  -0.013082   0.000111  -0.000306   0.001221
     9  C   -0.569055  -0.013082  13.619616   0.233246   0.271765  -0.825062
    10  S    0.062461   0.000111   0.233246  16.541652   0.307360  -0.404038
    11  C   -0.000258  -0.000306   0.271765   0.307360  10.842257  -0.462707
    12  C    0.044893   0.001221  -0.825062  -0.404038  -0.462707  11.560366
    13  C    0.220555   0.001782  -3.967427  -0.483348  -1.744644  -2.805336
    14  H    0.016305   0.000385  -0.040728   0.033696  -0.046521   0.746093
    15  S    0.002262  -0.000093  -0.293356   0.089418  -0.062853  -0.267696
    16  C    0.001889   0.000062   0.063258  -0.085995  -0.110563  -0.839208
    17  C    0.000005  -0.000113  -0.802948  -0.225403  -2.518464  -1.081876
    18  H    0.000138   0.000004   0.004172   0.007135   0.069852  -0.030012
    19  H    0.000858  -0.000016   0.131673   0.010948   0.599519   0.049320
    20  H   -0.014589   0.000919   0.065643   0.010495   0.002762  -0.006209
    21  H    0.016510   0.001478  -0.079145  -0.017589  -0.009351   0.019395
    22  H    0.016620   0.001404  -0.099325  -0.009499  -0.009478   0.012777
              13         14         15         16         17         18
     1  C   -0.171120   0.014685  -0.001125  -0.000990   0.006341  -0.000057
     2  C    0.068787   0.077703   0.001132  -0.000684   0.026255   0.000253
     3  C   -0.050435   0.039610  -0.049411   0.039048  -0.412155   0.000090
     4  C   -0.128556   0.036880  -0.001943  -0.000913  -0.026336   0.000049
     5  C   -0.146358   0.000664  -0.001183   0.000399  -0.002091   0.000025
     6  H   -0.006153  -0.000195  -0.000022  -0.000067   0.000276  -0.000005
     7  S    0.220555   0.016305   0.002262   0.001889   0.000005   0.000138
     8  H    0.001782   0.000385  -0.000093   0.000062  -0.000113   0.000004
     9  C   -3.967427  -0.040728  -0.293356   0.063258  -0.802948   0.004172
    10  S   -0.483348   0.033696   0.089418  -0.085995  -0.225403   0.007135
    11  C   -1.744644  -0.046521  -0.062853  -0.110563  -2.518464   0.069852
    12  C   -2.805336   0.746093  -0.267696  -0.839208  -1.081876  -0.030012
    13  C   15.498961  -1.082015   0.067612  -0.208548   0.754968   0.031160
    14  H   -1.082015   1.739310  -0.033632   0.020531  -0.048748   0.001814
    15  S    0.067612  -0.033632  15.914856   0.169749  -0.002447  -0.158256
    16  C   -0.208548   0.020531   0.169749   6.704983   0.221297   0.194447
    17  C    0.754968  -0.048748  -0.002447   0.221297  10.017764   0.032125
    18  H    0.031160   0.001814  -0.158256   0.194447   0.032125   1.292582
    19  H   -0.074822  -0.002574  -0.007691  -0.120867  -0.606362  -0.067795
    20  H   -0.009362   0.001058  -0.000375  -0.000184  -0.000940   0.000006
    21  H    0.006665   0.003181   0.001008   0.000601  -0.003905   0.000078
    22  H    0.035737   0.000966   0.000500   0.000526  -0.001969  -0.000034
              19         20         21         22
     1  C    0.000318   0.125974  -0.030705  -0.075506
     2  C    0.000209   0.066828   0.053325   0.040748
     3  C   -0.013474   0.017417  -0.051267   0.027862
     4  C   -0.000884  -0.116355   0.434556   0.334448
     5  C   -0.000160   0.003922   0.013881   0.001697
     6  H    0.000025  -0.016278  -0.001076  -0.002500
     7  S    0.000858  -0.014589   0.016510   0.016620
     8  H   -0.000016   0.000919   0.001478   0.001404
     9  C    0.131673   0.065643  -0.079145  -0.099325
    10  S    0.010948   0.010495  -0.017589  -0.009499
    11  C    0.599519   0.002762  -0.009351  -0.009478
    12  C    0.049320  -0.006209   0.019395   0.012777
    13  C   -0.074822  -0.009362   0.006665   0.035737
    14  H   -0.002574   0.001058   0.003181   0.000966
    15  S   -0.007691  -0.000375   0.001008   0.000500
    16  C   -0.120867  -0.000184   0.000601   0.000526
    17  C   -0.606362  -0.000940  -0.003905  -0.001969
    18  H   -0.067795   0.000006   0.000078  -0.000034
    19  H    1.431083  -0.000010  -0.000095  -0.000097
    20  H   -0.000010   1.318218  -0.138693  -0.130644
    21  H   -0.000095  -0.138693   0.778496  -0.113563
    22  H   -0.000097  -0.130644  -0.113563   0.872617
 Mulliken charges:
               1
     1  C    0.823470
     2  C   -0.857285
     3  C    0.571030
     4  C    0.357580
     5  C   -0.373109
     6  H   -0.497895
     7  S    0.297510
     8  H   -0.351870
     9  C    0.521400
    10  S    0.349033
    11  C   -0.768574
    12  C   -0.370663
    13  C    0.191896
    14  H   -0.478470
    15  S    0.633545
    16  C   -0.048771
    17  C    0.674725
    18  H   -0.377772
    19  H   -0.329105
    20  H   -0.179602
    21  H    0.116214
    22  H    0.096713
 Sum of Mulliken charges =  -0.00000
 Mulliken charges with hydrogens summed into heavy atoms:
               1
     1  C    0.325574
     2  C   -0.857285
     3  C    0.571030
     4  C    0.390906
     5  C   -0.724979
     7  S    0.297510
     9  C    0.521400
    10  S    0.349033
    11  C   -0.768574
    12  C   -0.370663
    13  C   -0.286574
    15  S    0.633545
    16  C   -0.426543
    17  C    0.345620
 Electronic spatial extent (au):  <R**2>=           4362.6117
 Charge=             -0.0000 electrons
 Dipole moment (field-independent basis, Debye):
    X=              0.3282    Y=              1.1377    Z=              0.4834  Tot=              1.2790
 Quadrupole moment (field-independent basis, Debye-Ang):
   XX=            -87.2526   YY=           -105.0616   ZZ=           -104.9468
   XY=              4.3651   XZ=             -3.3699   YZ=             -1.0881
 Traceless Quadrupole moment (field-independent basis, Debye-Ang):
   XX=             11.8344   YY=             -5.9746   ZZ=             -5.8598
   XY=              4.3651   XZ=             -3.3699   YZ=             -1.0881
 Octapole moment (field-independent basis, Debye-Ang**2):
  XXX=             -0.6299  YYY=              7.0215  ZZZ=              3.6012  XYY=             15.7935
  XXY=             -7.7125  XXZ=             12.1136  XZZ=             -8.8085  YZZ=             -0.0058
  YYZ=              1.5207  XYZ=             16.3568
 Hexadecapole moment (field-independent basis, Debye-Ang**3):
 XXXX=          -4157.5420 YYYY=           -727.6697 ZZZZ=           -609.1694 XXXY=             10.9371
 XXXZ=            -85.5289 YYYX=             13.6209 YYYZ=              6.8558 ZZZX=             -8.8595
 ZZZY=            -17.6390 XXYY=           -924.9102 XXZZ=           -940.3965 YYZZ=           -217.7364
 XXYZ=             11.1782 YYXZ=             -3.8057 ZZXY=              9.3692
 N-N= 1.118759734499D+03 E-N=-6.057423034471D+03  KE= 1.613404992614D+03


 WHEN YOU REACH FOR THE STARS, YOU MAY NOT QUITE GET ONE,
 BUT YOU WON'T COME UP WITH A HANDFUL OF MUD, EITHER.

                                         -- LEO BURNETT (AD AGENCY HEAD)
 Error termination request processed by link 9999.
 Error termination via Lnk1e in /apps/gaussian/g16-c01-avx/g16/l9999.exe at Tue Oct 26 03:47:13 2021.
 Job cpu time:       1 days 14 hours 23 minutes  2.3 seconds.
 Elapsed time:       0 days  4 hours 49 minutes 20.5 seconds.
 File lengths (MBytes):  RWF=    103 Int=      0 D2E=      0 Chk=     13 Scr=      1
