 Entering Gaussian System, Link 0=g16
 Input=pBTTT_125.gjf
 Output=pBTTT_125.log
 Initial command:
 /apps/gaussian/g16-c01-avx/g16/l1.exe "/tmp/pbs.4762177[300].pbs/Gau-1739776.inp" -scrdir="/tmp/pbs.4762177[300].pbs/"
 Entering Link 1 = /apps/gaussian/g16-c01-avx/g16/l1.exe PID=   1739777.
  
 Copyright (c) 1988-2019, Gaussian, Inc.  All Rights Reserved.
  
 This is part of the Gaussian(R) 16 program.  It is based on
 the Gaussian(R) 09 system (copyright 2009, Gaussian, Inc.),
 the Gaussian(R) 03 system (copyright 2003, Gaussian, Inc.),
 the Gaussian(R) 98 system (copyright 1998, Gaussian, Inc.),
 the Gaussian(R) 94 system (copyright 1995, Gaussian, Inc.),
 the Gaussian 92(TM) system (copyright 1992, Gaussian, Inc.),
 the Gaussian 90(TM) system (copyright 1990, Gaussian, Inc.),
 the Gaussian 88(TM) system (copyright 1988, Gaussian, Inc.),
 the Gaussian 86(TM) system (copyright 1986, Carnegie Mellon
 University), and the Gaussian 82(TM) system (copyright 1983,
 Carnegie Mellon University). Gaussian is a federally registered
 trademark of Gaussian, Inc.
  
 This software contains proprietary and confidential information,
 including trade secrets, belonging to Gaussian, Inc.
  
 This software is provided under written license and may be
 used, copied, transmitted, or stored only in accord with that
 written license.
  
 The following legend is applicable only to US Government
 contracts under FAR:
  
                    RESTRICTED RIGHTS LEGEND
  
 Use, reproduction and disclosure by the US Government is
 subject to restrictions as set forth in subparagraphs (a)
 and (c) of the Commercial Computer Software - Restricted
 Rights clause in FAR 52.227-19.
  
 Gaussian, Inc.
 340 Quinnipiac St., Bldg. 40, Wallingford CT 06492
  
  
 ---------------------------------------------------------------
 Warning -- This program may not be used in any manner that
 competes with the business of Gaussian, Inc. or will provide
 assistance to any competitor of Gaussian, Inc.  The licensee
 of this program is prohibited from giving any competitor of
 Gaussian, Inc. access to this program.  By using this program,
 the user acknowledges that Gaussian, Inc. is engaged in the
 business of creating and licensing software in the field of
 computational chemistry and represents and warrants to the
 licensee that it is not a competitor of Gaussian, Inc. and that
 it will not use this program in any manner prohibited above.
 ---------------------------------------------------------------
  

 Cite this work as:
 Gaussian 16, Revision C.01,
 M. J. Frisch, G. W. Trucks, H. B. Schlegel, G. E. Scuseria, 
 M. A. Robb, J. R. Cheeseman, G. Scalmani, V. Barone, 
 G. A. Petersson, H. Nakatsuji, X. Li, M. Caricato, A. V. Marenich, 
 J. Bloino, B. G. Janesko, R. Gomperts, B. Mennucci, H. P. Hratchian, 
 J. V. Ortiz, A. F. Izmaylov, J. L. Sonnenberg, D. Williams-Young, 
 F. Ding, F. Lipparini, F. Egidi, J. Goings, B. Peng, A. Petrone, 
 T. Henderson, D. Ranasinghe, V. G. Zakrzewski, J. Gao, N. Rega, 
 G. Zheng, W. Liang, M. Hada, M. Ehara, K. Toyota, R. Fukuda, 
 J. Hasegawa, M. Ishida, T. Nakajima, Y. Honda, O. Kitao, H. Nakai, 
 T. Vreven, K. Throssell, J. A. Montgomery, Jr., J. E. Peralta, 
 F. Ogliaro, M. J. Bearpark, J. J. Heyd, E. N. Brothers, K. N. Kudin, 
 V. N. Staroverov, T. A. Keith, R. Kobayashi, J. Normand, 
 K. Raghavachari, A. P. Rendell, J. C. Burant, S. S. Iyengar, 
 J. Tomasi, M. Cossi, J. M. Millam, M. Klene, C. Adamo, R. Cammi, 
 J. W. Ochterski, R. L. Martin, K. Morokuma, O. Farkas, 
 J. B. Foresman, and D. J. Fox, Gaussian, Inc., Wallingford CT, 2019.
 
 ******************************************
 Gaussian 16:  ES64L-G16RevC.01  3-Jul-2019
                26-Oct-2021 
 ******************************************
 %mem=100GB
 %nprocshared=8
 Will use up to    8 processors via shared memory.
 ---------------------------------
 # opt=modredundant hf/aug-cc-pvdz
 ---------------------------------
 1/18=120,19=15,38=1/1,3;
 2/9=110,12=2,17=6,18=5,40=1/2;
 3/5=16,7=10,11=9,25=1,30=1,71=1/1,2,3;
 4//1;
 5/5=2,38=5/2;
 6/7=2,8=2,9=2,10=2,28=1/1;
 7//1,2,3,16;
 1/18=20,19=15/3(2);
 2/9=110/2;
 99//99;
 2/9=110/2;
 3/5=16,7=10,11=9,25=1,30=1,71=1/1,2,3;
 4/5=5,16=3,69=1/1;
 5/5=2,38=5/2;
 7//1,2,3,16;
 1/18=20,19=15/3(-5);
 2/9=110/2;
 6/7=2,8=2,9=2,10=2,19=2,28=1/1;
 99/9=1/99;
 -------------
 pBTTT_125.pdb
 -------------
 Symbolic Z-matrix:
 Charge =  0 Multiplicity = 1
 C                    -4.25     -1.36     -0.21 
 C                    -2.93     -0.95     -0.61 
 C                    -1.97     -2.05     -0.62 
 C                    -2.66      0.47     -0.96 
 C                    -4.33     -2.76      0.1 
 H                    -5.1      -0.7      -0.14 
 S                    -2.8      -3.56     -0.11 
 H                    -5.23     -3.27      0.41 
 C                    -0.56     -2.13     -0.97 
 S                     0.664    -2.776     0.166 
 C                     1.957    -2.535    -0.958 
 C                     1.499    -1.994    -2.213 
 C                     0.083    -1.778    -2.238 
 H                    -0.459    -1.535    -3.139 
 S                     2.544    -2.398    -3.535 
 C                     3.627    -3.284    -2.459 
 C                     3.162    -3.285    -1.091 
 H                     4.432    -3.904    -2.83 
 H                     3.527    -3.988    -0.347 
 H                    -3.55      1.09     -0.83 
 H                    -2.35      0.56     -2. 
 H                    -1.88      0.89     -0.31 
 
 The following ModRedundant input section has been read:
 D       2       3       9      10 F                                           
 

 GradGradGradGradGradGradGradGradGradGradGradGradGradGradGradGradGradGrad
 Berny optimization.
 Initialization pass.
                           ----------------------------
                           !    Initial Parameters    !
                           ! (Angstroms and Degrees)  !
 --------------------------                            --------------------------
 ! Name  Definition              Value          Derivative Info.                !
 --------------------------------------------------------------------------------
 ! R1    R(1,2)                  1.4389         estimate D2E/DX2                !
 ! R2    R(1,5)                  1.4361         estimate D2E/DX2                !
 ! R3    R(1,6)                  1.0784         estimate D2E/DX2                !
 ! R4    R(2,3)                  1.46           estimate D2E/DX2                !
 ! R5    R(2,4)                  1.4872         estimate D2E/DX2                !
 ! R6    R(3,7)                  1.797          estimate D2E/DX2                !
 ! R7    R(3,9)                  1.455          estimate D2E/DX2                !
 ! R8    R(4,20)                 1.0924         estimate D2E/DX2                !
 ! R9    R(4,21)                 1.0889         estimate D2E/DX2                !
 ! R10   R(4,22)                 1.0988         estimate D2E/DX2                !
 ! R11   R(5,7)                  1.7393         estimate D2E/DX2                !
 ! R12   R(5,8)                  1.0799         estimate D2E/DX2                !
 ! R13   R(9,10)                 1.7905         estimate D2E/DX2                !
 ! R14   R(9,13)                 1.4646         estimate D2E/DX2                !
 ! R15   R(10,11)                1.7301         estimate D2E/DX2                !
 ! R16   R(11,12)                1.4413         estimate D2E/DX2                !
 ! R17   R(11,17)                1.4256         estimate D2E/DX2                !
 ! R18   R(12,13)                1.4326         estimate D2E/DX2                !
 ! R19   R(12,15)                1.7329         estimate D2E/DX2                !
 ! R20   R(13,14)                1.0792         estimate D2E/DX2                !
 ! R21   R(15,16)                1.7651         estimate D2E/DX2                !
 ! R22   R(16,17)                1.4449         estimate D2E/DX2                !
 ! R23   R(16,18)                1.0817         estimate D2E/DX2                !
 ! R24   R(17,19)                1.0867         estimate D2E/DX2                !
 ! A1    A(2,1,5)              112.8843         estimate D2E/DX2                !
 ! A2    A(2,1,6)              124.5209         estimate D2E/DX2                !
 ! A3    A(5,1,6)              122.5942         estimate D2E/DX2                !
 ! A4    A(1,2,3)              112.9799         estimate D2E/DX2                !
 ! A5    A(1,2,4)              120.2665         estimate D2E/DX2                !
 ! A6    A(3,2,4)              126.7536         estimate D2E/DX2                !
 ! A7    A(2,3,7)              109.1138         estimate D2E/DX2                !
 ! A8    A(2,3,9)              132.8639         estimate D2E/DX2                !
 ! A9    A(7,3,9)              118.0132         estimate D2E/DX2                !
 ! A10   A(2,4,20)             111.468          estimate D2E/DX2                !
 ! A11   A(2,4,21)             110.8154         estimate D2E/DX2                !
 ! A12   A(2,4,22)             110.7706         estimate D2E/DX2                !
 ! A13   A(20,4,21)            107.3779         estimate D2E/DX2                !
 ! A14   A(20,4,22)            106.918          estimate D2E/DX2                !
 ! A15   A(21,4,22)            109.3476         estimate D2E/DX2                !
 ! A16   A(1,5,7)              111.9209         estimate D2E/DX2                !
 ! A17   A(1,5,8)              124.6643         estimate D2E/DX2                !
 ! A18   A(7,5,8)              123.4062         estimate D2E/DX2                !
 ! A19   A(3,7,5)               93.0997         estimate D2E/DX2                !
 ! A20   A(3,9,10)             121.9838         estimate D2E/DX2                !
 ! A21   A(3,9,13)             128.3512         estimate D2E/DX2                !
 ! A22   A(10,9,13)            109.6253         estimate D2E/DX2                !
 ! A23   A(9,10,11)             92.7769         estimate D2E/DX2                !
 ! A24   A(10,11,12)           112.3636         estimate D2E/DX2                !
 ! A25   A(10,11,17)           128.2466         estimate D2E/DX2                !
 ! A26   A(12,11,17)           112.6334         estimate D2E/DX2                !
 ! A27   A(11,12,13)           112.6974         estimate D2E/DX2                !
 ! A28   A(11,12,15)           112.6518         estimate D2E/DX2                !
 ! A29   A(13,12,15)           128.1621         estimate D2E/DX2                !
 ! A30   A(9,13,12)            112.4939         estimate D2E/DX2                !
 ! A31   A(9,13,14)            123.8094         estimate D2E/DX2                !
 ! A32   A(12,13,14)           123.0204         estimate D2E/DX2                !
 ! A33   A(12,15,16)            91.259          estimate D2E/DX2                !
 ! A34   A(15,16,17)           112.3365         estimate D2E/DX2                !
 ! A35   A(15,16,18)           122.3599         estimate D2E/DX2                !
 ! A36   A(17,16,18)           124.3219         estimate D2E/DX2                !
 ! A37   A(11,17,16)           111.1005         estimate D2E/DX2                !
 ! A38   A(11,17,19)           124.0816         estimate D2E/DX2                !
 ! A39   A(16,17,19)           122.7216         estimate D2E/DX2                !
 ! D1    D(5,1,2,3)              0.3915         estimate D2E/DX2                !
 ! D2    D(5,1,2,4)           -179.5973         estimate D2E/DX2                !
 ! D3    D(6,1,2,3)           -179.8811         estimate D2E/DX2                !
 ! D4    D(6,1,2,4)              0.13           estimate D2E/DX2                !
 ! D5    D(2,1,5,7)             -0.3845         estimate D2E/DX2                !
 ! D6    D(2,1,5,8)           -179.3471         estimate D2E/DX2                !
 ! D7    D(6,1,5,7)            179.8822         estimate D2E/DX2                !
 ! D8    D(6,1,5,8)              0.9196         estimate D2E/DX2                !
 ! D9    D(1,2,3,7)             -0.2224         estimate D2E/DX2                !
 ! D10   D(1,2,3,9)            178.6265         estimate D2E/DX2                !
 ! D11   D(4,2,3,7)            179.7656         estimate D2E/DX2                !
 ! D12   D(4,2,3,9)             -1.3855         estimate D2E/DX2                !
 ! D13   D(1,2,4,20)             2.1641         estimate D2E/DX2                !
 ! D14   D(1,2,4,21)          -117.3645         estimate D2E/DX2                !
 ! D15   D(1,2,4,22)           121.0843         estimate D2E/DX2                !
 ! D16   D(3,2,4,20)          -177.8231         estimate D2E/DX2                !
 ! D17   D(3,2,4,21)            62.6483         estimate D2E/DX2                !
 ! D18   D(3,2,4,22)           -58.9029         estimate D2E/DX2                !
 ! D19   D(2,3,7,5)              0.0033         estimate D2E/DX2                !
 ! D20   D(9,3,7,5)           -179.041          estimate D2E/DX2                !
 ! D21   D(2,3,9,10)           125.0043         Frozen                          !
 ! D22   D(2,3,9,13)           -57.5333         estimate D2E/DX2                !
 ! D23   D(7,3,9,10)           -56.2277         estimate D2E/DX2                !
 ! D24   D(7,3,9,13)           121.2347         estimate D2E/DX2                !
 ! D25   D(1,5,7,3)              0.2153         estimate D2E/DX2                !
 ! D26   D(8,5,7,3)            179.1932         estimate D2E/DX2                !
 ! D27   D(3,9,10,11)          179.7806         estimate D2E/DX2                !
 ! D28   D(13,9,10,11)           1.8932         estimate D2E/DX2                !
 ! D29   D(3,9,13,12)         -179.8501         estimate D2E/DX2                !
 ! D30   D(3,9,13,14)           -9.0424         estimate D2E/DX2                !
 ! D31   D(10,9,13,12)          -2.1351         estimate D2E/DX2                !
 ! D32   D(10,9,13,14)         168.6726         estimate D2E/DX2                !
 ! D33   D(9,10,11,12)          -1.2046         estimate D2E/DX2                !
 ! D34   D(9,10,11,17)        -149.8726         estimate D2E/DX2                !
 ! D35   D(10,11,12,13)          0.1632         estimate D2E/DX2                !
 ! D36   D(10,11,12,15)       -154.0325         estimate D2E/DX2                !
 ! D37   D(17,11,12,13)        153.9026         estimate D2E/DX2                !
 ! D38   D(17,11,12,15)         -0.2931         estimate D2E/DX2                !
 ! D39   D(10,11,17,16)        149.7389         estimate D2E/DX2                !
 ! D40   D(10,11,17,19)        -14.1327         estimate D2E/DX2                !
 ! D41   D(12,11,17,16)          1.139          estimate D2E/DX2                !
 ! D42   D(12,11,17,19)       -162.7326         estimate D2E/DX2                !
 ! D43   D(11,12,13,9)           1.3072         estimate D2E/DX2                !
 ! D44   D(11,12,13,14)       -169.5843         estimate D2E/DX2                !
 ! D45   D(15,12,13,9)         150.582          estimate D2E/DX2                !
 ! D46   D(15,12,13,14)        -20.3096         estimate D2E/DX2                !
 ! D47   D(11,12,15,16)         -0.4855         estimate D2E/DX2                !
 ! D48   D(13,12,15,16)       -149.7715         estimate D2E/DX2                !
 ! D49   D(12,15,16,17)          1.1398         estimate D2E/DX2                !
 ! D50   D(12,15,16,18)        170.2507         estimate D2E/DX2                !
 ! D51   D(15,16,17,11)         -1.5            estimate D2E/DX2                !
 ! D52   D(15,16,17,19)        162.6287         estimate D2E/DX2                !
 ! D53   D(18,16,17,11)       -170.3596         estimate D2E/DX2                !
 ! D54   D(18,16,17,19)         -6.2309         estimate D2E/DX2                !
 --------------------------------------------------------------------------------
 Trust Radius=3.00D-01 FncErr=1.00D-07 GrdErr=1.00D-07 EigMax=2.50D+02 EigMin=1.00D-04
 Number of steps in this run=    127 maximum allowed number of steps=    132.
 GradGradGradGradGradGradGradGradGradGradGradGradGradGradGradGradGradGrad

                          Input orientation:                          
 ---------------------------------------------------------------------
 Center     Atomic      Atomic             Coordinates (Angstroms)
 Number     Number       Type             X           Y           Z
 ---------------------------------------------------------------------
      1          6           0       -4.250000   -1.360000   -0.210000
      2          6           0       -2.930000   -0.950000   -0.610000
      3          6           0       -1.970000   -2.050000   -0.620000
      4          6           0       -2.660000    0.470000   -0.960000
      5          6           0       -4.330000   -2.760000    0.100000
      6          1           0       -5.100000   -0.700000   -0.140000
      7         16           0       -2.800000   -3.560000   -0.110000
      8          1           0       -5.230000   -3.270000    0.410000
      9          6           0       -0.560000   -2.130000   -0.970000
     10         16           0        0.664000   -2.776000    0.166000
     11          6           0        1.957000   -2.535000   -0.958000
     12          6           0        1.499000   -1.994000   -2.213000
     13          6           0        0.083000   -1.778000   -2.238000
     14          1           0       -0.459000   -1.535000   -3.139000
     15         16           0        2.544000   -2.398000   -3.535000
     16          6           0        3.627000   -3.284000   -2.459000
     17          6           0        3.162000   -3.285000   -1.091000
     18          1           0        4.432000   -3.904000   -2.830000
     19          1           0        3.527000   -3.988000   -0.347000
     20          1           0       -3.550000    1.090000   -0.830000
     21          1           0       -2.350000    0.560000   -2.000000
     22          1           0       -1.880000    0.890000   -0.310000
 ---------------------------------------------------------------------
                    Distance matrix (angstroms):
                    1          2          3          4          5
     1  C    0.000000
     2  C    1.438923   0.000000
     3  C    2.417147   1.460034   0.000000
     4  C    2.537617   1.487212   2.634787   0.000000
     5  C    1.436141   2.395871   2.567509   3.787532   0.000000
     6  H    1.078425   2.234346   3.442354   2.827525   2.212261
     7  S    2.636759   2.660639   1.796970   4.121044   1.739253
     8  H    2.234480   3.422397   3.630000   4.740190   1.079907
     9  C    3.845335   2.671872   1.454991   3.342170   3.969219
    10  S    5.127751   4.105276   2.843031   4.780520   4.994462
    11  C    6.361366   5.149378   3.971246   5.508786   6.379370
    12  C    6.120863   4.824478   3.817689   4.993855   6.317750
    13  C    4.802332   3.523370   2.628063   3.769726   5.089709
    14  H    4.793886   3.583840   2.982232   3.689508   5.193880
    15  S    7.634887   6.373147   5.384656   6.475930   7.784353
    16  C    8.414684   7.201431   6.019226   7.474349   8.374778
    17  C    7.708406   6.541869   5.299480   6.929132   7.604221
    18  H    9.418782   8.237327   7.021896   8.539628   9.309473
    19  H    8.210169   7.140831   5.835013   7.650392   7.964938
    20  H    2.622384   2.143455   3.521378   1.092428   4.036806
    21  H    3.240447   2.132745   2.976726   1.088944   4.399182
    22  H    3.269465   2.139650   2.957668   1.098772   4.415099
                    6          7          8          9         10
     6  H    0.000000
     7  S    3.670218   0.000000
     8  H    2.631406   2.501879   0.000000
     9  C    4.831708   2.793224   5.001290   0.000000
    10  S    6.134094   3.562321   5.919697   1.790527   0.000000
    11  C    7.337411   4.939512   7.352865   2.549403   1.730117
    12  C    7.036943   5.035511   7.334013   2.408947   2.639771
    13  C    5.694487   4.001949   6.120942   1.464642   2.666980
    14  H    5.588390   4.330791   6.194196   2.251397   3.704623
    15  S    8.534633   6.452845   8.761192   4.035575   4.168295
    16  C    9.392302   6.848380   9.310092   4.591275   3.990997
    17  C    8.709034   6.048424   8.525191   3.898968   2.842382
    18  H   10.409646   7.734246  10.210475   5.614868   4.944312
    19  H    9.234659   6.345887   8.818935   4.532534   3.151013
    20  H    2.466313   4.764808   4.834211   4.396374   5.804806
    21  H    3.551014   4.555107   5.363898   3.391327   4.990456
    22  H    3.595191   4.548505   5.389480   3.361309   4.487546
                   11         12         13         14         15
    11  C    0.000000
    12  C    1.441343   0.000000
    13  C    2.392347   1.432598   0.000000
    14  H    3.404969   2.214028   1.079173   0.000000
    15  S    2.646558   1.732895   2.850111   3.149539   0.000000
    16  C    2.367045   2.500600   3.857047   4.496309   1.765124
    17  C    1.425557   2.385610   3.614817   4.513141   2.672420
    18  H    3.391780   3.554051   4.876899   5.443301   2.515871
    19  H    2.224731   3.401584   4.507895   5.449832   3.695637
    20  H    6.594244   6.075866   4.838034   4.666518   7.524627
    21  H    5.405094   4.624185   3.382658   3.043391   5.920914
    22  H    5.183927   4.832857   3.832594   3.987870   6.386184
                   16         17         18         19         20
    16  C    0.000000
    17  C    1.444870   0.000000
    18  H    1.081696   2.240576   0.000000
    19  H    2.228488   1.086724   2.644120   0.000000
    20  H    8.561241   8.016214   9.625610   8.723721   0.000000
    21  H    7.121204   6.781773   8.161600   7.612873   1.757783
    22  H    7.236541   6.592598   8.317102   7.282301   1.760483
                   21         22
    21  H    0.000000
    22  H    1.784909   0.000000
 Stoichiometry    C11H8S3
 Framework group  C1[X(C11H8S3)]
 Deg. of freedom    60
 Full point group                 C1      NOp   1
 Largest Abelian subgroup         C1      NOp   1
 Largest concise Abelian subgroup C1      NOp   1
                         Standard orientation:                         
 ---------------------------------------------------------------------
 Center     Atomic      Atomic             Coordinates (Angstroms)
 Number     Number       Type             X           Y           Z
 ---------------------------------------------------------------------
      1          6           0       -4.082151    0.549206   -0.060263
      2          6           0       -2.769677    0.994970    0.326007
      3          6           0       -1.719992    0.038684   -0.013668
      4          6           0       -2.592234    2.309648    0.998270
      5          6           0       -4.071114   -0.742874   -0.687087
      6          1           0       -4.989579    1.109546    0.099718
      7         16           0       -2.462231   -1.392527   -0.807278
      8          1           0       -4.947432   -1.252449   -1.059378
      9          6           0       -0.274272    0.056542    0.149349
     10         16           0        0.599522   -1.249280    1.008012
     11          6           0        2.138844   -0.501686    0.753264
     12          6           0        2.035978    0.722261   -0.000954
     13          6           0        0.685777    1.037819   -0.361118
     14          1           0        0.430909    1.820256   -1.059294
     15         16           0        3.490349    1.097989   -0.864990
     16          6           0        4.282441   -0.349965   -0.239145
     17          6           0        3.411499   -1.128149    0.611466
     18          1           0        5.237925   -0.694044   -0.611605
     19          1           0        3.610672   -2.166320    0.863462
     20          1           0       -3.551002    2.805857    1.165422
     21          1           0       -1.982737    2.976191    0.389965
     22          1           0       -2.121593    2.183335    1.983076
 ---------------------------------------------------------------------
 Rotational constants (GHZ):           1.1844650           0.2654730           0.2414452
 Standard basis: Aug-CC-pVDZ (5D, 7F)
 There are   434 symmetry adapted cartesian basis functions of A   symmetry.
 There are   406 symmetry adapted basis functions of A   symmetry.
   406 basis functions,   804 primitive gaussians,   434 cartesian basis functions
    61 alpha electrons       61 beta electrons
       nuclear repulsion energy      1104.8102360398 Hartrees.
 NAtoms=   22 NActive=   22 NUniq=   22 SFac= 1.00D+00 NAtFMM=   60 NAOKFM=F Big=F
 Integral buffers will be    131072 words long.
 Raffenetti 1 integral format.
 Two-electron integral symmetry is turned on.
 One-electron integrals computed using PRISM.
 NBasis=   406 RedAO= T EigKep=  5.89D-06  NBF=   406
 NBsUse=   406 1.00D-06 EigRej= -1.00D+00 NBFU=   406
 ExpMin= 2.97D-02 ExpMax= 1.11D+05 ExpMxC= 1.07D+03 IAcc=3 IRadAn=         5 AccDes= 0.00D+00
 Harris functional with IExCor=  205 and IRadAn=       5 diagonalized for initial guess.
 HarFok:  IExCor=  205 AccDes= 0.00D+00 IRadAn=         5 IDoV= 1 UseB2=F ITyADJ=14
 ICtDFT=  3500011 ScaDFX=  1.000000  1.000000  1.000000  1.000000
 FoFCou: FMM=F IPFlag=           0 FMFlag=      100000 FMFlg1=           0
         NFxFlg=           0 DoJE=T BraDBF=F KetDBF=T FulRan=T
         wScrn=  0.000000 ICntrl=       500 IOpCl=  0 I1Cent=   200000004 NGrid=           0
         NMat0=    1 NMatS0=      1 NMatT0=    0 NMatD0=    1 NMtDS0=    0 NMtDT0=    0
 Petite list used in FoFCou.
 Requested convergence on RMS density matrix=1.00D-08 within 128 cycles.
 Requested convergence on MAX density matrix=1.00D-06.
 Requested convergence on             energy=1.00D-06.
 No special actions if energy rises.
 SCF Done:  E(RHF) =  -1613.75216010     A.U. after   18 cycles
            NFock= 18  Conv=0.33D-08     -V/T= 2.0010

 **********************************************************************

            Population analysis using the SCF Density.

 **********************************************************************

 Orbital symmetries:
       Occupied  (A) (A) (A) (A) (A) (A) (A) (A) (A) (A) (A) (A)
                 (A) (A) (A) (A) (A) (A) (A) (A) (A) (A) (A) (A)
                 (A) (A) (A) (A) (A) (A) (A) (A) (A) (A) (A) (A)
                 (A) (A) (A) (A) (A) (A) (A) (A) (A) (A) (A) (A)
                 (A) (A) (A) (A) (A) (A) (A) (A) (A) (A) (A) (A)
                 (A)
       Virtual   (A) (A) (A) (A) (A) (A) (A) (A) (A) (A) (A) (A)
                 (A) (A) (A) (A) (A) (A) (A) (A) (A) (A) (A) (A)
                 (A) (A) (A) (A) (A) (A) (A) (A) (A) (A) (A) (A)
                 (A) (A) (A) (A) (A) (A) (A) (A) (A) (A) (A) (A)
                 (A) (A) (A) (A) (A) (A) (A) (A) (A) (A) (A) (A)
                 (A) (A) (A) (A) (A) (A) (A) (A) (A) (A) (A) (A)
                 (A) (A) (A) (A) (A) (A) (A) (A) (A) (A) (A) (A)
                 (A) (A) (A) (A) (A) (A) (A) (A) (A) (A) (A) (A)
                 (A) (A) (A) (A) (A) (A) (A) (A) (A) (A) (A) (A)
                 (A) (A) (A) (A) (A) (A) (A) (A) (A) (A) (A) (A)
                 (A) (A) (A) (A) (A) (A) (A) (A) (A) (A) (A) (A)
                 (A) (A) (A) (A) (A) (A) (A) (A) (A) (A) (A) (A)
                 (A) (A) (A) (A) (A) (A) (A) (A) (A) (A) (A) (A)
                 (A) (A) (A) (A) (A) (A) (A) (A) (A) (A) (A) (A)
                 (A) (A) (A) (A) (A) (A) (A) (A) (A) (A) (A) (A)
                 (A) (A) (A) (A) (A) (A) (A) (A) (A) (A) (A) (A)
                 (A) (A) (A) (A) (A) (A) (A) (A) (A) (A) (A) (A)
                 (A) (A) (A) (A) (A) (A) (A) (A) (A) (A) (A) (A)
                 (A) (A) (A) (A) (A) (A) (A) (A) (A) (A) (A) (A)
                 (A) (A) (A) (A) (A) (A) (A) (A) (A) (A) (A) (A)
                 (A) (A) (A) (A) (A) (A) (A) (A) (A) (A) (A) (A)
                 (A) (A) (A) (A) (A) (A) (A) (A) (A) (A) (A) (A)
                 (A) (A) (A) (A) (A) (A) (A) (A) (A) (A) (A) (A)
                 (A) (A) (A) (A) (A) (A) (A) (A) (A) (A) (A) (A)
                 (A) (A) (A) (A) (A) (A) (A) (A) (A) (A) (A) (A)
                 (A) (A) (A) (A) (A) (A) (A) (A) (A) (A) (A) (A)
                 (A) (A) (A) (A) (A) (A) (A) (A) (A) (A) (A) (A)
                 (A) (A) (A) (A) (A) (A) (A) (A) (A) (A) (A) (A)
                 (A) (A) (A) (A) (A) (A) (A) (A) (A)
 The electronic state is 1-A.
 Alpha  occ. eigenvalues --  -92.00007 -91.99653 -91.99626 -11.30622 -11.29320
 Alpha  occ. eigenvalues --  -11.29217 -11.28869 -11.28551 -11.28433 -11.27536
 Alpha  occ. eigenvalues --  -11.27481 -11.27177 -11.25671 -11.23952  -9.00068
 Alpha  occ. eigenvalues --   -8.99698  -8.99597  -6.68233  -6.68145  -6.67956
 Alpha  occ. eigenvalues --   -6.67861  -6.67765  -6.67753  -6.67655  -6.67577
 Alpha  occ. eigenvalues --   -6.67496  -1.19708  -1.16074  -1.10294  -1.03765
 Alpha  occ. eigenvalues --   -1.03086  -1.00550  -0.94307  -0.93738  -0.90726
 Alpha  occ. eigenvalues --   -0.82017  -0.77304  -0.76180  -0.71752  -0.69619
 Alpha  occ. eigenvalues --   -0.66312  -0.65710  -0.60426  -0.58867  -0.58332
 Alpha  occ. eigenvalues --   -0.56288  -0.55433  -0.54140  -0.53991  -0.52652
 Alpha  occ. eigenvalues --   -0.51459  -0.50572  -0.49144  -0.47328  -0.46442
 Alpha  occ. eigenvalues --   -0.44846  -0.38869  -0.34233  -0.32839  -0.31577
 Alpha  occ. eigenvalues --   -0.26996
 Alpha virt. eigenvalues --    0.03391   0.03674   0.03996   0.04671   0.04906
 Alpha virt. eigenvalues --    0.05262   0.05779   0.06637   0.07396   0.08439
 Alpha virt. eigenvalues --    0.08740   0.08933   0.09647   0.10214   0.10705
 Alpha virt. eigenvalues --    0.10967   0.11599   0.12219   0.12596   0.12848
 Alpha virt. eigenvalues --    0.13213   0.13359   0.13810   0.13872   0.14433
 Alpha virt. eigenvalues --    0.15034   0.15054   0.15394   0.15778   0.16042
 Alpha virt. eigenvalues --    0.16724   0.16906   0.17406   0.17448   0.18083
 Alpha virt. eigenvalues --    0.18273   0.18456   0.19459   0.19717   0.20135
 Alpha virt. eigenvalues --    0.20237   0.20736   0.21327   0.21488   0.21574
 Alpha virt. eigenvalues --    0.21831   0.22021   0.22364   0.23352   0.23614
 Alpha virt. eigenvalues --    0.24059   0.25442   0.25508   0.26185   0.26485
 Alpha virt. eigenvalues --    0.26638   0.26965   0.27525   0.27778   0.28333
 Alpha virt. eigenvalues --    0.28889   0.29796   0.30353   0.30489   0.31233
 Alpha virt. eigenvalues --    0.31718   0.31938   0.32944   0.33163   0.33587
 Alpha virt. eigenvalues --    0.34441   0.34645   0.35242   0.36015   0.36666
 Alpha virt. eigenvalues --    0.37059   0.37349   0.38344   0.38400   0.38809
 Alpha virt. eigenvalues --    0.40312   0.40483   0.41146   0.41731   0.42032
 Alpha virt. eigenvalues --    0.42616   0.43601   0.44081   0.44470   0.44809
 Alpha virt. eigenvalues --    0.45115   0.45721   0.46490   0.46656   0.47829
 Alpha virt. eigenvalues --    0.48092   0.48737   0.49860   0.50058   0.50527
 Alpha virt. eigenvalues --    0.50674   0.51337   0.52199   0.53478   0.53835
 Alpha virt. eigenvalues --    0.54569   0.55053   0.55507   0.55667   0.57478
 Alpha virt. eigenvalues --    0.57767   0.58203   0.59047   0.59299   0.60362
 Alpha virt. eigenvalues --    0.60753   0.61294   0.61497   0.62520   0.62902
 Alpha virt. eigenvalues --    0.63784   0.64113   0.64748   0.65072   0.65680
 Alpha virt. eigenvalues --    0.66157   0.66795   0.67575   0.67836   0.68286
 Alpha virt. eigenvalues --    0.68957   0.69293   0.70097   0.70189   0.70669
 Alpha virt. eigenvalues --    0.71169   0.71411   0.71709   0.72701   0.73458
 Alpha virt. eigenvalues --    0.73565   0.74137   0.74506   0.75103   0.75827
 Alpha virt. eigenvalues --    0.75977   0.76564   0.77830   0.78616   0.78815
 Alpha virt. eigenvalues --    0.79280   0.80503   0.80930   0.81263   0.81805
 Alpha virt. eigenvalues --    0.82376   0.83537   0.83828   0.84669   0.85036
 Alpha virt. eigenvalues --    0.86670   0.87189   0.88022   0.88942   0.89107
 Alpha virt. eigenvalues --    0.89441   0.90414   0.91624   0.92048   0.93069
 Alpha virt. eigenvalues --    0.93099   0.94113   0.94389   0.96206   0.97166
 Alpha virt. eigenvalues --    0.97814   0.98048   0.98689   0.99742   1.00110
 Alpha virt. eigenvalues --    1.00599   1.01376   1.01789   1.02726   1.02988
 Alpha virt. eigenvalues --    1.04743   1.06439   1.07190   1.08037   1.09005
 Alpha virt. eigenvalues --    1.10218   1.11407   1.11797   1.12219   1.13818
 Alpha virt. eigenvalues --    1.14726   1.16121   1.16448   1.18001   1.18897
 Alpha virt. eigenvalues --    1.19702   1.20828   1.21773   1.21813   1.23697
 Alpha virt. eigenvalues --    1.24254   1.25227   1.26011   1.27114   1.27881
 Alpha virt. eigenvalues --    1.28256   1.29079   1.29308   1.30482   1.31279
 Alpha virt. eigenvalues --    1.31793   1.32502   1.33459   1.34159   1.36052
 Alpha virt. eigenvalues --    1.37399   1.38410   1.41004   1.41685   1.43084
 Alpha virt. eigenvalues --    1.44593   1.45272   1.46730   1.48652   1.49719
 Alpha virt. eigenvalues --    1.49918   1.53481   1.54504   1.55805   1.56848
 Alpha virt. eigenvalues --    1.57991   1.58515   1.59871   1.62159   1.62272
 Alpha virt. eigenvalues --    1.64321   1.64627   1.65405   1.65548   1.66884
 Alpha virt. eigenvalues --    1.67919   1.68390   1.69639   1.70044   1.72348
 Alpha virt. eigenvalues --    1.73275   1.73701   1.75063   1.75948   1.76783
 Alpha virt. eigenvalues --    1.77501   1.79660   1.80317   1.80805   1.81455
 Alpha virt. eigenvalues --    1.82271   1.83154   1.84693   1.86152   1.87734
 Alpha virt. eigenvalues --    1.89624   1.90335   1.91296   1.92982   1.93656
 Alpha virt. eigenvalues --    1.96077   1.96941   1.97442   1.98213   1.99136
 Alpha virt. eigenvalues --    2.00203   2.01242   2.02089   2.05280   2.07256
 Alpha virt. eigenvalues --    2.08541   2.10285   2.10536   2.12017   2.13214
 Alpha virt. eigenvalues --    2.14100   2.16074   2.16536   2.17473   2.18257
 Alpha virt. eigenvalues --    2.18783   2.20064   2.21549   2.21751   2.24207
 Alpha virt. eigenvalues --    2.24930   2.25710   2.27757   2.28057   2.29680
 Alpha virt. eigenvalues --    2.32300   2.33340   2.34202   2.35426   2.37418
 Alpha virt. eigenvalues --    2.38828   2.40508   2.41620   2.42500   2.45943
 Alpha virt. eigenvalues --    2.47147   2.47569   2.49728   2.50608   2.52300
 Alpha virt. eigenvalues --    2.54718   2.56790   2.59429   2.63092   2.63968
 Alpha virt. eigenvalues --    2.68567   2.72792   2.73279   2.76003   2.79705
 Alpha virt. eigenvalues --    2.81895   2.84082   2.84895   2.87453   2.90775
 Alpha virt. eigenvalues --    2.94209   2.94992   3.01785   3.02855   3.06473
 Alpha virt. eigenvalues --    3.13731   3.20407   3.24108   3.25995   3.32683
 Alpha virt. eigenvalues --    3.42150   3.60763   3.74894   4.10763   4.19200
          Condensed to atoms (all electrons):
               1          2          3          4          5          6
     1  C    9.604476  -1.997242  -0.508654  -1.253111   0.232883  -0.453094
     2  C   -1.997242   9.446642  -1.410009   0.316133   0.033234   0.327230
     3  C   -0.508654  -1.410009  11.408730  -0.574650  -0.976016   0.060438
     4  C   -1.253111   0.316133  -0.574650   6.418230   0.061810   0.079045
     5  C    0.232883   0.033234  -0.976016   0.061810   6.213879  -0.096016
     6  H   -0.453094   0.327230   0.060438   0.079045  -0.096016   1.708086
     7  S   -0.602939   0.138292  -0.153775   0.140353   0.369375  -0.013760
     8  H   -0.039794   0.115700  -0.026581   0.031679   0.241806  -0.080375
     9  C    0.397034  -0.498094  -2.003560  -0.001135   0.207935   0.000457
    10  S    0.008057   0.030249  -0.391545  -0.041113   0.025412  -0.000195
    11  C    0.033082   0.001060  -0.014173  -0.033322   0.015729   0.001745
    12  C   -0.056407   0.033645   0.408722   0.122570   0.000326  -0.002992
    13  C   -0.046055   0.021668  -0.181690  -0.181056  -0.053528   0.005791
    14  H    0.028892   0.005622   0.013642   0.040786  -0.006249   0.000430
    15  S    0.001608   0.010773  -0.018858  -0.003936   0.000288   0.000082
    16  C   -0.001222  -0.007882   0.024642   0.000828   0.000606  -0.000068
    17  C    0.010782   0.005190  -0.247254  -0.019084  -0.002460   0.000513
    18  H   -0.000010  -0.000155   0.002716   0.000005   0.000007   0.000002
    19  H    0.000696   0.001507  -0.009956  -0.000652  -0.000071   0.000017
    20  H    0.091602   0.071274   0.070882  -0.182968   0.004113  -0.028448
    21  H   -0.020952  -0.010243   0.031722   0.368734   0.002473  -0.000233
    22  H    0.002988   0.002989  -0.067660   0.387644   0.001443   0.000951
               7          8          9         10         11         12
     1  C   -0.602939  -0.039794   0.397034   0.008057   0.033082  -0.056407
     2  C    0.138292   0.115700  -0.498094   0.030249   0.001060   0.033645
     3  C   -0.153775  -0.026581  -2.003560  -0.391545  -0.014173   0.408722
     4  C    0.140353   0.031679  -0.001135  -0.041113  -0.033322   0.122570
     5  C    0.369375   0.241806   0.207935   0.025412   0.015729   0.000326
     6  H   -0.013760  -0.080375   0.000457  -0.000195   0.001745  -0.002992
     7  S   16.031409  -0.141890  -0.223342   0.174591   0.018501   0.007282
     8  H   -0.141890   1.241830  -0.013276   0.001553  -0.000177   0.000692
     9  C   -0.223342  -0.013276   9.750083   0.328611   0.063101  -0.598585
    10  S    0.174591   0.001553   0.328611  16.108008   0.145492  -0.255862
    11  C    0.018501  -0.000177   0.063101   0.145492   7.357943   0.270538
    12  C    0.007282   0.000692  -0.598585  -0.255862   0.270538   8.402349
    13  C   -0.150942   0.000051  -1.403094  -0.518387  -0.542697  -1.553830
    14  H   -0.005856  -0.000264   0.193112   0.034976  -0.033502   0.171187
    15  S   -0.003256   0.000015  -0.106809  -0.010123  -0.055742   0.047793
    16  C    0.001117   0.000054   0.118723  -0.068851   0.073153  -0.324721
    17  C   -0.007115  -0.000282  -0.326720  -0.020374  -1.087701  -0.019042
    18  H   -0.000317  -0.000000  -0.003572  -0.001801   0.010321  -0.006679
    19  H    0.000197  -0.000005   0.060034  -0.034039   0.234217  -0.017707
    20  H   -0.006301   0.002439   0.053633   0.004865   0.002391  -0.001095
    21  H    0.013586   0.001574  -0.018244  -0.001305  -0.008441   0.016022
    22  H    0.002301   0.001114  -0.016278  -0.003772  -0.002737   0.006829
              13         14         15         16         17         18
     1  C   -0.046055   0.028892   0.001608  -0.001222   0.010782  -0.000010
     2  C    0.021668   0.005622   0.010773  -0.007882   0.005190  -0.000155
     3  C   -0.181690   0.013642  -0.018858   0.024642  -0.247254   0.002716
     4  C   -0.181056   0.040786  -0.003936   0.000828  -0.019084   0.000005
     5  C   -0.053528  -0.006249   0.000288   0.000606  -0.002460   0.000007
     6  H    0.005791   0.000430   0.000082  -0.000068   0.000513   0.000002
     7  S   -0.150942  -0.005856  -0.003256   0.001117  -0.007115  -0.000317
     8  H    0.000051  -0.000264   0.000015   0.000054  -0.000282  -0.000000
     9  C   -1.403094   0.193112  -0.106809   0.118723  -0.326720  -0.003572
    10  S   -0.518387   0.034976  -0.010123  -0.068851  -0.020374  -0.001801
    11  C   -0.542697  -0.033502  -0.055742   0.073153  -1.087701   0.010321
    12  C   -1.553830   0.171187   0.047793  -0.324721  -0.019042  -0.006679
    13  C   10.290860  -0.548941   0.014519  -0.210872   0.645000   0.026999
    14  H   -0.548941   1.633011  -0.062766   0.000837  -0.006642   0.001403
    15  S    0.014519  -0.062766  15.668166   0.213014  -0.246661  -0.128538
    16  C   -0.210872   0.000837   0.213014   5.844279   0.222573   0.235949
    17  C    0.645000  -0.006642  -0.246661   0.222573   6.721807   0.022003
    18  H    0.026999   0.001403  -0.128538   0.235949   0.022003   1.237642
    19  H   -0.023845  -0.001062   0.005368  -0.055993  -0.163436  -0.057831
    20  H   -0.012193   0.005163  -0.000023   0.000147   0.000054   0.000007
    21  H   -0.038282  -0.014722  -0.000254  -0.000013  -0.003016  -0.000041
    22  H    0.008701   0.003771  -0.000480  -0.000542  -0.002323  -0.000008
              19         20         21         22
     1  C    0.000696   0.091602  -0.020952   0.002988
     2  C    0.001507   0.071274  -0.010243   0.002989
     3  C   -0.009956   0.070882   0.031722  -0.067660
     4  C   -0.000652  -0.182968   0.368734   0.387644
     5  C   -0.000071   0.004113   0.002473   0.001443
     6  H    0.000017  -0.028448  -0.000233   0.000951
     7  S    0.000197  -0.006301   0.013586   0.002301
     8  H   -0.000005   0.002439   0.001574   0.001114
     9  C    0.060034   0.053633  -0.018244  -0.016278
    10  S   -0.034039   0.004865  -0.001305  -0.003772
    11  C    0.234217   0.002391  -0.008441  -0.002737
    12  C   -0.017707  -0.001095   0.016022   0.006829
    13  C   -0.023845  -0.012193  -0.038282   0.008701
    14  H   -0.001062   0.005163  -0.014722   0.003771
    15  S    0.005368  -0.000023  -0.000254  -0.000480
    16  C   -0.055993   0.000147  -0.000013  -0.000542
    17  C   -0.163436   0.000054  -0.003016  -0.002323
    18  H   -0.057831   0.000007  -0.000041  -0.000008
    19  H    1.387087   0.000007  -0.000006   0.000078
    20  H    0.000007   1.369797  -0.104177  -0.105926
    21  H   -0.000006  -0.104177   0.806330  -0.125292
    22  H    0.000078  -0.105926  -0.125292   0.777948
 Mulliken charges:
               1
     1  C    0.567379
     2  C   -0.637581
     3  C    0.562887
     4  C    0.323209
     5  C   -0.276979
     6  H   -0.509605
     7  S    0.412492
     8  H   -0.335862
     9  C    0.039987
    10  S    0.485554
    11  C   -0.448782
    12  C   -0.651035
    13  C    0.451823
    14  H   -0.452830
    15  S    0.675821
    16  C   -0.065758
    17  C    0.524190
    18  H   -0.338102
    19  H   -0.324604
    20  H   -0.235244
    21  H    0.104780
    22  H    0.128262
 Sum of Mulliken charges =  -0.00000
 Mulliken charges with hydrogens summed into heavy atoms:
               1
     1  C    0.057774
     2  C   -0.637581
     3  C    0.562887
     4  C    0.321006
     5  C   -0.612842
     7  S    0.412492
     9  C    0.039987
    10  S    0.485554
    11  C   -0.448782
    12  C   -0.651035
    13  C   -0.001007
    15  S    0.675821
    16  C   -0.403860
    17  C    0.199586
 Electronic spatial extent (au):  <R**2>=           4443.7529
 Charge=             -0.0000 electrons
 Dipole moment (field-independent basis, Debye):
    X=             -0.9034    Y=              0.5361    Z=             -0.6031  Tot=              1.2113
 Quadrupole moment (field-independent basis, Debye-Ang):
   XX=            -88.5914   YY=           -100.5459   ZZ=           -109.4175
   XY=             -7.9457   XZ=             -2.0783   YZ=             -0.3156
 Traceless Quadrupole moment (field-independent basis, Debye-Ang):
   XX=             10.9268   YY=             -1.0276   ZZ=             -9.8992
   XY=             -7.9457   XZ=             -2.0783   YZ=             -0.3156
 Octapole moment (field-independent basis, Debye-Ang**2):
  XXX=            -27.1490  YYY=              0.5999  ZZZ=             -1.4533  XYY=             -5.4941
  XXY=            -23.2689  XXZ=            -23.0250  XZZ=             -0.9449  YZZ=              1.0871
  YYZ=             -0.9642  XYZ=            -16.3288
 Hexadecapole moment (field-independent basis, Debye-Ang**3):
 XXXX=          -4340.2733 YYYY=           -951.9610 ZZZZ=           -468.2854 XXXY=           -108.4873
 XXXZ=            -53.2966 YYYX=            -37.2878 YYYZ=            -10.4814 ZZZX=            -20.0657
 ZZZY=              2.3533 XXYY=           -928.2483 XXZZ=           -935.9846 YYZZ=           -230.0483
 XXYZ=             38.8628 YYXZ=              6.9377 ZZXY=              3.6469
 N-N= 1.104810236040D+03 E-N=-6.028112876269D+03  KE= 1.612217941091D+03
 Calling FoFJK, ICntrl=      2127 FMM=F ISym2X=0 I1Cent= 0 IOpClX= 0 NMat=1 NMatS=1 NMatT=0.
 ***** Axes restored to original set *****
 -------------------------------------------------------------------
 Center     Atomic                   Forces (Hartrees/Bohr)
 Number     Number              X              Y              Z
 -------------------------------------------------------------------
      1        6           0.017264463   -0.076669708    0.011688769
      2        6           0.028960519   -0.063548741    0.004378898
      3        6          -0.070055470    0.030476556    0.011152466
      4        6           0.010823993    0.014050233    0.000261844
      5        6           0.014188758    0.064707939   -0.017419550
      6        1           0.001117739    0.000426687   -0.000315876
      7       16          -0.007458198    0.030960898   -0.004169684
      8        1           0.004670629   -0.003072064    0.000340509
      9        6           0.054298141    0.020572572   -0.068053574
     10       16          -0.012739499    0.018170481   -0.009046334
     11        6          -0.013798106    0.002641016   -0.053474252
     12        6          -0.010108577   -0.027743080    0.047765465
     13        6          -0.026171784   -0.019459856    0.071575731
     14        1          -0.003340885    0.004740926    0.004568672
     15       16           0.017991688   -0.002807027    0.016876097
     16        6          -0.033304618   -0.001730710    0.069678007
     17        6           0.019455475   -0.007607655   -0.076411938
     18        1           0.000945612    0.008854333   -0.001599438
     19        1           0.005385053    0.010595591   -0.002398305
     20        1           0.000862426   -0.004177955    0.000155432
     21        1           0.002659287    0.002392080    0.000896849
     22        1          -0.001646647   -0.001772515   -0.006449788
 -------------------------------------------------------------------
 Cartesian Forces:  Max     0.076669708 RMS     0.029500067

 GradGradGradGradGradGradGradGradGradGradGradGradGradGradGradGradGradGrad
 Berny optimization.
 FormGI is forming the generalized inverse of G from B-inverse, IUseBI=4.
 Internal  Forces:  Max     0.088117431 RMS     0.017097982
 Search for a local minimum.
 Step number   1 out of a maximum of  127
 All quantities printed in internal units (Hartrees-Bohrs-Radians)
 Mixed Optimization -- RFO/linear search
 Second derivative matrix not updated -- first step.
 ITU=  0
     Eigenvalues ---    0.00935   0.00982   0.01054   0.01214   0.01241
     Eigenvalues ---    0.01277   0.01298   0.01421   0.01457   0.01492
     Eigenvalues ---    0.01498   0.01592   0.01596   0.01773   0.02199
     Eigenvalues ---    0.02653   0.07307   0.07353   0.15080   0.15686
     Eigenvalues ---    0.15738   0.15997   0.16000   0.16000   0.16000
     Eigenvalues ---    0.16000   0.17989   0.22442   0.22545   0.23318
     Eigenvalues ---    0.23978   0.24718   0.24978   0.24995   0.25000
     Eigenvalues ---    0.26147   0.26534   0.28389   0.30920   0.31269
     Eigenvalues ---    0.31565   0.33757   0.33818   0.34533   0.34795
     Eigenvalues ---    0.34935   0.35194   0.35790   0.35877   0.36006
     Eigenvalues ---    0.36094   0.36185   0.36297   0.37598   0.38282
     Eigenvalues ---    0.38438   0.39458   0.39699   0.406891000.00000
     Eigenvalues --- 1000.000001000.000001000.000001000.000001000.00000
     Eigenvalues --- 1000.000001000.000001000.000001000.000001000.00000
     Eigenvalues --- 1000.000001000.000001000.000001000.000001000.00000
     Eigenvalues --- 1000.000001000.000001000.000001000.000001000.00000
     Eigenvalues --- 1000.000001000.000001000.000001000.000001000.00000
     Eigenvalues --- 1000.000001000.000001000.000001000.000001000.00000
     Eigenvalues --- 1000.000001000.000001000.000001000.000001000.00000
     Eigenvalues --- 1000.000001000.000001000.000001000.000001000.00000
     Eigenvalues --- 1000.000001000.000001000.000001000.000001000.00000
     Eigenvalues --- 1000.000001000.000001000.000001000.000001000.00000
     Eigenvalues --- 1000.000001000.000001000.000001000.000001000.00000
     Eigenvalues --- 1000.000001000.00000
 RFO step:  Lambda=-8.21667837D-02 EMin= 9.35106172D-03
 Linear search not attempted -- first point.
 Maximum step size (   0.300) exceeded in Quadratic search.
    -- Step size scaled by   0.718
 Iteration  1 RMS(Cart)=  0.08727449 RMS(Int)=  0.00163483
 Iteration  2 RMS(Cart)=  0.00258861 RMS(Int)=  0.00034288
 Iteration  3 RMS(Cart)=  0.00000257 RMS(Int)=  0.00034287
 Iteration  4 RMS(Cart)=  0.00000000 RMS(Int)=  0.00034287
 Iteration  1 RMS(Cart)=  0.00000142 RMS(Int)=  0.00000053
 Iteration  2 RMS(Cart)=  0.00000078 RMS(Int)=  0.00000060
 Variable       Old X    -DE/DX   Delta X   Delta X   Delta X     New X
                                 (Linear)    (Quad)   (Total)
    R1        2.71917  -0.01262   0.00000  -0.02073  -0.02068   2.69849
    R2        2.71391  -0.07127   0.00000  -0.10686  -0.10691   2.60700
    R3        2.03793  -0.00064   0.00000  -0.00104  -0.00104   2.03689
    R4        2.75906  -0.08168   0.00000  -0.13022  -0.13013   2.62894
    R5        2.81042   0.01353   0.00000   0.02314   0.02314   2.83357
    R6        3.39578  -0.02777   0.00000  -0.05545  -0.05544   3.34034
    R7        2.74954  -0.00156   0.00000  -0.00245  -0.00245   2.74709
    R8        2.06439  -0.00306   0.00000  -0.00513  -0.00513   2.05926
    R9        2.05781   0.00010   0.00000   0.00016   0.00016   2.05797
   R10        2.07638  -0.00566   0.00000  -0.00967  -0.00967   2.06671
   R11        3.28671  -0.02403   0.00000  -0.04209  -0.04218   3.24453
   R12        2.04073  -0.00234   0.00000  -0.00380  -0.00380   2.03692
   R13        3.38361  -0.01923   0.00000  -0.03608  -0.03643   3.34718
   R14        2.76777  -0.08812   0.00000  -0.14177  -0.14193   2.62584
   R15        3.26945  -0.00476   0.00000  -0.00729  -0.00726   3.26219
   R16        2.72374  -0.05500   0.00000  -0.08587  -0.08520   2.63854
   R17        2.69391   0.00316   0.00000   0.00244   0.00279   2.69670
   R18        2.70722  -0.00852   0.00000  -0.01481  -0.01458   2.69264
   R19        3.27470  -0.00294   0.00000  -0.00365  -0.00376   3.27094
   R20        2.03934  -0.00107   0.00000  -0.00173  -0.00173   2.03761
   R21        3.33560  -0.01798   0.00000  -0.03228  -0.03267   3.30293
   R22        2.73041  -0.08058   0.00000  -0.12320  -0.12326   2.60715
   R23        2.04411  -0.00382   0.00000  -0.00624  -0.00624   2.03787
   R24        2.05361  -0.00669   0.00000  -0.01106  -0.01106   2.04255
    A1        1.97020   0.00782   0.00000   0.01367   0.01368   1.98388
    A2        2.17330  -0.00499   0.00000  -0.01004  -0.01004   2.16326
    A3        2.13967  -0.00283   0.00000  -0.00364  -0.00365   2.13603
    A4        1.97187  -0.00209   0.00000  -0.00809  -0.00794   1.96393
    A5        2.09905   0.01282   0.00000   0.02949   0.02941   2.12846
    A6        2.21227  -0.01073   0.00000  -0.02140  -0.02148   2.19079
    A7        1.90440   0.00649   0.00000   0.01526   0.01538   1.91977
    A8        2.31891  -0.01428   0.00000  -0.03149  -0.03155   2.28736
    A9        2.05972   0.00780   0.00000   0.01623   0.01617   2.07589
   A10        1.94548  -0.00463   0.00000  -0.01298  -0.01295   1.93253
   A11        1.93409   0.00372   0.00000   0.01053   0.01054   1.94463
   A12        1.93331   0.00217   0.00000   0.00616   0.00617   1.93948
   A13        1.87410   0.00084   0.00000   0.00301   0.00304   1.87714
   A14        1.86607   0.00198   0.00000   0.00682   0.00685   1.87292
   A15        1.90848  -0.00425   0.00000  -0.01403  -0.01404   1.89444
   A16        1.95339  -0.00337   0.00000  -0.00842  -0.00855   1.94484
   A17        2.17580   0.00682   0.00000   0.01943   0.01950   2.19530
   A18        2.15384  -0.00344   0.00000  -0.01098  -0.01092   2.14293
   A19        1.62490  -0.00885   0.00000  -0.01243  -0.01257   1.61232
   A20        2.12902  -0.00261   0.00000  -0.00545  -0.00549   2.12353
   A21        2.24015  -0.00455   0.00000  -0.00965  -0.00970   2.23045
   A22        1.91332   0.00725   0.00000   0.01570   0.01567   1.92899
   A23        1.61926  -0.00711   0.00000  -0.01145  -0.01131   1.60795
   A24        1.96111  -0.01190   0.00000  -0.02155  -0.02227   1.93885
   A25        2.23833   0.00957   0.00000   0.03461   0.03345   2.27178
   A26        1.96582   0.00673   0.00000   0.01418   0.01434   1.98017
   A27        1.96694   0.00834   0.00000   0.01618   0.01630   1.98324
   A28        1.96614  -0.01425   0.00000  -0.02659  -0.02702   1.93913
   A29        2.23685   0.00984   0.00000   0.03405   0.03298   2.26983
   A30        1.96339   0.00347   0.00000   0.00148   0.00188   1.96527
   A31        2.16088  -0.00609   0.00000  -0.01237  -0.01279   2.14810
   A32        2.14711   0.00326   0.00000   0.01549   0.01507   2.16218
   A33        1.59277   0.00062   0.00000   0.00391   0.00395   1.59672
   A34        1.96064   0.00038   0.00000  -0.00038  -0.00054   1.96010
   A35        2.13558  -0.00364   0.00000  -0.00764  -0.00820   2.12738
   A36        2.16983   0.00453   0.00000   0.01707   0.01660   2.18642
   A37        1.93907   0.00652   0.00000   0.00887   0.00924   1.94831
   A38        2.16563  -0.00021   0.00000   0.00933   0.00833   2.17396
   A39        2.14190  -0.00405   0.00000  -0.00261  -0.00363   2.13827
    D1        0.00683   0.00004   0.00000  -0.00077  -0.00076   0.00607
    D2       -3.13456   0.00043   0.00000   0.00222   0.00227  -3.13229
    D3       -3.13952  -0.00025   0.00000  -0.00245  -0.00247   3.14120
    D4        0.00227   0.00014   0.00000   0.00053   0.00057   0.00283
    D5       -0.00671  -0.00019   0.00000  -0.00161  -0.00161  -0.00832
    D6       -3.13020  -0.00046   0.00000  -0.00326  -0.00329  -3.13349
    D7        3.13954   0.00010   0.00000   0.00006   0.00009   3.13962
    D8        0.01605  -0.00017   0.00000  -0.00159  -0.00160   0.01445
    D9       -0.00388   0.00022   0.00000   0.00282   0.00282  -0.00106
   D10        3.11762   0.00075   0.00000   0.00306   0.00304   3.12066
   D11        3.13750  -0.00020   0.00000  -0.00039  -0.00033   3.13717
   D12       -0.02418   0.00033   0.00000  -0.00016  -0.00012  -0.02430
   D13        0.03777  -0.00014   0.00000  -0.00061  -0.00061   0.03716
   D14       -2.04840  -0.00063   0.00000  -0.00286  -0.00285  -2.05125
   D15        2.11332   0.00077   0.00000   0.00358   0.00356   2.11688
   D16       -3.10360   0.00031   0.00000   0.00282   0.00283  -3.10077
   D17        1.09342  -0.00018   0.00000   0.00057   0.00059   1.09401
   D18       -1.02805   0.00121   0.00000   0.00701   0.00700  -1.02105
   D19        0.00006  -0.00023   0.00000  -0.00309  -0.00310  -0.00305
   D20       -3.12486  -0.00038   0.00000  -0.00266  -0.00265  -3.12751
   D21        2.18174  -0.00114   0.00000   0.00000  -0.00000   2.18173
   D22       -1.00414   0.00207   0.00000   0.01972   0.01975  -0.98440
   D23       -0.98136  -0.00061   0.00000   0.00018   0.00015  -0.98121
   D24        2.11594   0.00260   0.00000   0.01989   0.01990   2.13585
   D25        0.00376   0.00026   0.00000   0.00276   0.00272   0.00647
   D26        3.12751   0.00065   0.00000   0.00475   0.00471   3.13222
   D27        3.13776   0.00087   0.00000   0.00572   0.00577  -3.13966
   D28        0.03304  -0.00157   0.00000  -0.01020  -0.01040   0.02264
   D29       -3.13898  -0.00201   0.00000  -0.01161  -0.01146   3.13275
   D30       -0.15782   0.00273   0.00000   0.02107   0.02100  -0.13682
   D31       -0.03726   0.00072   0.00000   0.00578   0.00612  -0.03115
   D32        2.94389   0.00545   0.00000   0.03846   0.03858   2.98247
   D33       -0.02102   0.00252   0.00000   0.01310   0.01292  -0.00810
   D34       -2.61577  -0.00780   0.00000  -0.04651  -0.04680  -2.66257
   D35        0.00285  -0.00207   0.00000  -0.01127  -0.01111  -0.00826
   D36       -2.68837  -0.01216   0.00000  -0.06453  -0.06322  -2.75160
   D37        2.68611   0.00863   0.00000   0.04757   0.04666   2.73277
   D38       -0.00512  -0.00145   0.00000  -0.00568  -0.00545  -0.01057
   D39        2.61344   0.00690   0.00000   0.05524   0.05620   2.66964
   D40       -0.24666  -0.00104   0.00000  -0.00276  -0.00231  -0.24897
   D41        0.01988   0.00125   0.00000   0.00449   0.00436   0.02424
   D42       -2.84022  -0.00669   0.00000  -0.05350  -0.05415  -2.89437
   D43        0.02282   0.00095   0.00000   0.00337   0.00324   0.02605
   D44       -2.95980  -0.00274   0.00000  -0.02606  -0.02656  -2.98636
   D45        2.62815   0.00522   0.00000   0.04634   0.04719   2.67534
   D46       -0.35447   0.00153   0.00000   0.01690   0.01739  -0.33708
   D47       -0.00847   0.00134   0.00000   0.00459   0.00451  -0.00396
   D48       -2.61401  -0.00853   0.00000  -0.04896  -0.04887  -2.66288
   D49        0.01989  -0.00050   0.00000  -0.00184  -0.00190   0.01799
   D50        2.97144   0.00703   0.00000   0.04983   0.04940   3.02083
   D51       -0.02618  -0.00015   0.00000  -0.00088  -0.00067  -0.02685
   D52        2.83841   0.00835   0.00000   0.05841   0.05865   2.89706
   D53       -2.97334  -0.00681   0.00000  -0.05052  -0.05077  -3.02411
   D54       -0.10875   0.00169   0.00000   0.00877   0.00855  -0.10020
         Item               Value     Threshold  Converged?
 Maximum Force            0.088116     0.000450     NO 
 RMS     Force            0.017171     0.000300     NO 
 Maximum Displacement     0.340545     0.001800     NO 
 RMS     Displacement     0.087468     0.001200     NO 
 Predicted change in Energy=-4.282593D-02
 GradGradGradGradGradGradGradGradGradGradGradGradGradGradGradGradGradGrad

                          Input orientation:                          
 ---------------------------------------------------------------------
 Center     Atomic      Atomic             Coordinates (Angstroms)
 Number     Number       Type             X           Y           Z
 ---------------------------------------------------------------------
      1          6           0       -4.209279   -1.375952   -0.217958
      2          6           0       -2.890143   -1.006671   -0.621245
      3          6           0       -2.010620   -2.084538   -0.618396
      4          6           0       -2.539497    0.402945   -0.993276
      5          6           0       -4.338346   -2.712978    0.096536
      6          1           0       -5.034640   -0.685625   -0.154351
      7         16           0       -2.853757   -3.551274   -0.106215
      8          1           0       -5.245064   -3.200661    0.415728
      9          6           0       -0.603743   -2.169804   -0.974290
     10         16           0        0.603114   -2.811990    0.151953
     11          6           0        1.883852   -2.565238   -0.978912
     12          6           0        1.402721   -2.023569   -2.172494
     13          6           0       -0.007041   -1.816623   -2.178459
     14          1           0       -0.570099   -1.538569   -3.054979
     15         16           0        2.487230   -2.342262   -3.483338
     16          6           0        3.586822   -3.195407   -2.426002
     17          6           0        3.126135   -3.251749   -1.126769
     18          1           0        4.447038   -3.723791   -2.805181
     19          1           0        3.550889   -3.916724   -0.388069
     20          1           0       -3.400636    1.059520   -0.871515
     21          1           0       -2.218023    0.472023   -2.031482
     22          1           0       -1.740913    0.791935   -0.355285
 ---------------------------------------------------------------------
                    Distance matrix (angstroms):
                    1          2          3          4          5
     1  C    0.000000
     2  C    1.427981   0.000000
     3  C    2.344471   1.391174   0.000000
     4  C    2.560032   1.499458   2.570567   0.000000
     5  C    1.379567   2.350316   2.514831   3.759325   0.000000
     6  H    1.077877   2.218091   3.364074   2.848599   2.158224
     7  S    2.565532   2.596457   1.767633   4.064663   1.716931
     8  H    2.191796   3.381502   3.574461   4.721372   1.077894
     9  C    3.768571   2.589429   1.453696   3.219711   3.922877
    10  S    5.035689   4.007475   2.820324   4.639327   4.942762
    11  C    6.254574   5.034688   3.940553   5.326944   6.316183
    12  C    5.977805   4.676444   3.750977   4.776987   6.211572
    13  C    4.657956   3.375384   2.553410   3.569941   4.973857
    14  H    4.617225   3.404201   2.882728   3.449439   5.050839
    15  S    7.512635   6.236306   5.339004   6.245362   7.716308
    16  C    8.304520   7.070982   5.986053   7.247939   8.330920
    17  C    7.625802   6.441392   5.292172   6.743441   7.583220
    18  H    9.334768   8.123210   7.012170   8.314122   9.307238
    19  H    8.167293   7.071752   5.860064   7.491236   7.995241
    20  H    2.648124   2.142984   3.446927   1.089714   4.006016
    21  H    3.266340   2.151057   2.928452   1.089031   4.378180
    22  H    3.288073   2.150918   2.901046   1.093656   4.385797
                    6          7          8          9         10
     6  H    0.000000
     7  S    3.601460   0.000000
     8  H    2.587407   2.472590   0.000000
     9  C    4.744253   2.779313   4.953451   0.000000
    10  S    6.033201   3.544454   5.867012   1.771251   0.000000
    11  C    7.216535   4.917196   7.291792   2.518833   1.726277
    12  C    6.877689   4.972022   7.230317   2.341575   2.581478
    13  C    5.536508   3.925176   6.006850   1.389537   2.606503
    14  H    5.391965   4.238076   6.055052   2.174594   3.644508
    15  S    8.390776   6.433725   8.702179   3.984868   4.121392
    16  C    9.262236   6.854861   9.277805   4.551941   3.961739
    17  C    8.609811   6.073744   8.512278   3.886624   2.862543
    18  H   10.303377   7.785614  10.226669   5.592623   4.934752
    19  H    9.176380   6.421253   8.861582   4.544926   3.193970
    20  H    2.495961   4.705760   4.817473   4.273371   5.662692
    21  H    3.577303   4.505301   5.351674   3.271514   4.848808
    22  H    3.615549   4.490426   5.367901   3.232370   4.328975
                   11         12         13         14         15
    11  C    0.000000
    12  C    1.396256   0.000000
    13  C    2.361104   1.424882   0.000000
    14  H    3.374312   2.214954   1.078256   0.000000
    15  S    2.585717   1.730907   2.863632   3.190089   0.000000
    16  C    2.321915   2.491540   3.857223   4.518928   1.747833
    17  C    1.427034   2.360535   3.603114   4.507230   2.605530
    18  H    3.353718   3.543856   4.885579   5.478070   2.491860
    19  H    2.225898   3.373846   4.502753   5.454409   3.631941
    20  H    6.409073   5.854076   4.636463   4.419222   7.284277
    21  H    5.211357   4.399733   3.185585   2.793866   5.671640
    22  H    4.979803   4.594751   3.624204   3.753719   6.122507
                   16         17         18         19         20
    16  C    0.000000
    17  C    1.379642   0.000000
    18  H    1.078396   2.187390   0.000000
    19  H    2.162119   1.080873   2.585099   0.000000
    20  H    8.327388   7.826297   9.391757   8.562734   0.000000
    21  H    6.877639   6.576094   7.913692   7.432514   1.757625
    22  H    6.969327   6.374537   8.042668   7.083482   1.758629
                   21         22
    21  H    0.000000
    22  H    1.771895   0.000000
 Stoichiometry    C11H8S3
 Framework group  C1[X(C11H8S3)]
 Deg. of freedom    60
 Full point group                 C1      NOp   1
 Largest Abelian subgroup         C1      NOp   1
 Largest concise Abelian subgroup C1      NOp   1
                         Standard orientation:                         
 ---------------------------------------------------------------------
 Center     Atomic      Atomic             Coordinates (Angstroms)
 Number     Number       Type             X           Y           Z
 ---------------------------------------------------------------------
      1          6           0       -4.003929    0.580209   -0.023734
      2          6           0       -2.678933    0.982991    0.324522
      3          6           0       -1.724032    0.033753   -0.025445
      4          6           0       -2.398891    2.293666    0.996893
      5          6           0       -4.065908   -0.660457   -0.623827
      6          1           0       -4.882808    1.175390    0.163747
      7         16           0       -2.505069   -1.356696   -0.787784
      8          1           0       -4.962124   -1.148823   -0.970456
      9          6           0       -0.277387    0.037017    0.117520
     10         16           0        0.576671   -1.265560    0.960851
     11          6           0        2.111262   -0.523918    0.686933
     12          6           0        1.973256    0.666106   -0.030233
     13          6           0        0.624340    0.975421   -0.369409
     14          1           0        0.339967    1.774760   -1.034861
     15         16           0        3.447809    1.083353   -0.834991
     16          6           0        4.247991   -0.335806   -0.202050
     17          6           0        3.408642   -1.107553    0.574682
     18          1           0        5.240600   -0.617589   -0.515520
     19          1           0        3.652801   -2.119744    0.864757
     20          1           0       -3.325875    2.830906    1.195761
     21          1           0       -1.774931    2.934208    0.375307
     22          1           0       -1.896682    2.144770    1.956944
 ---------------------------------------------------------------------
 Rotational constants (GHZ):           1.2353854           0.2727627           0.2474337
 Standard basis: Aug-CC-pVDZ (5D, 7F)
 There are   434 symmetry adapted cartesian basis functions of A   symmetry.
 There are   406 symmetry adapted basis functions of A   symmetry.
   406 basis functions,   804 primitive gaussians,   434 cartesian basis functions
    61 alpha electrons       61 beta electrons
       nuclear repulsion energy      1121.2044668531 Hartrees.
 NAtoms=   22 NActive=   22 NUniq=   22 SFac= 1.00D+00 NAtFMM=   60 NAOKFM=F Big=F
 Integral buffers will be    131072 words long.
 Raffenetti 1 integral format.
 Two-electron integral symmetry is turned on.
 One-electron integrals computed using PRISM.
 NBasis=   406 RedAO= T EigKep=  4.62D-06  NBF=   406
 NBsUse=   406 1.00D-06 EigRej= -1.00D+00 NBFU=   406
 Initial guess from the checkpoint file:  "/tmp/pbs.4762177[300].pbs/Gau-1739777.chk"
 B after Tr=    -0.000000   -0.000000   -0.000000
         Rot=    0.999975   -0.004329   -0.003070    0.004774 Ang=  -0.82 deg.
 ExpMin= 2.97D-02 ExpMax= 1.11D+05 ExpMxC= 1.07D+03 IAcc=3 IRadAn=         5 AccDes= 0.00D+00
 Harris functional with IExCor=  205 and IRadAn=       5 diagonalized for initial guess.
 HarFok:  IExCor=  205 AccDes= 0.00D+00 IRadAn=         5 IDoV= 1 UseB2=F ITyADJ=14
 ICtDFT=  3500011 ScaDFX=  1.000000  1.000000  1.000000  1.000000
 FoFCou: FMM=F IPFlag=           0 FMFlag=      100000 FMFlg1=           0
         NFxFlg=           0 DoJE=T BraDBF=F KetDBF=T FulRan=T
         wScrn=  0.000000 ICntrl=       500 IOpCl=  0 I1Cent=   200000004 NGrid=           0
         NMat0=    1 NMatS0=      1 NMatT0=    0 NMatD0=    1 NMtDS0=    0 NMtDT0=    0
 Petite list used in FoFCou.
 Requested convergence on RMS density matrix=1.00D-08 within 128 cycles.
 Requested convergence on MAX density matrix=1.00D-06.
 Requested convergence on             energy=1.00D-06.
 No special actions if energy rises.
 SCF Done:  E(RHF) =  -1613.79470526     A.U. after   15 cycles
            NFock= 15  Conv=0.85D-08     -V/T= 2.0003
 Calling FoFJK, ICntrl=      2127 FMM=F ISym2X=0 I1Cent= 0 IOpClX= 0 NMat=1 NMatS=1 NMatT=0.
 ***** Axes restored to original set *****
 -------------------------------------------------------------------
 Center     Atomic                   Forces (Hartrees/Bohr)
 Number     Number              X              Y              Z
 -------------------------------------------------------------------
      1        6          -0.003476275   -0.031575908    0.007660278
      2        6           0.019325683   -0.021542783   -0.001741799
      3        6          -0.036204560    0.008059108    0.007820670
      4        6           0.004185702    0.007306926    0.000489961
      5        6           0.002513550    0.029522860   -0.007548313
      6        1           0.000322941    0.001540160   -0.000408285
      7       16           0.003226498    0.007551268   -0.001738832
      8        1           0.002676648   -0.002541054    0.000482598
      9        6           0.030455014    0.010401655   -0.030237845
     10       16          -0.008279256    0.009647421    0.004434034
     11        6          -0.011876140   -0.001198550   -0.026924584
     12        6           0.003041718   -0.020472150    0.020703878
     13        6          -0.017580367   -0.006086934    0.028300421
     14        1          -0.000901417    0.004233226    0.002266407
     15       16           0.011123466    0.003871177   -0.000588761
     16        6          -0.015428592   -0.003513022    0.029623714
     17        6           0.011254346   -0.007023014   -0.030135624
     18        1           0.001188238    0.006051750   -0.001999314
     19        1           0.003833259    0.007735456    0.001802135
     20        1          -0.000047331   -0.001581532    0.000052783
     21        1           0.001009838    0.000945848    0.000769783
     22        1          -0.000362964   -0.001331908   -0.003083305
 -------------------------------------------------------------------
 Cartesian Forces:  Max     0.036204560 RMS     0.013457179

 GradGradGradGradGradGradGradGradGradGradGradGradGradGradGradGradGradGrad
 Berny optimization.
 Using GEDIIS/GDIIS optimizer.
 FormGI is forming the generalized inverse of G from B-inverse, IUseBI=4.
 Internal  Forces:  Max     0.034754250 RMS     0.006843690
 Search for a local minimum.
 Step number   2 out of a maximum of  127
 All quantities printed in internal units (Hartrees-Bohrs-Radians)
 Mixed Optimization -- RFO/linear search
 Update second derivatives using D2CorX and points    1    2
 DE= -4.25D-02 DEPred=-4.28D-02 R= 9.93D-01
 TightC=F SS=  1.41D+00  RLast= 3.49D-01 DXNew= 5.0454D-01 1.0468D+00
 Trust test= 9.93D-01 RLast= 3.49D-01 DXMaxT set to 5.05D-01
 ITU=  1  0
 Use linear search instead of GDIIS.
     Eigenvalues ---    0.00935   0.00981   0.01047   0.01209   0.01240
     Eigenvalues ---    0.01272   0.01294   0.01385   0.01461   0.01482
     Eigenvalues ---    0.01499   0.01588   0.01592   0.01719   0.02055
     Eigenvalues ---    0.02380   0.07248   0.07383   0.15435   0.15780
     Eigenvalues ---    0.15829   0.15966   0.15999   0.16000   0.16000
     Eigenvalues ---    0.16022   0.18653   0.22460   0.22529   0.23419
     Eigenvalues ---    0.24147   0.24611   0.24898   0.24994   0.25098
     Eigenvalues ---    0.26131   0.26537   0.28442   0.30542   0.31094
     Eigenvalues ---    0.31425   0.33694   0.33816   0.34534   0.34832
     Eigenvalues ---    0.34938   0.35199   0.35784   0.35790   0.36006
     Eigenvalues ---    0.36063   0.36095   0.36211   0.37025   0.38117
     Eigenvalues ---    0.38812   0.39484   0.40472   0.449271000.00000
     Eigenvalues --- 1000.000001000.000001000.000001000.000001000.00000
     Eigenvalues --- 1000.000001000.000001000.000001000.000001000.00000
     Eigenvalues --- 1000.000001000.000001000.000001000.000001000.00000
     Eigenvalues --- 1000.000001000.000001000.000001000.000001000.00000
     Eigenvalues --- 1000.000001000.000001000.000001000.000001000.00000
     Eigenvalues --- 1000.000001000.000001000.000001000.000001000.00000
     Eigenvalues --- 1000.000001000.000001000.000001000.000001000.00000
     Eigenvalues --- 1000.000001000.000001000.000001000.000001000.00000
     Eigenvalues --- 1000.000001000.000001000.000001000.000001000.00000
     Eigenvalues --- 1000.000001000.000001000.000001000.000001000.00000
     Eigenvalues --- 1000.000001000.000001000.000001000.000001000.00000
     Eigenvalues --- 1000.000001000.00000
 RFO step:  Lambda=-8.24057495D-03 EMin= 9.35046454D-03
 Quartic linear search produced a step of  0.54019.
 Iteration  1 RMS(Cart)=  0.11215057 RMS(Int)=  0.00699237
 Iteration  2 RMS(Cart)=  0.00943442 RMS(Int)=  0.00218229
 Iteration  3 RMS(Cart)=  0.00004530 RMS(Int)=  0.00218191
 Iteration  4 RMS(Cart)=  0.00000005 RMS(Int)=  0.00218191
 Iteration  1 RMS(Cart)=  0.00001416 RMS(Int)=  0.00000536
 Iteration  2 RMS(Cart)=  0.00000776 RMS(Int)=  0.00000599
 Iteration  3 RMS(Cart)=  0.00000426 RMS(Int)=  0.00000677
 Iteration  4 RMS(Cart)=  0.00000233 RMS(Int)=  0.00000729
 Iteration  5 RMS(Cart)=  0.00000128 RMS(Int)=  0.00000759
 Iteration  6 RMS(Cart)=  0.00000070 RMS(Int)=  0.00000776
 Variable       Old X    -DE/DX   Delta X   Delta X   Delta X     New X
                                 (Linear)    (Quad)   (Total)
    R1        2.69849   0.00301  -0.01117   0.02960   0.01842   2.71691
    R2        2.60700  -0.02677  -0.05775  -0.00101  -0.05886   2.54814
    R3        2.03689   0.00072  -0.00056   0.00393   0.00337   2.04026
    R4        2.62894  -0.02975  -0.07029   0.00293  -0.06726   2.56167
    R5        2.83357   0.00658   0.01250   0.00652   0.01903   2.85259
    R6        3.34034  -0.01118  -0.02995  -0.00351  -0.03338   3.30696
    R7        2.74709   0.00707  -0.00132   0.03034   0.02902   2.77611
    R8        2.05926  -0.00091  -0.00277   0.00103  -0.00174   2.05752
    R9        2.05797  -0.00038   0.00009  -0.00176  -0.00167   2.05630
   R10        2.06671  -0.00254  -0.00522  -0.00178  -0.00701   2.05970
   R11        3.24453  -0.00297  -0.02279   0.02848   0.00563   3.25016
   R12        2.03692  -0.00096  -0.00206  -0.00034  -0.00240   2.03453
   R13        3.34718  -0.00732  -0.01968   0.00756  -0.01458   3.33260
   R14        2.62584  -0.03475  -0.07667  -0.00341  -0.08173   2.54412
   R15        3.26219   0.00370  -0.00392   0.02263   0.01947   3.28166
   R16        2.63854  -0.02181  -0.04602  -0.01590  -0.05753   2.58102
   R17        2.69670   0.00537   0.00151   0.01285   0.01592   2.71262
   R18        2.69264   0.00346  -0.00788   0.02236   0.01569   2.70833
   R19        3.27094   0.00349  -0.00203   0.01934   0.01712   3.28806
   R20        2.03761  -0.00028  -0.00094   0.00049  -0.00044   2.03717
   R21        3.30293  -0.00557  -0.01765   0.01317  -0.00650   3.29642
   R22        2.60715  -0.02991  -0.06658   0.00331  -0.06392   2.54323
   R23        2.03787  -0.00131  -0.00337   0.00048  -0.00288   2.03499
   R24        2.04255  -0.00202  -0.00597   0.00206  -0.00392   2.03864
    A1        1.98388   0.00089   0.00739  -0.01204  -0.00475   1.97913
    A2        2.16326  -0.00193  -0.00542  -0.00339  -0.00877   2.15449
    A3        2.13603   0.00104  -0.00197   0.01543   0.01351   2.14954
    A4        1.96393  -0.00171  -0.00429  -0.00373  -0.00797   1.95596
    A5        2.12846   0.00455   0.01589  -0.00348   0.01231   2.14077
    A6        2.19079  -0.00284  -0.01160   0.00716  -0.00453   2.18626
    A7        1.91977   0.00522   0.00831   0.01495   0.02343   1.94320
    A8        2.28736  -0.00918  -0.01704  -0.02076  -0.03790   2.24946
    A9        2.07589   0.00396   0.00874   0.00590   0.01454   2.09043
   A10        1.93253  -0.00177  -0.00700   0.00228  -0.00469   1.92784
   A11        1.94463   0.00155   0.00569  -0.00088   0.00482   1.94946
   A12        1.93948   0.00042   0.00333  -0.00440  -0.00107   1.93841
   A13        1.87714   0.00033   0.00164  -0.00009   0.00157   1.87872
   A14        1.87292   0.00129   0.00370   0.00584   0.00956   1.88248
   A15        1.89444  -0.00185  -0.00758  -0.00245  -0.01004   1.88440
   A16        1.94484   0.00037  -0.00462   0.01200   0.00718   1.95202
   A17        2.19530   0.00343   0.01053   0.00756   0.01813   2.21343
   A18        2.14293  -0.00380  -0.00590  -0.01933  -0.02519   2.11773
   A19        1.61232  -0.00477  -0.00679  -0.01110  -0.01785   1.59447
   A20        2.12353  -0.00312  -0.00297  -0.01355  -0.01650   2.10703
   A21        2.23045  -0.00187  -0.00524  -0.00173  -0.00695   2.22350
   A22        1.92899   0.00503   0.00846   0.01563   0.02365   1.95264
   A23        1.60795  -0.00438  -0.00611  -0.01750  -0.02144   1.58651
   A24        1.93885  -0.00308  -0.01203   0.01591   0.00122   1.94007
   A25        2.27178   0.00479   0.01807   0.04234   0.04999   2.32177
   A26        1.98017   0.00143   0.00775  -0.00328   0.00348   1.98365
   A27        1.98324   0.00118   0.00881  -0.00663   0.00109   1.98433
   A28        1.93913  -0.00313  -0.01460   0.02081   0.00367   1.94279
   A29        2.26983   0.00486   0.01781   0.04135   0.04902   2.31885
   A30        1.96527   0.00127   0.00102  -0.00690  -0.00412   1.96115
   A31        2.14810  -0.00185  -0.00691   0.01201   0.00228   2.15038
   A32        2.16218   0.00101   0.00814   0.00348   0.00877   2.17094
   A33        1.59672  -0.00253   0.00213  -0.02467  -0.01981   1.57691
   A34        1.96010   0.00277  -0.00029   0.02135   0.01947   1.97957
   A35        2.12738  -0.00463  -0.00443  -0.02039  -0.02966   2.09772
   A36        2.18642   0.00265   0.00897   0.01533   0.01942   2.20584
   A37        1.94831   0.00148   0.00499  -0.01339  -0.00656   1.94176
   A38        2.17396  -0.00056   0.00450   0.00714   0.00519   2.17916
   A39        2.13827   0.00043  -0.00196   0.02977   0.02153   2.15980
    D1        0.00607   0.00000  -0.00041  -0.00495  -0.00539   0.00068
    D2       -3.13229   0.00044   0.00123   0.01046   0.01175  -3.12055
    D3        3.14120  -0.00018  -0.00133  -0.00458  -0.00599   3.13521
    D4        0.00283   0.00025   0.00031   0.01084   0.01115   0.01398
    D5       -0.00832   0.00004  -0.00087   0.00976   0.00890   0.00058
    D6       -3.13349  -0.00037  -0.00178  -0.00581  -0.00778  -3.14127
    D7        3.13962   0.00024   0.00005   0.00948   0.00959  -3.13398
    D8        0.01445  -0.00018  -0.00086  -0.00610  -0.00709   0.00736
    D9       -0.00106  -0.00001   0.00153  -0.00203  -0.00054  -0.00160
   D10        3.12066   0.00061   0.00164   0.00292   0.00443   3.12509
   D11        3.13717  -0.00045  -0.00018  -0.01813  -0.01817   3.11900
   D12       -0.02430   0.00018  -0.00006  -0.01317  -0.01320  -0.03750
   D13        0.03716  -0.00010  -0.00033   0.00463   0.00426   0.04142
   D14       -2.05125  -0.00036  -0.00154   0.00380   0.00224  -2.04901
   D15        2.11688   0.00064   0.00192   0.01059   0.01247   2.12936
   D16       -3.10077   0.00039   0.00153   0.02215   0.02371  -3.07706
   D17        1.09401   0.00012   0.00032   0.02133   0.02169   1.11570
   D18       -1.02105   0.00112   0.00378   0.02811   0.03192  -0.98912
   D19       -0.00305   0.00005  -0.00168   0.00640   0.00468   0.00164
   D20       -3.12751  -0.00031  -0.00143   0.00249   0.00092  -3.12658
   D21        2.18173  -0.00137  -0.00000   0.00000   0.00000   2.18173
   D22       -0.98440   0.00119   0.01067   0.02042   0.03128  -0.95312
   D23       -0.98121  -0.00070   0.00008   0.00537   0.00535  -0.97586
   D24        2.13585   0.00185   0.01075   0.02579   0.03662   2.17247
   D25        0.00647  -0.00004   0.00147  -0.00915  -0.00772  -0.00125
   D26        3.13222   0.00043   0.00254   0.00616   0.00837   3.14059
   D27       -3.13966   0.00077   0.00311   0.00469   0.00766  -3.13200
   D28        0.02264  -0.00131  -0.00562  -0.01239  -0.01881   0.00383
   D29        3.13275  -0.00116  -0.00619  -0.00151  -0.00749   3.12526
   D30       -0.13682   0.00248   0.01135   0.07021   0.08150  -0.05532
   D31       -0.03115   0.00108   0.00331   0.01673   0.02106  -0.01009
   D32        2.98247   0.00471   0.02084   0.08845   0.11004   3.09251
   D33       -0.00810   0.00138   0.00698   0.00487   0.01184   0.00374
   D34       -2.66257  -0.00633  -0.02528  -0.12872  -0.15701  -2.81958
[...]
 ---------------------------------------------------------------------
 Rotational constants (GHZ):           1.2826177           0.2720941           0.2437171

 **********************************************************************

            Population analysis using the SCF Density.

 **********************************************************************

 Orbital symmetries:
       Occupied  (A) (A) (A) (A) (A) (A) (A) (A) (A) (A) (A) (A)
                 (A) (A) (A) (A) (A) (A) (A) (A) (A) (A) (A) (A)
                 (A) (A) (A) (A) (A) (A) (A) (A) (A) (A) (A) (A)
                 (A) (A) (A) (A) (A) (A) (A) (A) (A) (A) (A) (A)
                 (A) (A) (A) (A) (A) (A) (A) (A) (A) (A) (A) (A)
                 (A)
       Virtual   (A) (A) (A) (A) (A) (A) (A) (A) (A) (A) (A) (A)
                 (A) (A) (A) (A) (A) (A) (A) (A) (A) (A) (A) (A)
                 (A) (A) (A) (A) (A) (A) (A) (A) (A) (A) (A) (A)
                 (A) (A) (A) (A) (A) (A) (A) (A) (A) (A) (A) (A)
                 (A) (A) (A) (A) (A) (A) (A) (A) (A) (A) (A) (A)
                 (A) (A) (A) (A) (A) (A) (A) (A) (A) (A) (A) (A)
                 (A) (A) (A) (A) (A) (A) (A) (A) (A) (A) (A) (A)
                 (A) (A) (A) (A) (A) (A) (A) (A) (A) (A) (A) (A)
                 (A) (A) (A) (A) (A) (A) (A) (A) (A) (A) (A) (A)
                 (A) (A) (A) (A) (A) (A) (A) (A) (A) (A) (A) (A)
                 (A) (A) (A) (A) (A) (A) (A) (A) (A) (A) (A) (A)
                 (A) (A) (A) (A) (A) (A) (A) (A) (A) (A) (A) (A)
                 (A) (A) (A) (A) (A) (A) (A) (A) (A) (A) (A) (A)
                 (A) (A) (A) (A) (A) (A) (A) (A) (A) (A) (A) (A)
                 (A) (A) (A) (A) (A) (A) (A) (A) (A) (A) (A) (A)
                 (A) (A) (A) (A) (A) (A) (A) (A) (A) (A) (A) (A)
                 (A) (A) (A) (A) (A) (A) (A) (A) (A) (A) (A) (A)
                 (A) (A) (A) (A) (A) (A) (A) (A) (A) (A) (A) (A)
                 (A) (A) (A) (A) (A) (A) (A) (A) (A) (A) (A) (A)
                 (A) (A) (A) (A) (A) (A) (A) (A) (A) (A) (A) (A)
                 (A) (A) (A) (A) (A) (A) (A) (A) (A) (A) (A) (A)
                 (A) (A) (A) (A) (A) (A) (A) (A) (A) (A) (A) (A)
                 (A) (A) (A) (A) (A) (A) (A) (A) (A) (A) (A) (A)
                 (A) (A) (A) (A) (A) (A) (A) (A) (A) (A) (A) (A)
                 (A) (A) (A) (A) (A) (A) (A) (A) (A) (A) (A) (A)
                 (A) (A) (A) (A) (A) (A) (A) (A) (A) (A) (A) (A)
                 (A) (A) (A) (A) (A) (A) (A) (A) (A) (A) (A) (A)
                 (A) (A) (A) (A) (A) (A) (A) (A) (A) (A) (A) (A)
                 (A) (A) (A) (A) (A) (A) (A) (A) (A)
 The electronic state is 1-A.
 Alpha  occ. eigenvalues --  -91.99068 -91.98969 -91.98383 -11.28898 -11.27790
 Alpha  occ. eigenvalues --  -11.27631 -11.27312 -11.27168 -11.27159 -11.25817
 Alpha  occ. eigenvalues --  -11.25770 -11.25580 -11.24355 -11.23732  -8.99248
 Alpha  occ. eigenvalues --   -8.99132  -8.98611  -6.67416  -6.67338  -6.67296
 Alpha  occ. eigenvalues --   -6.67215  -6.67131  -6.67007  -6.66777  -6.66684
 Alpha  occ. eigenvalues --   -6.66492  -1.21770  -1.18605  -1.12876  -1.04047
 Alpha  occ. eigenvalues --   -1.02444  -1.01742  -0.95868  -0.94584  -0.91938
 Alpha  occ. eigenvalues --   -0.82191  -0.77347  -0.76608  -0.72757  -0.69990
 Alpha  occ. eigenvalues --   -0.67400  -0.66874  -0.60742  -0.59106  -0.58892
 Alpha  occ. eigenvalues --   -0.56696  -0.56338  -0.54654  -0.53957  -0.52547
 Alpha  occ. eigenvalues --   -0.51858  -0.51041  -0.49478  -0.47351  -0.46415
 Alpha  occ. eigenvalues --   -0.46132  -0.38938  -0.34491  -0.34048  -0.32232
 Alpha  occ. eigenvalues --   -0.29345
 Alpha virt. eigenvalues --    0.03392   0.03520   0.04081   0.04780   0.04937
 Alpha virt. eigenvalues --    0.05501   0.06608   0.07352   0.07921   0.08476
 Alpha virt. eigenvalues --    0.08785   0.09283   0.10250   0.10689   0.11054
 Alpha virt. eigenvalues --    0.11321   0.11693   0.12355   0.12616   0.13061
 Alpha virt. eigenvalues --    0.13344   0.13756   0.14104   0.14313   0.14738
 Alpha virt. eigenvalues --    0.14899   0.15210   0.15539   0.15711   0.16022
 Alpha virt. eigenvalues --    0.16727   0.16961   0.17609   0.18081   0.18311
 Alpha virt. eigenvalues --    0.18842   0.19080   0.19406   0.20086   0.20460
 Alpha virt. eigenvalues --    0.20581   0.21139   0.21356   0.21571   0.22037
 Alpha virt. eigenvalues --    0.22471   0.22821   0.23075   0.23548   0.24046
 Alpha virt. eigenvalues --    0.24863   0.25084   0.25542   0.26111   0.26582
 Alpha virt. eigenvalues --    0.26717   0.27147   0.27862   0.28225   0.28897
 Alpha virt. eigenvalues --    0.29341   0.29741   0.30848   0.31799   0.31994
 Alpha virt. eigenvalues --    0.32235   0.32665   0.32935   0.33314   0.34011
 Alpha virt. eigenvalues --    0.34287   0.34842   0.35384   0.35831   0.36612
 Alpha virt. eigenvalues --    0.37392   0.37737   0.38223   0.39192   0.40299
 Alpha virt. eigenvalues --    0.40357   0.40942   0.41170   0.41891   0.42870
 Alpha virt. eigenvalues --    0.43761   0.43990   0.44568   0.45055   0.45498
 Alpha virt. eigenvalues --    0.45812   0.46231   0.46502   0.47663   0.48278
 Alpha virt. eigenvalues --    0.48731   0.49019   0.49242   0.49541   0.50905
 Alpha virt. eigenvalues --    0.51900   0.53140   0.53418   0.54203   0.54547
 Alpha virt. eigenvalues --    0.55371   0.56608   0.57979   0.58213   0.58782
 Alpha virt. eigenvalues --    0.58850   0.59435   0.59932   0.60855   0.60906
 Alpha virt. eigenvalues --    0.61775   0.62820   0.63132   0.63722   0.64358
 Alpha virt. eigenvalues --    0.64579   0.65296   0.65838   0.66264   0.66988
 Alpha virt. eigenvalues --    0.67732   0.67941   0.68472   0.68644   0.68935
 Alpha virt. eigenvalues --    0.69309   0.69838   0.70276   0.71113   0.71428
 Alpha virt. eigenvalues --    0.72260   0.72683   0.73907   0.74322   0.74653
 Alpha virt. eigenvalues --    0.74966   0.75076   0.75809   0.76110   0.77061
 Alpha virt. eigenvalues --    0.77266   0.78040   0.78246   0.79269   0.79643
 Alpha virt. eigenvalues --    0.81171   0.81614   0.81968   0.82565   0.83325
 Alpha virt. eigenvalues --    0.83602   0.84459   0.85767   0.86272   0.87271
 Alpha virt. eigenvalues --    0.87455   0.88148   0.89955   0.90037   0.90596
 Alpha virt. eigenvalues --    0.91496   0.92119   0.92534   0.92867   0.93832
 Alpha virt. eigenvalues --    0.95387   0.95732   0.96143   0.96568   0.97492
 Alpha virt. eigenvalues --    0.97972   0.99151   0.99686   0.99936   1.00623
 Alpha virt. eigenvalues --    1.01590   1.03203   1.03605   1.05393   1.05823
 Alpha virt. eigenvalues --    1.06333   1.07470   1.08481   1.09148   1.10169
 Alpha virt. eigenvalues --    1.12095   1.12745   1.13338   1.14110   1.15688
 Alpha virt. eigenvalues --    1.16863   1.18212   1.18994   1.19571   1.20240
 Alpha virt. eigenvalues --    1.21831   1.22405   1.23328   1.24091   1.24448
 Alpha virt. eigenvalues --    1.25267   1.25790   1.26627   1.27462   1.28886
 Alpha virt. eigenvalues --    1.30277   1.30502   1.31802   1.32704   1.33608
 Alpha virt. eigenvalues --    1.34193   1.35935   1.36400   1.37184   1.39629
 Alpha virt. eigenvalues --    1.39962   1.41061   1.41593   1.44460   1.46321
 Alpha virt. eigenvalues --    1.48270   1.49247   1.49678   1.52163   1.53390
 Alpha virt. eigenvalues --    1.53841   1.55151   1.57250   1.58097   1.58811
 Alpha virt. eigenvalues --    1.60032   1.61295   1.62200   1.62444   1.64069
 Alpha virt. eigenvalues --    1.64953   1.65928   1.67010   1.68228   1.68482
 Alpha virt. eigenvalues --    1.69706   1.69824   1.71030   1.71931   1.72881
 Alpha virt. eigenvalues --    1.74261   1.74542   1.77166   1.77323   1.79384
 Alpha virt. eigenvalues --    1.80019   1.80808   1.81706   1.82584   1.84127
 Alpha virt. eigenvalues --    1.84732   1.85952   1.87986   1.89290   1.89956
 Alpha virt. eigenvalues --    1.91542   1.92786   1.94706   1.95603   1.96913
 Alpha virt. eigenvalues --    1.97800   1.98078   1.99303   1.99831   2.03317
 Alpha virt. eigenvalues --    2.04932   2.05681   2.08042   2.08828   2.09804
 Alpha virt. eigenvalues --    2.10598   2.10914   2.11934   2.13360   2.15017
 Alpha virt. eigenvalues --    2.15265   2.15434   2.18543   2.20580   2.21920
 Alpha virt. eigenvalues --    2.23361   2.24037   2.25538   2.26475   2.27467
 Alpha virt. eigenvalues --    2.29144   2.29442   2.31697   2.32859   2.34160
 Alpha virt. eigenvalues --    2.35479   2.36991   2.37980   2.40355   2.41623
 Alpha virt. eigenvalues --    2.42473   2.43341   2.46048   2.46627   2.47818
 Alpha virt. eigenvalues --    2.49242   2.51642   2.52785   2.53991   2.56045
 Alpha virt. eigenvalues --    2.57293   2.59084   2.63001   2.64184   2.70371
 Alpha virt. eigenvalues --    2.73922   2.75421   2.79497   2.84159   2.85027
 Alpha virt. eigenvalues --    2.87169   2.88181   2.91939   2.94579   2.99474
 Alpha virt. eigenvalues --    3.00717   3.01614   3.07066   3.08084   3.22067
 Alpha virt. eigenvalues --    3.24324   3.29911   3.35675   3.45906   3.54743
 Alpha virt. eigenvalues --    3.63290   3.75171   3.81055   4.13069   4.24515
          Condensed to atoms (all electrons):
               1          2          3          4          5          6
     1  C   10.223493  -2.373727  -0.856961  -0.967932  -0.218556  -0.306154
     2  C   -2.373727  10.966762  -2.092560   0.636221   0.225955   0.218048
     3  C   -0.856961  -2.092560  13.823858  -0.847997  -1.447729  -0.023237
     4  C   -0.967932   0.636221  -0.847997   6.051963   0.144114   0.041393
     5  C   -0.218556   0.225955  -1.447729   0.144114   6.974673  -0.034364
     6  H   -0.306154   0.218048  -0.023237   0.041393  -0.034364   1.643073
     7  S   -0.572452   0.025810  -0.576220   0.123433   0.443465  -0.007499
     8  H    0.032655   0.128562  -0.050051   0.032183   0.166074  -0.069354
     9  C    0.629303  -1.104739  -1.760697  -0.043438   0.091177   0.036699
    10  S   -0.001745  -0.122115  -0.582879  -0.052704   0.044938   0.000765
    11  C    0.055911  -0.015409  -0.414318  -0.111124   0.011248   0.002495
    12  C   -0.080219   0.026906   0.725992   0.214760   0.001854  -0.004697
    13  C   -0.164096   0.380131  -0.455772  -0.349389  -0.107155  -0.007512
    14  H    0.029364  -0.077052   0.139249   0.070875  -0.006359   0.000266
    15  S   -0.001376   0.011961  -0.090798  -0.009440   0.000210  -0.000034
    16  C    0.000264  -0.012816   0.021985  -0.002097   0.000402  -0.000011
    17  C    0.004718  -0.001618  -0.423252  -0.026653  -0.001661   0.000125
    18  H   -0.000006  -0.000114  -0.000246  -0.000147   0.000016  -0.000003
    19  H   -0.000149   0.000207  -0.013649  -0.000533   0.000091  -0.000017
    20  H    0.002127   0.000160  -0.040940   0.294561   0.015943  -0.006268
    21  H   -0.021083   0.076895  -0.015917   0.251896   0.028063  -0.005739
    22  H   -0.047560   0.108476   0.169532   0.045657  -0.038526   0.002635
               7          8          9         10         11         12
     1  C   -0.572452   0.032655   0.629303  -0.001745   0.055911  -0.080219
     2  C    0.025810   0.128562  -1.104739  -0.122115  -0.015409   0.026906
     3  C   -0.576220  -0.050051  -1.760697  -0.582879  -0.414318   0.725992
     4  C    0.123433   0.032183  -0.043438  -0.052704  -0.111124   0.214760
     5  C    0.443465   0.166074   0.091177   0.044938   0.011248   0.001854
     6  H   -0.007499  -0.069354   0.036699   0.000765   0.002495  -0.004697
     7  S   16.315276  -0.143852  -0.078319   0.292238   0.057680   0.009030
     8  H   -0.143852   1.262430  -0.001498   0.003564   0.000659   0.001112
     9  C   -0.078319  -0.001498  12.609989   0.357231   0.005970  -0.636523
    10  S    0.292238   0.003564   0.357231  16.622038   0.455021  -0.592701
    11  C    0.057680   0.000659   0.005970   0.455021  11.413556  -0.803920
    12  C    0.009030   0.001112  -0.636523  -0.592701  -0.803920  12.483009
    13  C   -0.294927  -0.005839  -3.724073  -0.659127  -1.480278  -3.354542
    14  H    0.006843  -0.000094   0.255225   0.022356  -0.074933   0.628742
    15  S    0.002867  -0.000011  -0.317798   0.103239  -0.092437  -0.411033
    16  C    0.005168   0.000050   0.089939  -0.107892  -0.193236  -0.901902
    17  C    0.022043  -0.000093  -0.769003  -0.205949  -2.739612  -1.013526
    18  H    0.000224   0.000003   0.002706   0.009284   0.064991  -0.047554
    19  H    0.002655   0.000011   0.116073   0.017671   0.627226   0.043130
    20  H    0.003423   0.001706   0.017561  -0.001837  -0.003979   0.012204
    21  H    0.005927   0.001698   0.030822   0.002174  -0.000160  -0.013019
    22  H    0.002592  -0.000468  -0.116665   0.005212  -0.005619   0.048024
              13         14         15         16         17         18
     1  C   -0.164096   0.029364  -0.001376   0.000264   0.004718  -0.000006
     2  C    0.380131  -0.077052   0.011961  -0.012816  -0.001618  -0.000114
     3  C   -0.455772   0.139249  -0.090798   0.021985  -0.423252  -0.000246
     4  C   -0.349389   0.070875  -0.009440  -0.002097  -0.026653  -0.000147
     5  C   -0.107155  -0.006359   0.000210   0.000402  -0.001661   0.000016
     6  H   -0.007512   0.000266  -0.000034  -0.000011   0.000125  -0.000003
     7  S   -0.294927   0.006843   0.002867   0.005168   0.022043   0.000224
     8  H   -0.005839  -0.000094  -0.000011   0.000050  -0.000093   0.000003
     9  C   -3.724073   0.255225  -0.317798   0.089939  -0.769003   0.002706
    10  S   -0.659127   0.022356   0.103239  -0.107892  -0.205949   0.009284
    11  C   -1.480278  -0.074933  -0.092437  -0.193236  -2.739612   0.064991
    12  C   -3.354542   0.628742  -0.411033  -0.901902  -1.013526  -0.047554
    13  C   16.537003  -1.214566   0.165113  -0.146283   0.649718   0.033232
    14  H   -1.214566   1.747251  -0.032161   0.016075  -0.035169   0.001937
    15  S    0.165113  -0.032161  16.010893   0.184515   0.025639  -0.159542
    16  C   -0.146283   0.016075   0.184515   6.881335   0.152013   0.180113
    17  C    0.649718  -0.035169   0.025639   0.152013  10.353407   0.067928
    18  H    0.033232   0.001937  -0.159542   0.180113   0.067928   1.295680
    19  H   -0.071748  -0.002077  -0.003200  -0.107923  -0.647435  -0.068733
    20  H   -0.036897   0.003559  -0.000180   0.000020  -0.000421   0.000020
    21  H   -0.020616  -0.006400  -0.001368  -0.000199  -0.001002  -0.000006
    22  H    0.070065   0.004068  -0.000217   0.000450  -0.012722  -0.000088
              19         20         21         22
     1  C   -0.000149   0.002127  -0.021083  -0.047560
     2  C    0.000207   0.000160   0.076895   0.108476
     3  C   -0.013649  -0.040940  -0.015917   0.169532
     4  C   -0.000533   0.294561   0.251896   0.045657
     5  C    0.000091   0.015943   0.028063  -0.038526
     6  H   -0.000017  -0.006268  -0.005739   0.002635
     7  S    0.002655   0.003423   0.005927   0.002592
     8  H    0.000011   0.001706   0.001698  -0.000468
     9  C    0.116073   0.017561   0.030822  -0.116665
    10  S    0.017671  -0.001837   0.002174   0.005212
    11  C    0.627226  -0.003979  -0.000160  -0.005619
    12  C    0.043130   0.012204  -0.013019   0.048024
    13  C   -0.071748  -0.036897  -0.020616   0.070065
    14  H   -0.002077   0.003559  -0.006400   0.004068
    15  S   -0.003200  -0.000180  -0.001368  -0.000217
    16  C   -0.107923   0.000020  -0.000199   0.000450
    17  C   -0.647435  -0.000421  -0.001002  -0.012722
    18  H   -0.068733   0.000020  -0.000006  -0.000088
    19  H    1.437035   0.000013  -0.000011   0.000133
    20  H    0.000013   1.057528  -0.124449  -0.164930
    21  H   -0.000011  -0.124449   0.814369  -0.109682
    22  H    0.000133  -0.164930  -0.109682   1.120647
 Mulliken charges:
               1
     1  C    0.634182
     2  C   -1.005946
     3  C    0.812607
     4  C    0.504398
     5  C   -0.293873
     6  H   -0.480613
     7  S    0.354595
     8  H   -0.359449
     9  C    0.310057
    10  S    0.391218
    11  C   -0.759731
    12  C   -0.335127
    13  C    0.257562
    14  H   -0.476997
    15  S    0.615157
    16  C   -0.059969
    17  C    0.602527
    18  H   -0.379696
    19  H   -0.328772
    20  H   -0.028924
    21  H    0.107807
    22  H   -0.081014
 Sum of Mulliken charges =  -0.00000
 Mulliken charges with hydrogens summed into heavy atoms:
               1
     1  C    0.153569
     2  C   -1.005946
     3  C    0.812607
     4  C    0.502268
     5  C   -0.653321
     7  S    0.354595
     9  C    0.310057
    10  S    0.391218
    11  C   -0.759731
    12  C   -0.335127
    13  C   -0.219436
    15  S    0.615157
    16  C   -0.439665
    17  C    0.273755
 Electronic spatial extent (au):  <R**2>=           4341.7557
 Charge=             -0.0000 electrons
 Dipole moment (field-independent basis, Debye):
    X=             -0.3824    Y=              1.1123    Z=              0.5064  Tot=              1.2806
 Quadrupole moment (field-independent basis, Debye-Ang):
   XX=            -86.8258   YY=           -101.3439   ZZ=           -108.6029
   XY=             -6.3775   XZ=              1.6656   YZ=             -1.0741
 Traceless Quadrupole moment (field-independent basis, Debye-Ang):
   XX=             12.0984   YY=             -2.4197   ZZ=             -9.6787
   XY=             -6.3775   XZ=              1.6656   YZ=             -1.0741
 Octapole moment (field-independent basis, Debye-Ang**2):
  XXX=             -1.0915  YYY=              5.2617  ZZZ=              2.5656  XYY=             -5.6634
  XXY=            -15.5049  XXZ=              6.1764  XZZ=             -1.5151  YZZ=              1.6306
  YYZ=              2.2576  XYZ=            -16.0360
 Hexadecapole moment (field-independent basis, Debye-Ang**3):
 XXXX=          -4128.0648 YYYY=           -949.2658 ZZZZ=           -387.8901 XXXY=            -35.9766
 XXXZ=             56.2840 YYYX=            -30.5539 YYYZ=            -13.6503 ZZZX=             -6.4100
 ZZZY=              1.0781 XXYY=           -932.9292 XXZZ=           -919.8699 YYZZ=           -213.6804
 XXYZ=             11.2389 YYXZ=             10.3003 ZZXY=             -6.6147
 N-N= 1.123732269299D+03 E-N=-6.067638956478D+03  KE= 1.613730811740D+03
 Unable to Open any file for archive entry.
 1\1\GINC-CX3-3-18\FOpt\RHF\Aug-CC-pVDZ\C11H8S3\NS5018\26-Oct-2021\0\\#
  opt=modredundant hf/aug-cc-pvdz\\pBTTT_125.pdb\\0,1\C,-4.2107176381,-
 1.2931028994,-0.2152032226\C,-2.8576580245,-1.0503221498,-0.6539979566
 \C,-2.1095946952,-2.183198831,-0.6331888064\C,-2.3843443742,0.32313941
 28,-1.0510705598\C,-4.44312937,-2.5750730253,0.1287214651\H,-4.9590394
 548,-0.5170036351,-0.1568985592\S,-3.0377476014,-3.5559198178,-0.07380
 85658\H,-5.3610544625,-3.004165755,0.4932267262\C,-0.7026635307,-2.357
 0748616,-1.0276414934\S,0.4617090246,-3.0500962308,0.0959236413\C,1.72
 74817862,-2.9075098064,-1.0841955427\C,1.2597378016,-2.3575679134,-2.2
 415236298\C,-0.138970357,-2.046592801,-2.217436679\H,-0.6942878815,-1.
 634801243,-3.0438640441\S,2.5249481509,-2.2161341439,-3.424005344\C,3.
 6700071488,-2.9127980423,-2.3073724509\C,3.1250650483,-3.23253944,-1.1
 151915437\H,4.6949010883,-3.0442573851,-2.6103455126\H,3.6765565228,-3
 .6734321661,-0.3009319751\H,-2.7245534303,1.0616956198,-0.3249009364\H
 ,-2.789884717,0.6080736609,-2.0236465665\H,-1.3007610342,0.3716814535,
 -1.1066484438\\Version=ES64L-G16RevC.01\State=1-A\HF=-1613.8146355\RMS
 D=5.038e-09\RMSF=1.142e-04\Dipole=-0.128084,0.4835482,-0.0602383\Quadr
 upole=9.0597522,-3.6888508,-5.3709014,-5.1568329,-1.044418,-1.6324912\
 PG=C01 [X(C11H8S3)]\\@
 The archive entry for this job was punched.


 Age does not diminish the extreme disappointment of
 having a scoop of ice cream fall from the cone.
 -- Jim Fiebig
 Job cpu time:       0 days  9 hours 55 minutes 58.6 seconds.
 Elapsed time:       0 days  1 hours 15 minutes 12.0 seconds.
 File lengths (MBytes):  RWF=    103 Int=      0 D2E=      0 Chk=     13 Scr=      1
 Normal termination of Gaussian 16 at Tue Oct 26 01:49:36 2021.
