 Entering Gaussian System, Link 0=g16
 Input=pBTTT_45.gjf
 Output=pBTTT_45.log
 Initial command:
 /apps/gaussian/g16-c01-avx/g16/l1.exe "/tmp/pbs.4762177[220].pbs/Gau-177012.inp" -scrdir="/tmp/pbs.4762177[220].pbs/"
 Entering Link 1 = /apps/gaussian/g16-c01-avx/g16/l1.exe PID=    177014.
  
 Copyright (c) 1988-2019, Gaussian, Inc.  All Rights Reserved.
  
 This is part of the Gaussian(R) 16 program.  It is based on
 the Gaussian(R) 09 system (copyright 2009, Gaussian, Inc.),
 the Gaussian(R) 03 system (copyright 2003, Gaussian, Inc.),
 the Gaussian(R) 98 system (copyright 1998, Gaussian, Inc.),
 the Gaussian(R) 94 system (copyright 1995, Gaussian, Inc.),
 the Gaussian 92(TM) system (copyright 1992, Gaussian, Inc.),
 the Gaussian 90(TM) system (copyright 1990, Gaussian, Inc.),
 the Gaussian 88(TM) system (copyright 1988, Gaussian, Inc.),
 the Gaussian 86(TM) system (copyright 1986, Carnegie Mellon
 University), and the Gaussian 82(TM) system (copyright 1983,
 Carnegie Mellon University). Gaussian is a federally registered
 trademark of Gaussian, Inc.
  
 This software contains proprietary and confidential information,
 including trade secrets, belonging to Gaussian, Inc.
  
 This software is provided under written license and may be
 used, copied, transmitted, or stored only in accord with that
 written license.
  
 The following legend is applicable only to US Government
 contracts under FAR:
  
                    RESTRICTED RIGHTS LEGEND
  
 Use, reproduction and disclosure by the US Government is
 subject to restrictions as set forth in subparagraphs (a)
 and (c) of the Commercial Computer Software - Restricted
 Rights clause in FAR 52.227-19.
  
 Gaussian, Inc.
 340 Quinnipiac St., Bldg. 40, Wallingford CT 06492
  
  
 ---------------------------------------------------------------
 Warning -- This program may not be used in any manner that
 competes with the business of Gaussian, Inc. or will provide
 assistance to any competitor of Gaussian, Inc.  The licensee
 of this program is prohibited from giving any competitor of
 Gaussian, Inc. access to this program.  By using this program,
 the user acknowledges that Gaussian, Inc. is engaged in the
 business of creating and licensing software in the field of
 computational chemistry and represents and warrants to the
 licensee that it is not a competitor of Gaussian, Inc. and that
 it will not use this program in any manner prohibited above.
 ---------------------------------------------------------------
  

 Cite this work as:
 Gaussian 16, Revision C.01,
 M. J. Frisch, G. W. Trucks, H. B. Schlegel, G. E. Scuseria, 
 M. A. Robb, J. R. Cheeseman, G. Scalmani, V. Barone, 
 G. A. Petersson, H. Nakatsuji, X. Li, M. Caricato, A. V. Marenich, 
 J. Bloino, B. G. Janesko, R. Gomperts, B. Mennucci, H. P. Hratchian, 
 J. V. Ortiz, A. F. Izmaylov, J. L. Sonnenberg, D. Williams-Young, 
 F. Ding, F. Lipparini, F. Egidi, J. Goings, B. Peng, A. Petrone, 
 T. Henderson, D. Ranasinghe, V. G. Zakrzewski, J. Gao, N. Rega, 
 G. Zheng, W. Liang, M. Hada, M. Ehara, K. Toyota, R. Fukuda, 
 J. Hasegawa, M. Ishida, T. Nakajima, Y. Honda, O. Kitao, H. Nakai, 
 T. Vreven, K. Throssell, J. A. Montgomery, Jr., J. E. Peralta, 
 F. Ogliaro, M. J. Bearpark, J. J. Heyd, E. N. Brothers, K. N. Kudin, 
 V. N. Staroverov, T. A. Keith, R. Kobayashi, J. Normand, 
 K. Raghavachari, A. P. Rendell, J. C. Burant, S. S. Iyengar, 
 J. Tomasi, M. Cossi, J. M. Millam, M. Klene, C. Adamo, R. Cammi, 
 J. W. Ochterski, R. L. Martin, K. Morokuma, O. Farkas, 
 J. B. Foresman, and D. J. Fox, Gaussian, Inc., Wallingford CT, 2019.
 
 ******************************************
 Gaussian 16:  ES64L-G16RevC.01  3-Jul-2019
                26-Oct-2021 
 ******************************************
 %mem=100GB
 %nprocshared=8
 Will use up to    8 processors via shared memory.
 ---------------------------------
 # opt=modredundant hf/aug-cc-pvdz
 ---------------------------------
 1/18=120,19=15,38=1/1,3;
 2/9=110,12=2,17=6,18=5,40=1/2;
 3/5=16,7=10,11=9,25=1,30=1,71=1/1,2,3;
 4//1;
 5/5=2,38=5/2;
 6/7=2,8=2,9=2,10=2,28=1/1;
 7//1,2,3,16;
 1/18=20,19=15/3(2);
 2/9=110/2;
 99//99;
 2/9=110/2;
 3/5=16,7=10,11=9,25=1,30=1,71=1/1,2,3;
 4/5=5,16=3,69=1/1;
 5/5=2,38=5/2;
 7//1,2,3,16;
 1/18=20,19=15/3(-5);
 2/9=110/2;
 6/7=2,8=2,9=2,10=2,19=2,28=1/1;
 99/9=1/99;
 ------------
 pBTTT_45.pdb
 ------------
 Symbolic Z-matrix:
 Charge =  0 Multiplicity = 1
 C                    -4.25     -1.36     -0.21 
 C                    -2.93     -0.95     -0.61 
 C                    -1.97     -2.05     -0.62 
 C                    -2.66      0.47     -0.96 
 C                    -4.33     -2.76      0.1 
 H                    -5.1      -0.7      -0.14 
 S                    -2.8      -3.56     -0.11 
 H                    -5.23     -3.27      0.41 
 C                    -0.56     -2.13     -0.97 
 S                     0.626    -0.911    -0.411 
 C                     1.942    -1.705    -1.206 
 C                     1.53     -2.909    -1.881 
 C                     0.128    -3.168    -1.741 
 H                    -0.33     -4.099    -2.036 
 S                     2.818    -4.054    -2.051 
 C                     3.947    -2.963    -1.244 
 C                     3.316    -1.732    -0.826 
 H                     4.937    -3.275    -0.94 
 H                     3.757    -1.068    -0.088 
 H                    -3.55      1.09     -0.83 
 H                    -2.35      0.56     -2. 
 H                    -1.88      0.89     -0.31 
 
 The following ModRedundant input section has been read:
 D       2       3       9      10 F                                           
 

 GradGradGradGradGradGradGradGradGradGradGradGradGradGradGradGradGradGrad
 Berny optimization.
 Initialization pass.
                           ----------------------------
                           !    Initial Parameters    !
                           ! (Angstroms and Degrees)  !
 --------------------------                            --------------------------
 ! Name  Definition              Value          Derivative Info.                !
 --------------------------------------------------------------------------------
 ! R1    R(1,2)                  1.4389         estimate D2E/DX2                !
 ! R2    R(1,5)                  1.4361         estimate D2E/DX2                !
 ! R3    R(1,6)                  1.0784         estimate D2E/DX2                !
 ! R4    R(2,3)                  1.46           estimate D2E/DX2                !
 ! R5    R(2,4)                  1.4872         estimate D2E/DX2                !
 ! R6    R(3,7)                  1.797          estimate D2E/DX2                !
 ! R7    R(3,9)                  1.455          estimate D2E/DX2                !
 ! R8    R(4,20)                 1.0924         estimate D2E/DX2                !
 ! R9    R(4,21)                 1.0889         estimate D2E/DX2                !
 ! R10   R(4,22)                 1.0988         estimate D2E/DX2                !
 ! R11   R(5,7)                  1.7393         estimate D2E/DX2                !
 ! R12   R(5,8)                  1.0799         estimate D2E/DX2                !
 ! R13   R(9,10)                 1.7903         estimate D2E/DX2                !
 ! R14   R(9,13)                 1.4647         estimate D2E/DX2                !
 ! R15   R(10,11)                1.7304         estimate D2E/DX2                !
 ! R16   R(11,12)                1.4405         estimate D2E/DX2                !
 ! R17   R(11,17)                1.4258         estimate D2E/DX2                !
 ! R18   R(12,13)                1.4326         estimate D2E/DX2                !
 ! R19   R(12,15)                1.7317         estimate D2E/DX2                !
 ! R20   R(13,14)                1.0787         estimate D2E/DX2                !
 ! R21   R(15,16)                1.7653         estimate D2E/DX2                !
 ! R22   R(16,17)                1.4451         estimate D2E/DX2                !
 ! R23   R(16,18)                1.0816         estimate D2E/DX2                !
 ! R24   R(17,19)                1.0863         estimate D2E/DX2                !
 ! A1    A(2,1,5)              112.8843         estimate D2E/DX2                !
 ! A2    A(2,1,6)              124.5209         estimate D2E/DX2                !
 ! A3    A(5,1,6)              122.5942         estimate D2E/DX2                !
 ! A4    A(1,2,3)              112.9799         estimate D2E/DX2                !
 ! A5    A(1,2,4)              120.2665         estimate D2E/DX2                !
 ! A6    A(3,2,4)              126.7536         estimate D2E/DX2                !
 ! A7    A(2,3,7)              109.1138         estimate D2E/DX2                !
 ! A8    A(2,3,9)              132.8639         estimate D2E/DX2                !
 ! A9    A(7,3,9)              118.0132         estimate D2E/DX2                !
 ! A10   A(2,4,20)             111.468          estimate D2E/DX2                !
 ! A11   A(2,4,21)             110.8154         estimate D2E/DX2                !
 ! A12   A(2,4,22)             110.7706         estimate D2E/DX2                !
 ! A13   A(20,4,21)            107.3779         estimate D2E/DX2                !
 ! A14   A(20,4,22)            106.918          estimate D2E/DX2                !
 ! A15   A(21,4,22)            109.3476         estimate D2E/DX2                !
 ! A16   A(1,5,7)              111.9209         estimate D2E/DX2                !
 ! A17   A(1,5,8)              124.6643         estimate D2E/DX2                !
 ! A18   A(7,5,8)              123.4062         estimate D2E/DX2                !
 ! A19   A(3,7,5)               93.0997         estimate D2E/DX2                !
 ! A20   A(3,9,10)             121.9675         estimate D2E/DX2                !
 ! A21   A(3,9,13)             128.3747         estimate D2E/DX2                !
 ! A22   A(10,9,13)            109.6173         estimate D2E/DX2                !
 ! A23   A(9,10,11)             92.7473         estimate D2E/DX2                !
 ! A24   A(10,11,12)           112.4135         estimate D2E/DX2                !
 ! A25   A(10,11,17)           128.2513         estimate D2E/DX2                !
 ! A26   A(12,11,17)           112.6236         estimate D2E/DX2                !
 ! A27   A(11,12,13)           112.658          estimate D2E/DX2                !
 ! A28   A(11,12,15)           112.7006         estimate D2E/DX2                !
 ! A29   A(13,12,15)           128.1663         estimate D2E/DX2                !
 ! A30   A(9,13,12)            112.521          estimate D2E/DX2                !
 ! A31   A(9,13,14)            123.7925         estimate D2E/DX2                !
 ! A32   A(12,13,14)           123.014          estimate D2E/DX2                !
 ! A33   A(12,15,16)            91.2702         estimate D2E/DX2                !
 ! A34   A(15,16,17)           112.2994         estimate D2E/DX2                !
 ! A35   A(15,16,18)           122.3852         estimate D2E/DX2                !
 ! A36   A(17,16,18)           124.34           estimate D2E/DX2                !
 ! A37   A(11,17,16)           111.0892         estimate D2E/DX2                !
 ! A38   A(11,17,19)           124.1041         estimate D2E/DX2                !
 ! A39   A(16,17,19)           122.6802         estimate D2E/DX2                !
 ! D1    D(5,1,2,3)              0.3915         estimate D2E/DX2                !
 ! D2    D(5,1,2,4)           -179.5973         estimate D2E/DX2                !
 ! D3    D(6,1,2,3)           -179.8811         estimate D2E/DX2                !
 ! D4    D(6,1,2,4)              0.13           estimate D2E/DX2                !
 ! D5    D(2,1,5,7)             -0.3845         estimate D2E/DX2                !
 ! D6    D(2,1,5,8)           -179.3471         estimate D2E/DX2                !
 ! D7    D(6,1,5,7)            179.8822         estimate D2E/DX2                !
 ! D8    D(6,1,5,8)              0.9196         estimate D2E/DX2                !
 ! D9    D(1,2,3,7)             -0.2224         estimate D2E/DX2                !
 ! D10   D(1,2,3,9)            178.6265         estimate D2E/DX2                !
 ! D11   D(4,2,3,7)            179.7656         estimate D2E/DX2                !
 ! D12   D(4,2,3,9)             -1.3855         estimate D2E/DX2                !
 ! D13   D(1,2,4,20)             2.1641         estimate D2E/DX2                !
 ! D14   D(1,2,4,21)          -117.3645         estimate D2E/DX2                !
 ! D15   D(1,2,4,22)           121.0843         estimate D2E/DX2                !
 ! D16   D(3,2,4,20)          -177.8231         estimate D2E/DX2                !
 ! D17   D(3,2,4,21)            62.6483         estimate D2E/DX2                !
 ! D18   D(3,2,4,22)           -58.9029         estimate D2E/DX2                !
 ! D19   D(2,3,7,5)              0.0033         estimate D2E/DX2                !
 ! D20   D(9,3,7,5)           -179.041          estimate D2E/DX2                !
 ! D21   D(2,3,9,10)            44.998          Frozen                          !
 ! D22   D(2,3,9,13)          -137.5645         estimate D2E/DX2                !
 ! D23   D(7,3,9,10)          -136.234          estimate D2E/DX2                !
 ! D24   D(7,3,9,13)            41.2035         estimate D2E/DX2                !
 ! D25   D(1,5,7,3)              0.2153         estimate D2E/DX2                !
 ! D26   D(8,5,7,3)            179.1932         estimate D2E/DX2                !
 ! D27   D(3,9,10,11)          179.7575         estimate D2E/DX2                !
 ! D28   D(13,9,10,11)           1.89           estimate D2E/DX2                !
 ! D29   D(3,9,13,12)         -179.832          estimate D2E/DX2                !
 ! D30   D(3,9,13,14)           -8.9986         estimate D2E/DX2                !
 ! D31   D(10,9,13,12)          -2.1397         estimate D2E/DX2                !
 ! D32   D(10,9,13,14)         168.6937         estimate D2E/DX2                !
 ! D33   D(9,10,11,12)          -1.1966         estimate D2E/DX2                !
 ! D34   D(9,10,11,17)        -149.9601         estimate D2E/DX2                !
 ! D35   D(10,11,12,13)          0.1512         estimate D2E/DX2                !
 ! D36   D(10,11,12,15)       -154.0705         estimate D2E/DX2                !
 ! D37   D(17,11,12,13)        153.9718         estimate D2E/DX2                !
 ! D38   D(17,11,12,15)         -0.2499         estimate D2E/DX2                !
 ! D39   D(10,11,17,16)        149.7727         estimate D2E/DX2                !
 ! D40   D(10,11,17,19)        -13.9785         estimate D2E/DX2                !
 ! D41   D(12,11,17,16)          1.062          estimate D2E/DX2                !
 ! D42   D(12,11,17,19)       -162.6892         estimate D2E/DX2                !
 ! D43   D(11,12,13,9)           1.3177         estimate D2E/DX2                !
 ! D44   D(11,12,13,14)       -169.5982         estimate D2E/DX2                !
 ! D45   D(15,12,13,9)         150.6346         estimate D2E/DX2                !
 ! D46   D(15,12,13,14)        -20.2813         estimate D2E/DX2                !
 ! D47   D(11,12,15,16)         -0.4835         estimate D2E/DX2                !
 ! D48   D(13,12,15,16)       -149.7897         estimate D2E/DX2                !
 ! D49   D(12,15,16,17)          1.0933         estimate D2E/DX2                !
 ! D50   D(12,15,16,18)        170.2406         estimate D2E/DX2                !
 ! D51   D(15,16,17,11)         -1.4209         estimate D2E/DX2                !
 ! D52   D(15,16,17,19)        162.6015         estimate D2E/DX2                !
 ! D53   D(18,16,17,11)       -170.3185         estimate D2E/DX2                !
 ! D54   D(18,16,17,19)         -6.2961         estimate D2E/DX2                !
 --------------------------------------------------------------------------------
 Trust Radius=3.00D-01 FncErr=1.00D-07 GrdErr=1.00D-07 EigMax=2.50D+02 EigMin=1.00D-04
 Number of steps in this run=    127 maximum allowed number of steps=    132.
 GradGradGradGradGradGradGradGradGradGradGradGradGradGradGradGradGradGrad

                          Input orientation:                          
 ---------------------------------------------------------------------
 Center     Atomic      Atomic             Coordinates (Angstroms)
 Number     Number       Type             X           Y           Z
 ---------------------------------------------------------------------
      1          6           0       -4.250000   -1.360000   -0.210000
      2          6           0       -2.930000   -0.950000   -0.610000
      3          6           0       -1.970000   -2.050000   -0.620000
      4          6           0       -2.660000    0.470000   -0.960000
      5          6           0       -4.330000   -2.760000    0.100000
      6          1           0       -5.100000   -0.700000   -0.140000
      7         16           0       -2.800000   -3.560000   -0.110000
      8          1           0       -5.230000   -3.270000    0.410000
      9          6           0       -0.560000   -2.130000   -0.970000
     10         16           0        0.626000   -0.911000   -0.411000
     11          6           0        1.942000   -1.705000   -1.206000
     12          6           0        1.530000   -2.909000   -1.881000
     13          6           0        0.128000   -3.168000   -1.741000
     14          1           0       -0.330000   -4.099000   -2.036000
     15         16           0        2.818000   -4.054000   -2.051000
     16          6           0        3.947000   -2.963000   -1.244000
     17          6           0        3.316000   -1.732000   -0.826000
     18          1           0        4.937000   -3.275000   -0.940000
     19          1           0        3.757000   -1.068000   -0.088000
     20          1           0       -3.550000    1.090000   -0.830000
     21          1           0       -2.350000    0.560000   -2.000000
     22          1           0       -1.880000    0.890000   -0.310000
 ---------------------------------------------------------------------
                    Distance matrix (angstroms):
                    1          2          3          4          5
     1  C    0.000000
     2  C    1.438923   0.000000
     3  C    2.417147   1.460034   0.000000
     4  C    2.537617   1.487212   2.634787   0.000000
     5  C    1.436141   2.395871   2.567509   3.787532   0.000000
     6  H    1.078425   2.234346   3.442354   2.827525   2.212261
     7  S    2.636759   2.660639   1.796970   4.121044   1.739253
     8  H    2.234480   3.422397   3.630000   4.740190   1.079907
     9  C    3.845335   2.671872   1.454991   3.342170   3.969219
    10  S    4.900753   3.561777   2.842572   3.606433   5.314307
    11  C    6.281075   4.966047   3.970663   5.096032   6.492815
    12  C    6.212893   5.034354   3.818115   5.460951   6.187581
    13  C    4.977922   3.943355   2.628340   4.649511   4.840404
    14  H    5.118867   4.325468   2.982123   5.240462   4.728152
    15  S    7.784828   6.689604   5.384117   7.187861   7.575958
    16  C    8.416031   7.193556   6.019455   7.451080   8.387865
    17  C    7.600144   6.298468   5.299562   6.370191   7.770172
    18  H    9.412815   8.210007   7.022085   8.469937   9.339385
    19  H    8.013251   6.708381   5.834884   6.656104   8.264247
    20  H    2.622384   2.143455   3.521378   1.092428   4.036806
    21  H    3.240447   2.132745   2.976726   1.088944   4.399182
    22  H    3.269465   2.139650   2.957668   1.098772   4.415099
                    6          7          8          9         10
     6  H    0.000000
     7  S    3.670218   0.000000
     8  H    2.631406   2.501879   0.000000
     9  C    4.831708   2.793224   5.001290   0.000000
    10  S    5.736291   4.341115   6.366448   1.790262   0.000000
    11  C    7.192784   5.208532   7.516533   2.548789   1.730409
    12  C    7.201921   4.723255   7.146790   2.409328   2.640098
    13  C    5.998851   3.374464   5.774545   1.464660   2.666637
    14  H    6.156372   3.178191   5.538967   2.250826   3.703769
    15  S    8.808857   5.964347   8.452306   4.035000   4.168083
    16  C    9.390857   6.867632   9.329914   4.591515   3.991696
    17  C    8.506743   6.423371   8.770818   3.899040   2.842950
    18  H   10.392882   7.786610  10.256238   5.615063   4.945003
    19  H    8.864794   7.014613   9.266228   4.532357   3.151530
    20  H    2.466313   4.764808   4.834211   4.396374   4.649574
    21  H    3.551014   4.555107   5.363898   3.391327   3.680399
    22  H    3.595191   4.548505   5.389480   3.361309   3.087691
                   11         12         13         14         15
    11  C    0.000000
    12  C    1.440481   0.000000
    13  C    2.391065   1.432580   0.000000
    14  H    3.403251   2.213532   1.078680   0.000000
    15  S    2.645600   1.731724   2.849069   3.148357   0.000000
    16  C    2.367284   2.500115   3.856656   4.495608   1.765268
    17  C    1.425835   2.384984   3.614231   4.512217   2.672136
    18  H    3.392003   3.553461   4.876426   5.442562   2.516212
    19  H    2.224841   3.400538   4.506889   5.448416   3.694765
    20  H    6.173772   6.550038   5.699839   6.224834   8.276654
    21  H    4.917512   5.206008   4.483921   5.078186   6.928190
    22  H    4.705797   5.341212   4.748388   5.501972   7.038851
                   16         17         18         19         20
    16  C    0.000000
    17  C    1.445076   0.000000
    18  H    1.081601   2.240867   0.000000
    19  H    2.227883   1.086288   2.643701   0.000000
    20  H    8.532480   7.423318   9.544344   7.655049   0.000000
    21  H    7.255017   6.223753   8.302481   6.603149   1.757783
    22  H    7.047829   5.842906   8.013465   5.971500   1.760483
                   21         22
    21  H    0.000000
    22  H    1.784909   0.000000
 Stoichiometry    C11H8S3
 Framework group  C1[X(C11H8S3)]
 Deg. of freedom    60
 Full point group                 C1      NOp   1
 Largest Abelian subgroup         C1      NOp   1
 Largest concise Abelian subgroup C1      NOp   1
                         Standard orientation:                         
 ---------------------------------------------------------------------
 Center     Atomic      Atomic             Coordinates (Angstroms)
 Number     Number       Type             X           Y           Z
 ---------------------------------------------------------------------
      1          6           0        4.116225    0.173247    0.083176
      2          6           0        2.835847    0.793094    0.299789
      3          6           0        1.715686   -0.105950    0.037756
      4          6           0        2.754588    2.209840    0.744789
      5          6           0        4.009676   -1.191250   -0.351904
      6          1           0        5.065250    0.666034    0.222866
      7         16           0        2.352779   -1.704113   -0.480982
      8          1           0        4.849879   -1.837005   -0.559894
      9          6           0        0.273153    0.054198    0.139985
     10         16           0       -0.565067    1.510144   -0.478598
     11          6           0       -2.119610    0.921375    0.002093
     12          6           0       -2.049360   -0.383499    0.608191
     13          6           0       -0.710743   -0.889298    0.675703
     14          1           0       -0.480321   -1.908145    0.944786
     15         16           0       -3.523841   -1.276758    0.444300
     16          6           0       -4.283919    0.060839   -0.421314
     17          6           0       -3.386025    1.178869   -0.600313
     18          1           0       -5.241116   -0.038103   -0.915122
     19          1           0       -3.565580    1.964583   -1.328623
     20          1           0        3.746350    2.660246    0.828111
     21          1           0        2.281534    2.281670    1.722981
     22          1           0        2.188960    2.813562    0.021682
 ---------------------------------------------------------------------
 Rotational constants (GHZ):           1.1872465           0.2744882           0.2341795
 Standard basis: Aug-CC-pVDZ (5D, 7F)
 There are   434 symmetry adapted cartesian basis functions of A   symmetry.
 There are   406 symmetry adapted basis functions of A   symmetry.
   406 basis functions,   804 primitive gaussians,   434 cartesian basis functions
    61 alpha electrons       61 beta electrons
       nuclear repulsion energy      1105.8218493789 Hartrees.
 NAtoms=   22 NActive=   22 NUniq=   22 SFac= 1.00D+00 NAtFMM=   60 NAOKFM=F Big=F
 Integral buffers will be    131072 words long.
 Raffenetti 1 integral format.
 Two-electron integral symmetry is turned on.
 One-electron integrals computed using PRISM.
 NBasis=   406 RedAO= T EigKep=  5.26D-06  NBF=   406
 NBsUse=   406 1.00D-06 EigRej= -1.00D+00 NBFU=   406
 ExpMin= 2.97D-02 ExpMax= 1.11D+05 ExpMxC= 1.07D+03 IAcc=3 IRadAn=         5 AccDes= 0.00D+00
 Harris functional with IExCor=  205 and IRadAn=       5 diagonalized for initial guess.
 HarFok:  IExCor=  205 AccDes= 0.00D+00 IRadAn=         5 IDoV= 1 UseB2=F ITyADJ=14
 ICtDFT=  3500011 ScaDFX=  1.000000  1.000000  1.000000  1.000000
 FoFCou: FMM=F IPFlag=           0 FMFlag=      100000 FMFlg1=           0
         NFxFlg=           0 DoJE=T BraDBF=F KetDBF=T FulRan=T
         wScrn=  0.000000 ICntrl=       500 IOpCl=  0 I1Cent=   200000004 NGrid=           0
         NMat0=    1 NMatS0=      1 NMatT0=    0 NMatD0=    1 NMtDS0=    0 NMtDT0=    0
 Petite list used in FoFCou.
 Requested convergence on RMS density matrix=1.00D-08 within 128 cycles.
 Requested convergence on MAX density matrix=1.00D-06.
 Requested convergence on             energy=1.00D-06.
 No special actions if energy rises.
 SCF Done:  E(RHF) =  -1613.75211490     A.U. after   17 cycles
            NFock= 17  Conv=0.81D-08     -V/T= 2.0009

 **********************************************************************

            Population analysis using the SCF Density.

 **********************************************************************

 Orbital symmetries:
       Occupied  (A) (A) (A) (A) (A) (A) (A) (A) (A) (A) (A) (A)
                 (A) (A) (A) (A) (A) (A) (A) (A) (A) (A) (A) (A)
                 (A) (A) (A) (A) (A) (A) (A) (A) (A) (A) (A) (A)
                 (A) (A) (A) (A) (A) (A) (A) (A) (A) (A) (A) (A)
                 (A) (A) (A) (A) (A) (A) (A) (A) (A) (A) (A) (A)
                 (A)
       Virtual   (A) (A) (A) (A) (A) (A) (A) (A) (A) (A) (A) (A)
                 (A) (A) (A) (A) (A) (A) (A) (A) (A) (A) (A) (A)
                 (A) (A) (A) (A) (A) (A) (A) (A) (A) (A) (A) (A)
                 (A) (A) (A) (A) (A) (A) (A) (A) (A) (A) (A) (A)
                 (A) (A) (A) (A) (A) (A) (A) (A) (A) (A) (A) (A)
                 (A) (A) (A) (A) (A) (A) (A) (A) (A) (A) (A) (A)
                 (A) (A) (A) (A) (A) (A) (A) (A) (A) (A) (A) (A)
                 (A) (A) (A) (A) (A) (A) (A) (A) (A) (A) (A) (A)
                 (A) (A) (A) (A) (A) (A) (A) (A) (A) (A) (A) (A)
                 (A) (A) (A) (A) (A) (A) (A) (A) (A) (A) (A) (A)
                 (A) (A) (A) (A) (A) (A) (A) (A) (A) (A) (A) (A)
                 (A) (A) (A) (A) (A) (A) (A) (A) (A) (A) (A) (A)
                 (A) (A) (A) (A) (A) (A) (A) (A) (A) (A) (A) (A)
                 (A) (A) (A) (A) (A) (A) (A) (A) (A) (A) (A) (A)
                 (A) (A) (A) (A) (A) (A) (A) (A) (A) (A) (A) (A)
                 (A) (A) (A) (A) (A) (A) (A) (A) (A) (A) (A) (A)
                 (A) (A) (A) (A) (A) (A) (A) (A) (A) (A) (A) (A)
                 (A) (A) (A) (A) (A) (A) (A) (A) (A) (A) (A) (A)
                 (A) (A) (A) (A) (A) (A) (A) (A) (A) (A) (A) (A)
                 (A) (A) (A) (A) (A) (A) (A) (A) (A) (A) (A) (A)
                 (A) (A) (A) (A) (A) (A) (A) (A) (A) (A) (A) (A)
                 (A) (A) (A) (A) (A) (A) (A) (A) (A) (A) (A) (A)
                 (A) (A) (A) (A) (A) (A) (A) (A) (A) (A) (A) (A)
                 (A) (A) (A) (A) (A) (A) (A) (A) (A) (A) (A) (A)
                 (A) (A) (A) (A) (A) (A) (A) (A) (A) (A) (A) (A)
                 (A) (A) (A) (A) (A) (A) (A) (A) (A) (A) (A) (A)
                 (A) (A) (A) (A) (A) (A) (A) (A) (A) (A) (A) (A)
                 (A) (A) (A) (A) (A) (A) (A) (A) (A) (A) (A) (A)
                 (A) (A) (A) (A) (A) (A) (A) (A) (A)
 The electronic state is 1-A.
 Alpha  occ. eigenvalues --  -92.00054 -91.99838 -91.99697 -11.30885 -11.29441
 Alpha  occ. eigenvalues --  -11.29358 -11.28697 -11.28639 -11.28537 -11.27396
 Alpha  occ. eigenvalues --  -11.27322 -11.27268 -11.25696 -11.23862  -9.00112
 Alpha  occ. eigenvalues --   -8.99892  -8.99668  -6.68277  -6.68188  -6.68059
 Alpha  occ. eigenvalues --   -6.67999  -6.67964  -6.67827  -6.67776  -6.67731
 Alpha  occ. eigenvalues --   -6.67567  -1.19824  -1.16101  -1.10389  -1.03811
 Alpha  occ. eigenvalues --   -1.03157  -1.00582  -0.94573  -0.93558  -0.90814
 Alpha  occ. eigenvalues --   -0.82071  -0.77564  -0.76202  -0.71379  -0.69802
 Alpha  occ. eigenvalues --   -0.66329  -0.65817  -0.60276  -0.58850  -0.58557
 Alpha  occ. eigenvalues --   -0.56499  -0.55561  -0.54257  -0.53743  -0.52530
 Alpha  occ. eigenvalues --   -0.51477  -0.50821  -0.49411  -0.47388  -0.46305
 Alpha  occ. eigenvalues --   -0.44966  -0.39150  -0.34279  -0.33514  -0.31906
 Alpha  occ. eigenvalues --   -0.26106
 Alpha virt. eigenvalues --    0.03470   0.03605   0.04085   0.04541   0.04860
 Alpha virt. eigenvalues --    0.05092   0.05958   0.06200   0.07507   0.08307
 Alpha virt. eigenvalues --    0.08510   0.09506   0.10072   0.10262   0.10498
 Alpha virt. eigenvalues --    0.11392   0.11774   0.12132   0.12479   0.12698
 Alpha virt. eigenvalues --    0.12942   0.13565   0.13683   0.14225   0.14489
 Alpha virt. eigenvalues --    0.14712   0.15077   0.15437   0.15868   0.16522
 Alpha virt. eigenvalues --    0.16607   0.17164   0.17456   0.17890   0.18066
 Alpha virt. eigenvalues --    0.18458   0.18732   0.18838   0.19189   0.19652
 Alpha virt. eigenvalues --    0.20373   0.20852   0.20975   0.21757   0.22168
 Alpha virt. eigenvalues --    0.22311   0.22536   0.22827   0.23360   0.23613
 Alpha virt. eigenvalues --    0.24379   0.25153   0.25883   0.26012   0.26171
 Alpha virt. eigenvalues --    0.26753   0.27176   0.27863   0.28025   0.28746
 Alpha virt. eigenvalues --    0.29157   0.29580   0.30467   0.30774   0.31218
 Alpha virt. eigenvalues --    0.31846   0.32382   0.33333   0.33476   0.33495
 Alpha virt. eigenvalues --    0.34005   0.34775   0.35384   0.36222   0.36988
 Alpha virt. eigenvalues --    0.37254   0.37586   0.37737   0.38312   0.39056
 Alpha virt. eigenvalues --    0.39758   0.40586   0.40987   0.41202   0.41874
 Alpha virt. eigenvalues --    0.42522   0.43163   0.44219   0.44625   0.44715
 Alpha virt. eigenvalues --    0.45360   0.45728   0.46500   0.46947   0.47306
 Alpha virt. eigenvalues --    0.47566   0.48265   0.49061   0.49634   0.50161
 Alpha virt. eigenvalues --    0.51480   0.51881   0.52408   0.53064   0.54304
 Alpha virt. eigenvalues --    0.54855   0.55069   0.55462   0.56501   0.56818
 Alpha virt. eigenvalues --    0.57350   0.58233   0.58792   0.59263   0.59984
 Alpha virt. eigenvalues --    0.60379   0.60810   0.61703   0.61839   0.63704
 Alpha virt. eigenvalues --    0.63908   0.64583   0.65137   0.65192   0.65651
 Alpha virt. eigenvalues --    0.66206   0.66452   0.67226   0.67728   0.68419
 Alpha virt. eigenvalues --    0.68691   0.69310   0.69954   0.70388   0.70609
 Alpha virt. eigenvalues --    0.70966   0.71115   0.71770   0.72413   0.73384
 Alpha virt. eigenvalues --    0.73463   0.74036   0.75047   0.75526   0.76398
 Alpha virt. eigenvalues --    0.77052   0.77612   0.77655   0.78210   0.79231
 Alpha virt. eigenvalues --    0.80075   0.80394   0.81079   0.81686   0.82192
 Alpha virt. eigenvalues --    0.82861   0.83654   0.84343   0.84953   0.86108
 Alpha virt. eigenvalues --    0.87319   0.87918   0.88976   0.89439   0.89894
 Alpha virt. eigenvalues --    0.89969   0.90932   0.91280   0.92060   0.92770
 Alpha virt. eigenvalues --    0.93069   0.94374   0.95370   0.96185   0.96775
 Alpha virt. eigenvalues --    0.97737   0.98192   0.98832   0.99879   1.00479
 Alpha virt. eigenvalues --    1.00787   1.01624   1.01903   1.03105   1.03649
 Alpha virt. eigenvalues --    1.04847   1.07017   1.07186   1.07478   1.08309
 Alpha virt. eigenvalues --    1.09481   1.11015   1.11326   1.13324   1.14849
 Alpha virt. eigenvalues --    1.15768   1.17125   1.17636   1.18198   1.18943
 Alpha virt. eigenvalues --    1.19552   1.21716   1.21900   1.23295   1.23632
 Alpha virt. eigenvalues --    1.24547   1.25761   1.26220   1.27071   1.27806
 Alpha virt. eigenvalues --    1.28787   1.29501   1.29787   1.30631   1.31857
 Alpha virt. eigenvalues --    1.32476   1.33519   1.35292   1.36438   1.36809
 Alpha virt. eigenvalues --    1.37901   1.39035   1.40519   1.41854   1.42382
 Alpha virt. eigenvalues --    1.43889   1.45867   1.47013   1.48509   1.49893
 Alpha virt. eigenvalues --    1.51623   1.52843   1.54863   1.56434   1.57516
 Alpha virt. eigenvalues --    1.57667   1.59589   1.60207   1.61332   1.62794
 Alpha virt. eigenvalues --    1.63023   1.65219   1.65714   1.66958   1.67177
 Alpha virt. eigenvalues --    1.67738   1.68373   1.70281   1.71212   1.71611
 Alpha virt. eigenvalues --    1.73200   1.74884   1.75038   1.76819   1.77592
 Alpha virt. eigenvalues --    1.78206   1.79255   1.80787   1.81200   1.81798
 Alpha virt. eigenvalues --    1.82705   1.83696   1.85208   1.86581   1.87641
 Alpha virt. eigenvalues --    1.88777   1.90492   1.91639   1.94358   1.95131
 Alpha virt. eigenvalues --    1.96166   1.96555   1.97566   1.98881   2.00355
 Alpha virt. eigenvalues --    2.00876   2.01525   2.02813   2.05387   2.06452
 Alpha virt. eigenvalues --    2.08331   2.09695   2.10727   2.12112   2.12657
 Alpha virt. eigenvalues --    2.13437   2.15443   2.16864   2.17512   2.18209
 Alpha virt. eigenvalues --    2.19003   2.20742   2.21741   2.22747   2.24430
 Alpha virt. eigenvalues --    2.25044   2.25534   2.27922   2.29189   2.31745
 Alpha virt. eigenvalues --    2.32714   2.33766   2.34736   2.37462   2.38377
 Alpha virt. eigenvalues --    2.38547   2.39403   2.41514   2.43001   2.45072
 Alpha virt. eigenvalues --    2.47349   2.48272   2.50910   2.52001   2.53369
 Alpha virt. eigenvalues --    2.53855   2.56486   2.58658   2.59860   2.63977
 Alpha virt. eigenvalues --    2.69580   2.72919   2.74275   2.75750   2.80793
 Alpha virt. eigenvalues --    2.81607   2.84399   2.85061   2.89223   2.89661
 Alpha virt. eigenvalues --    2.93277   2.97396   3.00759   3.02287   3.05265
 Alpha virt. eigenvalues --    3.13420   3.20947   3.23489   3.27314   3.31590
 Alpha virt. eigenvalues --    3.43394   3.60174   3.75372   4.09813   4.17649
          Condensed to atoms (all electrons):
               1          2          3          4          5          6
     1  C    9.492381  -1.818954  -0.432347  -1.215353   0.219245  -0.424888
     2  C   -1.818954   9.758962  -1.856162   0.425530   0.072452   0.293297
     3  C   -0.432347  -1.856162  11.171374  -0.519645  -0.868099   0.057538
     4  C   -1.215353   0.425530  -0.519645   6.030202   0.058474   0.085278
     5  C    0.219245   0.072452  -0.868099   0.058474   6.214523  -0.087030
     6  H   -0.424888   0.293297   0.057538   0.085278  -0.087030   1.704358
     7  S   -0.509868   0.052933  -0.018764   0.105287   0.256437  -0.014942
     8  H   -0.014509   0.115982  -0.047009   0.025363   0.218759  -0.076035
     9  C    0.146986  -0.398801  -1.860755   0.049904   0.280191  -0.002917
    10  S   -0.053032   0.109431  -0.361302   0.069953   0.011760  -0.000270
    11  C    0.019826   0.038952   0.133403  -0.011393   0.013426   0.002143
    12  C   -0.057948  -0.040457   0.250758   0.042499  -0.012391  -0.003155
    13  C    0.083877  -0.287986   0.096732  -0.190088  -0.125942   0.002462
    14  H   -0.012850   0.046749  -0.055118   0.012536   0.006970  -0.000860
    15  S    0.000351  -0.005195   0.012682  -0.002660  -0.000114  -0.000006
    16  C   -0.000809  -0.004639   0.021897  -0.000457  -0.000344  -0.000044
    17  C    0.006786   0.018690  -0.221875  -0.014096   0.001297   0.000297
    18  H   -0.000027  -0.000156   0.001842  -0.000083  -0.000009  -0.000001
    19  H    0.000588   0.001903  -0.003948  -0.000260   0.000168   0.000031
    20  H    0.065261   0.032930   0.109955  -0.112476   0.011084  -0.022559
    21  H    0.003628   0.037935  -0.114023   0.375278  -0.001576   0.001699
    22  H    0.016480  -0.030853   0.005722   0.341720  -0.005142  -0.000506
               7          8          9         10         11         12
     1  C   -0.509868  -0.014509   0.146986  -0.053032   0.019826  -0.057948
     2  C    0.052933   0.115982  -0.398801   0.109431   0.038952  -0.040457
     3  C   -0.018764  -0.047009  -1.860755  -0.361302   0.133403   0.250758
     4  C    0.105287   0.025363   0.049904   0.069953  -0.011393   0.042499
     5  C    0.256437   0.218759   0.280191   0.011760   0.013426  -0.012391
     6  H   -0.014942  -0.076035  -0.002917  -0.000270   0.002143  -0.003155
     7  S   15.961947  -0.123774  -0.259969  -0.026585  -0.009568  -0.051960
     8  H   -0.123774   1.242910  -0.006744  -0.000371  -0.000497   0.001962
     9  C   -0.259969  -0.006744  10.115063   0.461077  -0.486345  -0.173617
    10  S   -0.026585  -0.000371   0.461077  16.102421  -0.039661  -0.091291
    11  C   -0.009568  -0.000497  -0.486345  -0.039661   7.942967  -0.035242
    12  C   -0.051960   0.001962  -0.173617  -0.091291  -0.035242   9.060005
    13  C    0.182695   0.003690  -2.324196  -0.576237  -0.001656  -2.474768
    14  H    0.015542   0.001455   0.385242   0.033672  -0.062759   0.216882
    15  S   -0.010376   0.000065  -0.148983  -0.005603   0.039702   0.077939
    16  C   -0.004674   0.000019   0.088197  -0.078596   0.131662  -0.292191
    17  C    0.006606  -0.000034   0.032559   0.022338  -1.445394   0.283584
    18  H   -0.000178   0.000001  -0.003245  -0.008998  -0.018164   0.012751
    19  H   -0.000368  -0.000004   0.040713  -0.018558   0.203823  -0.008283
    20  H   -0.008466   0.000996  -0.000929  -0.000036   0.000153   0.004455
    21  H    0.003858   0.001195   0.027945  -0.000283  -0.001100  -0.006792
    22  H    0.011149   0.001366  -0.009943  -0.026254  -0.006348  -0.003906
              13         14         15         16         17         18
     1  C    0.083877  -0.012850   0.000351  -0.000809   0.006786  -0.000027
     2  C   -0.287986   0.046749  -0.005195  -0.004639   0.018690  -0.000156
     3  C    0.096732  -0.055118   0.012682   0.021897  -0.221875   0.001842
     4  C   -0.190088   0.012536  -0.002660  -0.000457  -0.014096  -0.000083
     5  C   -0.125942   0.006970  -0.000114  -0.000344   0.001297  -0.000009
     6  H    0.002462  -0.000860  -0.000006  -0.000044   0.000297  -0.000001
     7  S    0.182695   0.015542  -0.010376  -0.004674   0.006606  -0.000178
     8  H    0.003690   0.001455   0.000065   0.000019  -0.000034   0.000001
     9  C   -2.324196   0.385242  -0.148983   0.088197   0.032559  -0.003245
    10  S   -0.576237   0.033672  -0.005603  -0.078596   0.022338  -0.008998
    11  C   -0.001656  -0.062759   0.039702   0.131662  -1.445394  -0.018164
    12  C   -2.474768   0.216882   0.077939  -0.292191   0.283584   0.012751
    13  C   12.017880  -0.676108  -0.034652  -0.261555   0.129422   0.036875
    14  H   -0.676108   1.632741  -0.057024   0.003358  -0.013148   0.001396
    15  S   -0.034652  -0.057024  15.675986   0.204687  -0.303762  -0.134841
    16  C   -0.261555   0.003358   0.204687   5.798935   0.197418   0.245094
    17  C    0.129422  -0.013148  -0.303762   0.197418   6.982305   0.028518
    18  H    0.036875   0.001396  -0.134841   0.245094   0.028518   1.241181
    19  H   -0.020562  -0.000379   0.008810  -0.061438  -0.134945  -0.059324
    20  H    0.003904   0.000485   0.000078   0.000105   0.000069   0.000009
    21  H   -0.000214   0.000945  -0.000337  -0.000437  -0.002202   0.000003
    22  H    0.000860   0.000457  -0.000477  -0.000049   0.000440  -0.000032
              19         20         21         22
     1  C    0.000588   0.065261   0.003628   0.016480
     2  C    0.001903   0.032930   0.037935  -0.030853
     3  C   -0.003948   0.109955  -0.114023   0.005722
     4  C   -0.000260  -0.112476   0.375278   0.341720
     5  C    0.000168   0.011084  -0.001576  -0.005142
     6  H    0.000031  -0.022559   0.001699  -0.000506
     7  S   -0.000368  -0.008466   0.003858   0.011149
     8  H   -0.000004   0.000996   0.001195   0.001366
     9  C    0.040713  -0.000929   0.027945  -0.009943
    10  S   -0.018558  -0.000036  -0.000283  -0.026254
    11  C    0.203823   0.000153  -0.001100  -0.006348
    12  C   -0.008283   0.004455  -0.006792  -0.003906
    13  C   -0.020562   0.003904  -0.000214   0.000860
    14  H   -0.000379   0.000485   0.000945   0.000457
    15  S    0.008810   0.000078  -0.000337  -0.000477
    16  C   -0.061438   0.000105  -0.000437  -0.000049
    17  C   -0.134945   0.000069  -0.002202   0.000440
    18  H   -0.059324   0.000009   0.000003  -0.000032
    19  H    1.372197   0.000128  -0.000015  -0.000007
    20  H    0.000128   1.381438  -0.120684  -0.114610
    21  H   -0.000015  -0.120684   0.795768  -0.110231
    22  H   -0.000007  -0.114610  -0.110231   0.806445
 Mulliken charges:
               1
     1  C    0.485177
     2  C   -0.562541
     3  C    0.497143
     4  C    0.444486
     5  C   -0.264140
     6  H   -0.513890
     7  S    0.443038
     8  H   -0.344785
     9  C    0.048568
    10  S    0.476424
    11  C   -0.407930
    12  C   -0.698831
    13  C    0.415564
    14  H   -0.480186
    15  S    0.683729
    16  C    0.013863
    17  C    0.425127
    18  H   -0.342614
    19  H   -0.320271
    20  H   -0.231289
    21  H    0.109638
    22  H    0.123719
 Sum of Mulliken charges =  -0.00000
 Mulliken charges with hydrogens summed into heavy atoms:
               1
     1  C   -0.028713
     2  C   -0.562541
     3  C    0.497143
     4  C    0.446554
     5  C   -0.608925
     7  S    0.443038
     9  C    0.048568
    10  S    0.476424
    11  C   -0.407930
    12  C   -0.698831
    13  C   -0.064622
    15  S    0.683729
    16  C   -0.328751
    17  C    0.104856
 Electronic spatial extent (au):  <R**2>=           4445.2433
 Charge=              0.0000 electrons
 Dipole moment (field-independent basis, Debye):
    X=              0.8582    Y=              0.5557    Z=             -0.6645  Tot=              1.2194
 Quadrupole moment (field-independent basis, Debye-Ang):
   XX=            -88.4841   YY=           -100.6044   ZZ=           -109.7679
   XY=              0.7617   XZ=              6.2010   YZ=             -1.5150
 Traceless Quadrupole moment (field-independent basis, Debye-Ang):
   XX=             11.1347   YY=             -0.9856   ZZ=            -10.1491
   XY=              0.7617   XZ=              6.2010   YZ=             -1.5150
 Octapole moment (field-independent basis, Debye-Ang**2):
  XXX=             26.6953  YYY=             -1.8897  ZZZ=             -1.8779  XYY=             11.5748
  XXY=              0.6845  XXZ=            -31.3446  XZZ=             -6.0953  YZZ=              3.4673
  YYZ=             -3.7438  XYZ=             15.8506
 Hexadecapole moment (field-independent basis, Debye-Ang**3):
 XXXX=          -4352.9419 YYYY=          -1104.7570 ZZZZ=           -300.8544 XXXY=             -2.4376
 XXXZ=            137.0380 YYYX=             -4.2635 YYYZ=            -12.6292 ZZZX=             16.1793
 ZZZY=             -1.8204 XXYY=           -950.0024 XXZZ=           -918.9413 YYZZ=           -230.5365
 XXYZ=             15.9521 YYXZ=              7.6034 ZZXY=             -0.8570
 N-N= 1.105821849379D+03 E-N=-6.030070575937D+03  KE= 1.612229026729D+03
 Calling FoFJK, ICntrl=      2127 FMM=F ISym2X=0 I1Cent= 0 IOpClX= 0 NMat=1 NMatS=1 NMatT=0.
 ***** Axes restored to original set *****
 -------------------------------------------------------------------
 Center     Atomic                   Forces (Hartrees/Bohr)
 Number     Number              X              Y              Z
 -------------------------------------------------------------------
      1        6           0.017911227   -0.077750391    0.013310458
      2        6           0.029526585   -0.062452466    0.007640313
      3        6          -0.069843567    0.028417015    0.008328899
      4        6           0.010542156    0.014317160    0.000831452
      5        6           0.011842008    0.065702419   -0.018953362
      6        1           0.001148730    0.000432313   -0.000384833
      7       16          -0.004660617    0.031648722   -0.004431261
      8        1           0.004690696   -0.003255811   -0.000201244
      9        6           0.054984259   -0.042076028   -0.042097922
     10       16          -0.016045977   -0.009711918   -0.015753108
     11        6          -0.004825111   -0.053634091   -0.012615711
     12        6          -0.008645734    0.038420916    0.041980804
     13        6          -0.029130850    0.058330032    0.041993122
     14        1          -0.005233124    0.004677508   -0.004377706
     15       16           0.016092896    0.019253260    0.002209722
     16        6          -0.040929217    0.060171494    0.024905077
     17        6           0.030128121   -0.070496842   -0.015095782
     18        1          -0.001305178    0.000243734   -0.008957041
     19        1           0.002637478    0.000845571   -0.011635173
     20        1           0.000868411   -0.004213859    0.000201178
     21        1           0.003477504    0.001855579    0.000090182
     22        1          -0.003230697   -0.000724317   -0.006988064
 -------------------------------------------------------------------
 Cartesian Forces:  Max     0.077750391 RMS     0.029111856

 GradGradGradGradGradGradGradGradGradGradGradGradGradGradGradGradGradGrad
 Berny optimization.
 FormGI is forming the generalized inverse of G from B-inverse, IUseBI=4.
 Internal  Forces:  Max     0.086212374 RMS     0.016959458
 Search for a local minimum.
 Step number   1 out of a maximum of  127
 All quantities printed in internal units (Hartrees-Bohrs-Radians)
 Mixed Optimization -- RFO/linear search
 Second derivative matrix not updated -- first step.
 ITU=  0
     Eigenvalues ---    0.00935   0.00982   0.01055   0.01214   0.01241
     Eigenvalues ---    0.01277   0.01298   0.01422   0.01457   0.01492
     Eigenvalues ---    0.01498   0.01592   0.01597   0.01773   0.02200
     Eigenvalues ---    0.02651   0.07307   0.07353   0.15069   0.15688
     Eigenvalues ---    0.15739   0.15997   0.16000   0.16000   0.16000
     Eigenvalues ---    0.16000   0.18011   0.22445   0.22545   0.23320
     Eigenvalues ---    0.23980   0.24718   0.24978   0.24995   0.25000
     Eigenvalues ---    0.26147   0.26554   0.28380   0.30920   0.31369
     Eigenvalues ---    0.31542   0.33757   0.33818   0.34533   0.34823
     Eigenvalues ---    0.34935   0.35245   0.35802   0.35877   0.36006
     Eigenvalues ---    0.36154   0.36185   0.36327   0.37598   0.38287
     Eigenvalues ---    0.38438   0.39458   0.39704   0.406581000.00000
     Eigenvalues --- 1000.000001000.000001000.000001000.000001000.00000
     Eigenvalues --- 1000.000001000.000001000.000001000.000001000.00000
     Eigenvalues --- 1000.000001000.000001000.000001000.000001000.00000
     Eigenvalues --- 1000.000001000.000001000.000001000.000001000.00000
     Eigenvalues --- 1000.000001000.000001000.000001000.000001000.00000
     Eigenvalues --- 1000.000001000.000001000.000001000.000001000.00000
     Eigenvalues --- 1000.000001000.000001000.000001000.000001000.00000
     Eigenvalues --- 1000.000001000.000001000.000001000.000001000.00000
     Eigenvalues --- 1000.000001000.000001000.000001000.000001000.00000
     Eigenvalues --- 1000.000001000.000001000.000001000.000001000.00000
     Eigenvalues --- 1000.000001000.000001000.000001000.000001000.00000
     Eigenvalues --- 1000.000001000.00000
 RFO step:  Lambda=-8.12901221D-02 EMin= 9.35106172D-03
 Linear search not attempted -- first point.
 Maximum step size (   0.300) exceeded in Quadratic search.
    -- Step size scaled by   0.723
 Iteration  1 RMS(Cart)=  0.07386471 RMS(Int)=  0.00142875
 Iteration  2 RMS(Cart)=  0.00222048 RMS(Int)=  0.00036987
 Iteration  3 RMS(Cart)=  0.00000245 RMS(Int)=  0.00036986
 Iteration  4 RMS(Cart)=  0.00000000 RMS(Int)=  0.00036986
 Iteration  1 RMS(Cart)=  0.00001066 RMS(Int)=  0.00000437
 Iteration  2 RMS(Cart)=  0.00000581 RMS(Int)=  0.00000488
 Iteration  3 RMS(Cart)=  0.00000317 RMS(Int)=  0.00000552
 Iteration  4 RMS(Cart)=  0.00000173 RMS(Int)=  0.00000593
 Iteration  5 RMS(Cart)=  0.00000094 RMS(Int)=  0.00000618
 Variable       Old X    -DE/DX   Delta X   Delta X   Delta X     New X
                                 (Linear)    (Quad)   (Total)
    R1        2.71917  -0.01219   0.00000  -0.02027  -0.02021   2.69896
    R2        2.71391  -0.07234   0.00000  -0.10949  -0.10954   2.60437
    R3        2.03793  -0.00067   0.00000  -0.00109  -0.00109   2.03684
    R4        2.75906  -0.07990   0.00000  -0.12849  -0.12838   2.63068
    R5        2.81042   0.01422   0.00000   0.02455   0.02455   2.83497
    R6        3.39578  -0.02928   0.00000  -0.05907  -0.05906   3.33672
    R7        2.74954  -0.00267   0.00000  -0.00422  -0.00422   2.74532
    R8        2.06439  -0.00308   0.00000  -0.00521  -0.00521   2.05918
    R9        2.05781   0.00106   0.00000   0.00177   0.00177   2.05958
   R10        2.07638  -0.00670   0.00000  -0.01155  -0.01155   2.06482
   R11        3.28671  -0.02299   0.00000  -0.04064  -0.04074   3.24597
   R12        2.04073  -0.00243   0.00000  -0.00398  -0.00398   2.03675
   R13        3.38310  -0.02006   0.00000  -0.03795  -0.03836   3.34475
   R14        2.76781  -0.08621   0.00000  -0.13985  -0.14002   2.62779
   R15        3.27000  -0.00462   0.00000  -0.00718  -0.00716   3.26284
   R16        2.72211  -0.05520   0.00000  -0.08702  -0.08627   2.63585
   R17        2.69444   0.00214   0.00000   0.00093   0.00128   2.69572
   R18        2.70718  -0.00794   0.00000  -0.01412  -0.01385   2.69333
   R19        3.27248  -0.00251   0.00000  -0.00298  -0.00306   3.26943
   R20        2.03841  -0.00062   0.00000  -0.00101  -0.00101   2.03740
   R21        3.33587  -0.01817   0.00000  -0.03282  -0.03324   3.30263
   R22        2.73080  -0.08034   0.00000  -0.12392  -0.12402   2.60678
   R23        2.04393  -0.00378   0.00000  -0.00622  -0.00622   2.03770
   R24        2.05279  -0.00632   0.00000  -0.01053  -0.01053   2.04226
    A1        1.97020   0.00863   0.00000   0.01563   0.01564   1.98584
    A2        2.17330  -0.00543   0.00000  -0.01117  -0.01118   2.16212
    A3        2.13967  -0.00319   0.00000  -0.00444  -0.00445   2.13522
    A4        1.97187  -0.00284   0.00000  -0.00974  -0.00958   1.96229
    A5        2.09905   0.01114   0.00000   0.02608   0.02599   2.12504
    A6        2.21227  -0.00830   0.00000  -0.01634  -0.01642   2.19585
    A7        1.90440   0.00646   0.00000   0.01548   0.01560   1.92000
    A8        2.31891  -0.01002   0.00000  -0.02261  -0.02268   2.29624
    A9        2.05972   0.00357   0.00000   0.00707   0.00700   2.06672
   A10        1.94548  -0.00498   0.00000  -0.01438  -0.01434   1.93115
   A11        1.93409   0.00273   0.00000   0.00776   0.00776   1.94185
   A12        1.93331   0.00420   0.00000   0.01245   0.01246   1.94578
   A13        1.87410   0.00134   0.00000   0.00427   0.00430   1.87840
   A14        1.86607   0.00097   0.00000   0.00370   0.00375   1.86982
   A15        1.90848  -0.00448   0.00000  -0.01445  -0.01447   1.89400
   A16        1.95339  -0.00393   0.00000  -0.01001  -0.01015   1.94323
   A17        2.17580   0.00724   0.00000   0.02085   0.02091   2.19672
   A18        2.15384  -0.00330   0.00000  -0.01076  -0.01069   2.14316
   A19        1.62490  -0.00831   0.00000  -0.01134  -0.01149   1.61340
   A20        2.12873  -0.00139   0.00000  -0.00298  -0.00300   2.12574
   A21        2.24056  -0.00527   0.00000  -0.01147  -0.01149   2.22907
   A22        1.91318   0.00672   0.00000   0.01480   0.01480   1.92798
   A23        1.61875  -0.00621   0.00000  -0.00970  -0.00958   1.60916
   A24        1.96199  -0.01243   0.00000  -0.02331  -0.02393   1.93806
   A25        2.23841   0.00921   0.00000   0.03410   0.03282   2.27123
   A26        1.96565   0.00749   0.00000   0.01574   0.01602   1.98167
   A27        1.96625   0.00885   0.00000   0.01781   0.01785   1.98411
   A28        1.96700  -0.01484   0.00000  -0.02786  -0.02845   1.93855
   A29        2.23692   0.01033   0.00000   0.03683   0.03563   2.27255
   A30        1.96386   0.00310   0.00000   0.00060   0.00105   1.96491
   A31        2.16059  -0.00533   0.00000  -0.01009  -0.01060   2.14999
   A32        2.14700   0.00293   0.00000   0.01471   0.01420   2.16120
   A33        1.59297   0.00070   0.00000   0.00404   0.00415   1.59712
   A34        1.95999   0.00035   0.00000  -0.00028  -0.00047   1.95952
   A35        2.13602  -0.00359   0.00000  -0.00766  -0.00822   2.12781
   A36        2.17014   0.00451   0.00000   0.01708   0.01660   2.18675
   A37        1.93887   0.00630   0.00000   0.00834   0.00872   1.94759
   A38        2.16602  -0.00007   0.00000   0.00989   0.00888   2.17491
   A39        2.14117  -0.00396   0.00000  -0.00243  -0.00347   2.13770
    D1        0.00683  -0.00031   0.00000  -0.00344  -0.00349   0.00334
    D2       -3.13456  -0.00078   0.00000  -0.00717  -0.00725   3.14137
    D3       -3.13952   0.00021   0.00000   0.00102   0.00099  -3.13853
    D4        0.00227  -0.00027   0.00000  -0.00270  -0.00277  -0.00050
    D5       -0.00671   0.00078   0.00000   0.00571   0.00569  -0.00102
    D6       -3.13020   0.00009   0.00000   0.00094   0.00094  -3.12926
    D7        3.13954   0.00029   0.00000   0.00137   0.00131   3.14085
    D8        0.01605  -0.00040   0.00000  -0.00340  -0.00344   0.01261
    D9       -0.00388  -0.00019   0.00000  -0.00012  -0.00013  -0.00401
   D10        3.11762  -0.00008   0.00000  -0.00407  -0.00407   3.11355
   D11        3.13750   0.00032   0.00000   0.00390   0.00382   3.14132
   D12       -0.02418   0.00043   0.00000  -0.00005  -0.00012  -0.02430
   D13        0.03777  -0.00021   0.00000  -0.00113  -0.00112   0.03665
   D14       -2.04840  -0.00044   0.00000  -0.00221  -0.00218  -2.05058
   D15        2.11332   0.00054   0.00000   0.00237   0.00235   2.11567
   D16       -3.10360  -0.00075   0.00000  -0.00541  -0.00540  -3.10900
   D17        1.09342  -0.00098   0.00000  -0.00649  -0.00647   1.08695
   D18       -1.02805  -0.00000   0.00000  -0.00190  -0.00194  -1.02999
   D19        0.00006   0.00059   0.00000   0.00294   0.00289   0.00295
   D20       -3.12486   0.00069   0.00000   0.00663   0.00666  -3.11820
   D21        0.78536  -0.00149   0.00000   0.00000  -0.00000   0.78536
   D22       -2.40095   0.00076   0.00000   0.01153   0.01158  -2.38937
   D23       -2.37773  -0.00137   0.00000  -0.00419  -0.00417  -2.38191
   D24        0.71914   0.00088   0.00000   0.00734   0.00741   0.72655
   D25        0.00376  -0.00077   0.00000  -0.00492  -0.00486  -0.00110
   D26        3.12751   0.00004   0.00000   0.00016   0.00011   3.12762
   D27        3.13736   0.00075   0.00000   0.00443   0.00443  -3.14140
   D28        0.03299  -0.00088   0.00000  -0.00463  -0.00481   0.02818
   D29       -3.13866  -0.00134   0.00000  -0.00625  -0.00610   3.13843
   D30       -0.15706   0.00376   0.00000   0.03053   0.03051  -0.12655
   D31       -0.03735   0.00056   0.00000   0.00385   0.00411  -0.03323
   D32        2.94426   0.00566   0.00000   0.04063   0.04072   2.98498
   D33       -0.02088   0.00147   0.00000   0.00528   0.00522  -0.01567
   D34       -2.61730  -0.00883   0.00000  -0.05347  -0.05362  -2.67092
   D35        0.00264  -0.00095   0.00000  -0.00323  -0.00309  -0.00045
   D36       -2.68904  -0.01194   0.00000  -0.06309  -0.06167  -2.75071
   D37        2.68731   0.00944   0.00000   0.05439   0.05341   2.74073
   D38       -0.00436  -0.00155   0.00000  -0.00548  -0.00517  -0.00953
   D39        2.61403   0.00662   0.00000   0.05350   0.05445   2.66848
   D40       -0.24397  -0.00128   0.00000  -0.00486  -0.00440  -0.24837
   D41        0.01853   0.00130   0.00000   0.00445   0.00426   0.02279
   D42       -2.83946  -0.00660   0.00000  -0.05391  -0.05460  -2.89406
   D43        0.02300   0.00035   0.00000  -0.00038  -0.00060   0.02240
   D44       -2.96005  -0.00383   0.00000  -0.03422  -0.03484  -2.99489
   D45        2.62907   0.00536   0.00000   0.04908   0.05012   2.67918
   D46       -0.35398   0.00118   0.00000   0.01524   0.01587  -0.33810
   D47       -0.00844   0.00140   0.00000   0.00431   0.00417  -0.00427
   D48       -2.61432  -0.00948   0.00000  -0.05650  -0.05649  -2.67081
   D49        0.01908  -0.00053   0.00000  -0.00158  -0.00162   0.01746
   D50        2.97126   0.00701   0.00000   0.05076   0.05034   3.02160
   D51       -0.02480  -0.00017   0.00000  -0.00106  -0.00083  -0.02563
   D52        2.83793   0.00830   0.00000   0.05864   0.05886   2.89679
   D53       -2.97262  -0.00685   0.00000  -0.05139  -0.05162  -3.02424
   D54       -0.10989   0.00163   0.00000   0.00831   0.00807  -0.10182
         Item               Value     Threshold  Converged?
 Maximum Force            0.086210     0.000450     NO 
 RMS     Force            0.017031     0.000300     NO 
 Maximum Displacement     0.243774     0.001800     NO 
 RMS     Displacement     0.074047     0.001200     NO 
 Predicted change in Energy=-4.258717D-02
 GradGradGradGradGradGradGradGradGradGradGradGradGradGradGradGradGradGrad

                          Input orientation:                          
 ---------------------------------------------------------------------
 Center     Atomic      Atomic             Coordinates (Angstroms)
 Number     Number       Type             X           Y           Z
 ---------------------------------------------------------------------
      1          6           0       -4.212716   -1.397928   -0.234010
      2          6           0       -2.891498   -1.004262   -0.607162
      3          6           0       -1.996334   -2.070318   -0.595425
      4          6           0       -2.562349    0.414460   -0.967021
      5          6           0       -4.330159   -2.738638    0.062749
      6          1           0       -5.049934   -0.720907   -0.184321
      7         16           0       -2.826474   -3.550933   -0.109218
      8          1           0       -5.236397   -3.243655    0.354890
      9          6           0       -0.584078   -2.146743   -0.927395
     10         16           0        0.574659   -0.936101   -0.357792
     11          6           0        1.891126   -1.728998   -1.144838
     12          6           0        1.461646   -2.884009   -1.798326
     13          6           0        0.064587   -3.131933   -1.663807
     14          1           0       -0.417916   -4.039689   -1.988721
     15         16           0        2.773305   -3.985918   -2.040432
     16          6           0        3.896429   -2.890405   -1.270483
     17          6           0        3.281740   -1.737877   -0.826952
     18          1           0        4.915425   -3.173512   -1.060143
     19          1           0        3.759004   -1.052728   -0.140850
     20          1           0       -3.440328    1.051185   -0.861583
     21          1           0       -2.221000    0.491337   -1.999211
     22          1           0       -1.787736    0.823572   -0.313948
 ---------------------------------------------------------------------
                    Distance matrix (angstroms):
                    1          2          3          4          5
     1  C    0.000000
     2  C    1.428227   0.000000
     3  C    2.344158   1.392096   0.000000
     4  C    2.558470   1.500203   2.575379   0.000000
     5  C    1.378173   2.350869   2.515270   3.758671   0.000000
     6  H    1.077850   2.217641   3.363687   2.844249   2.156469
     7  S    2.563722   2.595710   1.765716   4.065702   1.717692
     8  H    2.191218   3.382156   3.574609   4.720147   1.077802
     9  C    3.769419   2.594609   1.452760   3.236493   3.919675
    10  S    4.811192   3.475784   2.820093   3.469293   5.242446
    11  C    6.180299   4.867014   3.940900   4.945651   6.417322
    12  C    6.070741   4.888985   3.750558   5.269108   6.085207
    13  C    4.831812   3.792350   2.552619   4.468021   4.738087
    14  H    4.945545   4.152244   2.882898   5.047961   4.605096
    15  S    7.665855   6.560071   5.339197   6.998910   7.512542
    16  C    8.310234   7.076261   5.987729   7.261544   8.335304
    17  C    7.525558   6.220560   5.293598   6.229410   7.728784
    18  H    9.335853   8.115348   7.014656   8.294535   9.323670
    19  H    7.979735   6.667007   5.862256   6.541766   8.265489
    20  H    2.643593   2.142617   3.449600   1.089671   4.001118
    21  H    3.263769   2.150392   2.929705   1.089884   4.374125
    22  H    3.289678   2.155282   2.915020   1.092658   4.392625
                    6          7          8          9         10
     6  H    0.000000
     7  S    3.599786   0.000000
     8  H    2.586460   2.473367   0.000000
     9  C    4.746476   2.769388   4.948893   0.000000
    10  S    5.631380   4.297307   6.292940   1.769964   0.000000
    11  C    7.079346   5.162142   7.439419   2.519608   1.726619
    12  C    7.048737   4.656807   7.044818   2.342449   2.579967
    13  C    5.844677   3.309161   5.673452   1.390564   2.605289
    14  H    5.977103   3.093956   5.417005   2.176526   3.643816
    15  S    8.678048   5.939388   8.393083   3.986658   4.119067
    16  C    9.269513   6.854360   9.283056   4.554743   3.960614
    17  C    8.418075   6.411911   8.730566   3.888677   2.862035
    18  H   10.300034   7.809206  10.250206   5.596106   4.933716
    19  H    8.815293   7.043477   9.271633   4.547294   3.193857
    20  H    2.487935   4.703442   4.811582   4.288267   4.508129
    21  H    3.572985   4.503180   5.346455   3.284474   3.542252
    22  H    3.611669   4.500799   5.374285   3.263109   2.946062
                   11         12         13         14         15
    11  C    0.000000
    12  C    1.394829   0.000000
    13  C    2.360889   1.425249   0.000000
    14  H    3.373885   2.214633   1.078146   0.000000
    15  S    2.583412   1.730107   2.865011   3.192093   0.000000
    16  C    2.320752   2.491350   3.859540   4.522200   1.747678
    17  C    1.426513   2.360069   3.604690   4.509490   2.604751
    18  H    3.352638   3.543630   4.888432   5.482430   2.491916
    19  H    2.225827   3.373229   4.504577   5.457401   3.630926
    20  H    6.019473   6.355516   5.516019   6.026808   8.085254
    21  H    4.750728   4.999520   4.297033   4.876620   6.707503
    22  H    4.554121   5.148594   4.571569   5.322836   6.849456
                   16         17         18         19         20
    16  C    0.000000
    17  C    1.379449   0.000000
    18  H    1.078307   2.187316   0.000000
    19  H    2.161484   1.080716   2.584595   0.000000
    20  H    8.338545   7.277793   9.365153   7.535004   0.000000
    21  H    7.027813   6.051755   8.077223   6.449659   1.759087
    22  H    6.856990   5.702963   7.840016   5.858054   1.755782
                   21         22
    21  H    0.000000
    22  H    1.771499   0.000000
 Stoichiometry    C11H8S3
 Framework group  C1[X(C11H8S3)]
 Deg. of freedom    60
 Full point group                 C1      NOp   1
 Largest Abelian subgroup         C1      NOp   1
 Largest concise Abelian subgroup C1      NOp   1
                         Standard orientation:                         
 ---------------------------------------------------------------------
 Center     Atomic      Atomic             Coordinates (Angstroms)
 Number     Number       Type             X           Y           Z
 ---------------------------------------------------------------------
      1          6           0        4.043035    0.196178    0.108970
      2          6           0        2.755198    0.782550    0.302562
      3          6           0        1.719927   -0.106181    0.026333
      4          6           0        2.594756    2.202555    0.759128
      5          6           0        3.998882   -1.115489   -0.311675
      6          1           0        4.971703    0.718347    0.272298
      7         16           0        2.379767   -1.664037   -0.479087
      8          1           0        4.851652   -1.745298   -0.506045
      9          6           0        0.276929    0.038213    0.112457
     10         16           0       -0.554771    1.475208   -0.500808
     11          6           0       -2.099609    0.862516   -0.032516
     12          6           0       -1.982301   -0.399425    0.549973
     13          6           0       -0.640728   -0.875624    0.618893
     14          1           0       -0.373860   -1.877249    0.915419
     15         16           0       -3.473267   -1.271435    0.450530
     16          6           0       -4.252537    0.062819   -0.366098
     17          6           0       -3.394118    1.122744   -0.572393
     18          1           0       -5.248813   -0.019752   -0.770278
     19          1           0       -3.626093    1.934675   -1.246857
     20          1           0        3.566666    2.682642    0.869992
     21          1           0        2.089896    2.252883    1.723716
     22          1           0        2.024573    2.792853    0.037782
 ---------------------------------------------------------------------
 Rotational constants (GHZ):           1.2353167           0.2813487           0.2405105
 Standard basis: Aug-CC-pVDZ (5D, 7F)
 There are   434 symmetry adapted cartesian basis functions of A   symmetry.
 There are   406 symmetry adapted basis functions of A   symmetry.
   406 basis functions,   804 primitive gaussians,   434 cartesian basis functions
    61 alpha electrons       61 beta electrons
       nuclear repulsion energy      1122.4809120730 Hartrees.
 NAtoms=   22 NActive=   22 NUniq=   22 SFac= 1.00D+00 NAtFMM=   60 NAOKFM=F Big=F
 Integral buffers will be    131072 words long.
 Raffenetti 1 integral format.
 Two-electron integral symmetry is turned on.
 One-electron integrals computed using PRISM.
 NBasis=   406 RedAO= T EigKep=  4.06D-06  NBF=   406
 NBsUse=   406 1.00D-06 EigRej= -1.00D+00 NBFU=   406
 Initial guess from the checkpoint file:  "/tmp/pbs.4762177[220].pbs/Gau-177014.chk"
 B after Tr=    -0.000000    0.000000   -0.000000
         Rot=    0.999985   -0.000076    0.000703   -0.005497 Ang=  -0.64 deg.
 ExpMin= 2.97D-02 ExpMax= 1.11D+05 ExpMxC= 1.07D+03 IAcc=3 IRadAn=         5 AccDes= 0.00D+00
 Harris functional with IExCor=  205 and IRadAn=       5 diagonalized for initial guess.
 HarFok:  IExCor=  205 AccDes= 0.00D+00 IRadAn=         5 IDoV= 1 UseB2=F ITyADJ=14
 ICtDFT=  3500011 ScaDFX=  1.000000  1.000000  1.000000  1.000000
 FoFCou: FMM=F IPFlag=           0 FMFlag=      100000 FMFlg1=           0
         NFxFlg=           0 DoJE=T BraDBF=F KetDBF=T FulRan=T
         wScrn=  0.000000 ICntrl=       500 IOpCl=  0 I1Cent=   200000004 NGrid=           0
         NMat0=    1 NMatS0=      1 NMatT0=    0 NMatD0=    1 NMtDS0=    0 NMtDT0=    0
 Petite list used in FoFCou.
 Requested convergence on RMS density matrix=1.00D-08 within 128 cycles.
 Requested convergence on MAX density matrix=1.00D-06.
 Requested convergence on             energy=1.00D-06.
 No special actions if energy rises.
 SCF Done:  E(RHF) =  -1613.79426837     A.U. after   16 cycles
            NFock= 16  Conv=0.39D-08     -V/T= 2.0003
 Calling FoFJK, ICntrl=      2127 FMM=F ISym2X=0 I1Cent= 0 IOpClX= 0 NMat=1 NMatS=1 NMatT=0.
 ***** Axes restored to original set *****
 -------------------------------------------------------------------
 Center     Atomic                   Forces (Hartrees/Bohr)
 Number     Number              X              Y              Z
 -------------------------------------------------------------------
      1        6          -0.002932062   -0.031317992    0.007951735
      2        6           0.020330403   -0.020663763    0.001877757
      3        6          -0.036876771    0.008558817    0.005019590
      4        6           0.003254110    0.007399130    0.000210448
      5        6           0.001138258    0.029127117   -0.008044502
      6        1           0.000313283    0.001603901   -0.000441913
      7       16           0.004112315    0.007435072   -0.001619316
      8        1           0.002701976   -0.002588357    0.000302682
      9        6           0.030964224   -0.015585840   -0.020902347
     10       16          -0.010049104    0.003047073   -0.005929716
     11        6          -0.006716484   -0.027873944   -0.002447243
     12        6           0.005098362    0.015889150    0.024611797
     13        6          -0.018304908    0.021132556    0.017528526
     14        1          -0.002558789    0.003189313   -0.004850622
     15       16           0.009858366    0.002100067   -0.006546548
     16        6          -0.018009119    0.024462708    0.013062824
     17        6           0.016727227   -0.027282301   -0.002632543
     18        1          -0.000212161   -0.000687378   -0.006398258
     19        1           0.001290782    0.003935589   -0.007770343
     20        1          -0.000207988   -0.001724836   -0.000169386
     21        1           0.001795656    0.000358056    0.000475964
     22        1          -0.001717574   -0.000514138   -0.003288585
 -------------------------------------------------------------------
 Cartesian Forces:  Max     0.036876771 RMS     0.013177330

 GradGradGradGradGradGradGradGradGradGradGradGradGradGradGradGradGradGrad
 Berny optimization.
 Using GEDIIS/GDIIS optimizer.
 FormGI is forming the generalized inverse of G from B-inverse, IUseBI=4.
 Internal  Forces:  Max     0.033388817 RMS     0.006642879
 Search for a local minimum.
 Step number   2 out of a maximum of  127
 All quantities printed in internal units (Hartrees-Bohrs-Radians)
 Mixed Optimization -- RFO/linear search
 Update second derivatives using D2CorX and points    1    2
 DE= -4.22D-02 DEPred=-4.26D-02 R= 9.90D-01
 TightC=F SS=  1.41D+00  RLast= 3.52D-01 DXNew= 5.0454D-01 1.0574D+00
 Trust test= 9.90D-01 RLast= 3.52D-01 DXMaxT set to 5.05D-01
 ITU=  1  0
 Use linear search instead of GDIIS.
     Eigenvalues ---    0.00935   0.00981   0.01048   0.01210   0.01240
     Eigenvalues ---    0.01274   0.01291   0.01385   0.01461   0.01479
     Eigenvalues ---    0.01500   0.01590   0.01592   0.01716   0.02049
     Eigenvalues ---    0.02366   0.07231   0.07383   0.15430   0.15782
     Eigenvalues ---    0.15837   0.15965   0.16000   0.16000   0.16000
     Eigenvalues ---    0.16022   0.18725   0.22461   0.22557   0.23433
     Eigenvalues ---    0.24246   0.24655   0.24967   0.24993   0.25108
     Eigenvalues ---    0.26189   0.26595   0.28433   0.30566   0.31093
     Eigenvalues ---    0.31459   0.33681   0.33807   0.34533   0.34804
     Eigenvalues ---    0.34937   0.35249   0.35639   0.35802   0.36006
     Eigenvalues ---    0.36081   0.36155   0.36204   0.36940   0.38161
     Eigenvalues ---    0.38867   0.39517   0.40433   0.451251000.00000
     Eigenvalues --- 1000.000001000.000001000.000001000.000001000.00000
     Eigenvalues --- 1000.000001000.000001000.000001000.000001000.00000
     Eigenvalues --- 1000.000001000.000001000.000001000.000001000.00000
     Eigenvalues --- 1000.000001000.000001000.000001000.000001000.00000
     Eigenvalues --- 1000.000001000.000001000.000001000.000001000.00000
     Eigenvalues --- 1000.000001000.000001000.000001000.000001000.00000
     Eigenvalues --- 1000.000001000.000001000.000001000.000001000.00000
     Eigenvalues --- 1000.000001000.000001000.000001000.000001000.00000
     Eigenvalues --- 1000.000001000.000001000.000001000.000001000.00000
     Eigenvalues --- 1000.000001000.000001000.000001000.000001000.00000
     Eigenvalues --- 1000.000001000.000001000.000001000.000001000.00000
     Eigenvalues --- 1000.000001000.00000
 RFO step:  Lambda=-8.86166364D-03 EMin= 9.34996265D-03
 Quartic linear search produced a step of  0.52469.
 Iteration  1 RMS(Cart)=  0.08571186 RMS(Int)=  0.00633271
 Iteration  2 RMS(Cart)=  0.00805096 RMS(Int)=  0.00231106
 Iteration  3 RMS(Cart)=  0.00003741 RMS(Int)=  0.00231083
 Iteration  4 RMS(Cart)=  0.00000003 RMS(Int)=  0.00231083
 Iteration  1 RMS(Cart)=  0.00003451 RMS(Int)=  0.00001459
 Iteration  2 RMS(Cart)=  0.00001891 RMS(Int)=  0.00001630
 Iteration  3 RMS(Cart)=  0.00001037 RMS(Int)=  0.00001842
 Iteration  4 RMS(Cart)=  0.00000568 RMS(Int)=  0.00001983
 Iteration  5 RMS(Cart)=  0.00000311 RMS(Int)=  0.00002065
 Iteration  6 RMS(Cart)=  0.00000171 RMS(Int)=  0.00002112
 Iteration  7 RMS(Cart)=  0.00000094 RMS(Int)=  0.00002138
 Variable       Old X    -DE/DX   Delta X   Delta X   Delta X     New X
                                 (Linear)    (Quad)   (Total)
    R1        2.69896   0.00337  -0.01061   0.02954   0.01894   2.71790
    R2        2.60437  -0.02671  -0.05748  -0.00184  -0.05941   2.54496
    R3        2.03684   0.00074  -0.00057   0.00401   0.00344   2.04028
    R4        2.63068  -0.02809  -0.06736   0.00387  -0.06339   2.56729
    R5        2.83497   0.00657   0.01288   0.00586   0.01874   2.85371
    R6        3.33672  -0.01106  -0.03099  -0.00108  -0.03201   3.30471
    R7        2.74532   0.00826  -0.00221   0.03610   0.03388   2.77920
    R8        2.05918  -0.00086  -0.00273   0.00114  -0.00159   2.05759
    R9        2.05958   0.00014   0.00093  -0.00105  -0.00012   2.05946
   R10        2.06482  -0.00338  -0.00606  -0.00397  -0.01003   2.05479
   R11        3.24597  -0.00290  -0.02138   0.02552   0.00406   3.25002
   R12        2.03675  -0.00098  -0.00209  -0.00037  -0.00246   2.03429
   R13        3.34475  -0.00715  -0.02013   0.00947  -0.01333   3.33141
   R14        2.62779  -0.03339  -0.07347  -0.00393  -0.07908   2.54870
   R15        3.26284   0.00361  -0.00376   0.02150   0.01844   3.28127
   R16        2.63585  -0.02158  -0.04526  -0.01696  -0.05750   2.57835
   R17        2.69572   0.00513   0.00067   0.01317   0.01545   2.71117
   R18        2.69333   0.00326  -0.00727   0.02005   0.01419   2.70752
   R19        3.26943   0.00378  -0.00160   0.01939   0.01767   3.28710
   R20        2.03740  -0.00008  -0.00053   0.00060   0.00007   2.03747
   R21        3.30263  -0.00558  -0.01744   0.01274  -0.00686   3.29577
   R22        2.60678  -0.02933  -0.06507   0.00248  -0.06335   2.54343
   R23        2.03770  -0.00127  -0.00327   0.00046  -0.00281   2.03490
   R24        2.04226  -0.00187  -0.00552   0.00183  -0.00369   2.03857
    A1        1.98584   0.00145   0.00821  -0.00982  -0.00168   1.98416
    A2        2.16212  -0.00228  -0.00586  -0.00485  -0.01069   2.15144
    A3        2.13522   0.00082  -0.00234   0.01467   0.01236   2.14758
    A4        1.96229  -0.00192  -0.00502  -0.00338  -0.00838   1.95391
    A5        2.12504   0.00226   0.01364  -0.01230   0.00117   2.12621
    A6        2.19585  -0.00034  -0.00862   0.01561   0.00683   2.20268
    A7        1.92000   0.00458   0.00819   0.01163   0.01996   1.93996
    A8        2.29624  -0.00426  -0.01190  -0.00209  -0.01409   2.28215
    A9        2.06672  -0.00033   0.00367  -0.00929  -0.00571   2.06101
   A10        1.93115  -0.00216  -0.00752  -0.00088  -0.00838   1.92277
   A11        1.94185   0.00066   0.00407  -0.00462  -0.00055   1.94130
   A12        1.94578   0.00188   0.00654   0.00179   0.00834   1.95412
   A13        1.87840   0.00084   0.00226   0.00222   0.00448   1.88288
   A14        1.86982   0.00064   0.00197   0.00341   0.00541   1.87523
   A15        1.89400  -0.00189  -0.00759  -0.00161  -0.00921   1.88479
   A16        1.94323  -0.00011  -0.00533   0.00977   0.00425   1.94748
   A17        2.19672   0.00373   0.01097   0.00896   0.01997   2.21668
   A18        2.14316  -0.00362  -0.00561  -0.01857  -0.02413   2.11902
   A19        1.61340  -0.00402  -0.00603  -0.00824  -0.01430   1.59910
   A20        2.12574  -0.00044  -0.00157  -0.00071  -0.00219   2.12354
   A21        2.22907  -0.00375  -0.00603  -0.01131  -0.01725   2.21182
   A22        1.92798   0.00422   0.00776   0.01239   0.01979   1.94777
   A23        1.60916  -0.00382  -0.00503  -0.01615  -0.01914   1.59003
   A24        1.93806  -0.00321  -0.01256   0.01546   0.00035   1.93840
   A25        2.27123   0.00470   0.01722   0.04463   0.05093   2.32216
   A26        1.98167   0.00158   0.00840  -0.00374   0.00382   1.98549
   A27        1.98411   0.00123   0.00937  -0.00689   0.00125   1.98535
   A28        1.93855  -0.00316  -0.01493   0.02139   0.00352   1.94207
   A29        2.27255   0.00501   0.01869   0.04233   0.04994   2.32249
   A30        1.96491   0.00161   0.00055  -0.00388  -0.00169   1.96322
   A31        2.14999  -0.00175  -0.00556   0.01086   0.00174   2.15173
   A32        2.16120   0.00060   0.00745   0.00301   0.00689   2.16809
   A33        1.59712  -0.00259   0.00218  -0.02521  -0.02007   1.57705
   A34        1.95952   0.00285  -0.00025   0.02177   0.01984   1.97936
   A35        2.12781  -0.00466  -0.00431  -0.02069  -0.02992   2.09788
   A36        2.18675   0.00259   0.00871   0.01538   0.01911   2.20586
   A37        1.94759   0.00133   0.00457  -0.01343  -0.00698   1.94061
   A38        2.17491  -0.00050   0.00466   0.00766   0.00567   2.18058
   A39        2.13770   0.00052  -0.00182   0.03020   0.02189   2.15960
    D1        0.00334  -0.00016  -0.00183   0.00577   0.00381   0.00715
    D2        3.14137  -0.00073  -0.00380  -0.01684  -0.02066   3.12071
    D3       -3.13853   0.00018   0.00052   0.00790   0.00826  -3.13027
    D4       -0.00050  -0.00039  -0.00145  -0.01471  -0.01621  -0.01671
    D5       -0.00102   0.00046   0.00298   0.00341   0.00639   0.00537
    D6       -3.12926  -0.00007   0.00049  -0.00942  -0.00902  -3.13828
    D7        3.14085   0.00012   0.00069   0.00132   0.00196  -3.14038
    D8        0.01261  -0.00041  -0.00180  -0.01150  -0.01346  -0.00085
    D9       -0.00401  -0.00020  -0.00007  -0.01195  -0.01203  -0.01604
   D10        3.11355  -0.00017  -0.00213   0.00070  -0.00147   3.11209
   D11        3.14132   0.00039   0.00200   0.01183   0.01376  -3.12811
   D12       -0.02430   0.00043  -0.00006   0.02449   0.02432   0.00001
   D13        0.03665  -0.00026  -0.00059  -0.00880  -0.00933   0.02733
   D14       -2.05058  -0.00032  -0.00115  -0.00798  -0.00907  -2.05965
   D15        2.11567   0.00033   0.00123  -0.00394  -0.00268   2.11299
   D16       -3.10900  -0.00092  -0.00283  -0.03463  -0.03749   3.13669
   D17        1.08695  -0.00097  -0.00339  -0.03381  -0.03724   1.04971
   D18       -1.02999  -0.00032  -0.00102  -0.02977  -0.03084  -1.06083
   D19        0.00295   0.00040   0.00152   0.01185   0.01334   0.01629
   D20       -3.11820   0.00044   0.00349   0.00102   0.00446  -3.11374
   D21        0.78536  -0.00048  -0.00000   0.00000  -0.00000   0.78536
   D22       -2.38937   0.00099   0.00608   0.01542   0.02186  -2.36751
   D23       -2.38191  -0.00040  -0.00219   0.01376   0.01144  -2.37047
   D24        0.72655   0.00108   0.00389   0.02918   0.03329   0.75984
   D25       -0.00110  -0.00047  -0.00255  -0.00868  -0.01109  -0.01219
   D26        3.12762   0.00011   0.00006   0.00392   0.00371   3.13133
   D27       -3.14140   0.00021   0.00232  -0.01090  -0.00861   3.13317
   D28        0.02818  -0.00091  -0.00252  -0.02355  -0.02687   0.00131
   D29        3.13843  -0.00038  -0.00320   0.01319   0.01043  -3.13433
   D30       -0.12655   0.00377   0.01601   0.09982   0.11601  -0.01054
   D31       -0.03323   0.00090   0.00216   0.02702   0.03016  -0.00307
[...]
 ---------------------------------------------------------------------
 Rotational constants (GHZ):           1.2712075           0.2764433           0.2400196

 **********************************************************************

            Population analysis using the SCF Density.

 **********************************************************************

 Orbital symmetries:
       Occupied  (A) (A) (A) (A) (A) (A) (A) (A) (A) (A) (A) (A)
                 (A) (A) (A) (A) (A) (A) (A) (A) (A) (A) (A) (A)
                 (A) (A) (A) (A) (A) (A) (A) (A) (A) (A) (A) (A)
                 (A) (A) (A) (A) (A) (A) (A) (A) (A) (A) (A) (A)
                 (A) (A) (A) (A) (A) (A) (A) (A) (A) (A) (A) (A)
                 (A)
       Virtual   (A) (A) (A) (A) (A) (A) (A) (A) (A) (A) (A) (A)
                 (A) (A) (A) (A) (A) (A) (A) (A) (A) (A) (A) (A)
                 (A) (A) (A) (A) (A) (A) (A) (A) (A) (A) (A) (A)
                 (A) (A) (A) (A) (A) (A) (A) (A) (A) (A) (A) (A)
                 (A) (A) (A) (A) (A) (A) (A) (A) (A) (A) (A) (A)
                 (A) (A) (A) (A) (A) (A) (A) (A) (A) (A) (A) (A)
                 (A) (A) (A) (A) (A) (A) (A) (A) (A) (A) (A) (A)
                 (A) (A) (A) (A) (A) (A) (A) (A) (A) (A) (A) (A)
                 (A) (A) (A) (A) (A) (A) (A) (A) (A) (A) (A) (A)
                 (A) (A) (A) (A) (A) (A) (A) (A) (A) (A) (A) (A)
                 (A) (A) (A) (A) (A) (A) (A) (A) (A) (A) (A) (A)
                 (A) (A) (A) (A) (A) (A) (A) (A) (A) (A) (A) (A)
                 (A) (A) (A) (A) (A) (A) (A) (A) (A) (A) (A) (A)
                 (A) (A) (A) (A) (A) (A) (A) (A) (A) (A) (A) (A)
                 (A) (A) (A) (A) (A) (A) (A) (A) (A) (A) (A) (A)
                 (A) (A) (A) (A) (A) (A) (A) (A) (A) (A) (A) (A)
                 (A) (A) (A) (A) (A) (A) (A) (A) (A) (A) (A) (A)
                 (A) (A) (A) (A) (A) (A) (A) (A) (A) (A) (A) (A)
                 (A) (A) (A) (A) (A) (A) (A) (A) (A) (A) (A) (A)
                 (A) (A) (A) (A) (A) (A) (A) (A) (A) (A) (A) (A)
                 (A) (A) (A) (A) (A) (A) (A) (A) (A) (A) (A) (A)
                 (A) (A) (A) (A) (A) (A) (A) (A) (A) (A) (A) (A)
                 (A) (A) (A) (A) (A) (A) (A) (A) (A) (A) (A) (A)
                 (A) (A) (A) (A) (A) (A) (A) (A) (A) (A) (A) (A)
                 (A) (A) (A) (A) (A) (A) (A) (A) (A) (A) (A) (A)
                 (A) (A) (A) (A) (A) (A) (A) (A) (A) (A) (A) (A)
                 (A) (A) (A) (A) (A) (A) (A) (A) (A) (A) (A) (A)
                 (A) (A) (A) (A) (A) (A) (A) (A) (A) (A) (A) (A)
                 (A) (A) (A) (A) (A) (A) (A) (A) (A)
 The electronic state is 1-A.
 Alpha  occ. eigenvalues --  -91.99063 -91.99039 -91.98431 -11.29018 -11.27783
 Alpha  occ. eigenvalues --  -11.27738 -11.27315 -11.27171 -11.27111 -11.25834
 Alpha  occ. eigenvalues --  -11.25674 -11.25548 -11.24364 -11.23634  -8.99235
 Alpha  occ. eigenvalues --   -8.99221  -8.98663  -6.67400  -6.67388  -6.67320
 Alpha  occ. eigenvalues --   -6.67310  -6.67111  -6.67103  -6.66829  -6.66736
 Alpha  occ. eigenvalues --   -6.66544  -1.21800  -1.18621  -1.12894  -1.03940
 Alpha  occ. eigenvalues --   -1.02691  -1.01716  -0.95628  -0.94753  -0.91965
 Alpha  occ. eigenvalues --   -0.82204  -0.77718  -0.76592  -0.72015  -0.70248
 Alpha  occ. eigenvalues --   -0.67447  -0.66915  -0.60562  -0.59159  -0.58916
 Alpha  occ. eigenvalues --   -0.56782  -0.56407  -0.54828  -0.53812  -0.52508
 Alpha  occ. eigenvalues --   -0.51672  -0.51327  -0.49621  -0.47264  -0.46495
 Alpha  occ. eigenvalues --   -0.46037  -0.39045  -0.34850  -0.34131  -0.32299
 Alpha  occ. eigenvalues --   -0.28806
 Alpha virt. eigenvalues --    0.03447   0.03483   0.04129   0.04812   0.04840
 Alpha virt. eigenvalues --    0.05870   0.06006   0.07218   0.07606   0.08592
 Alpha virt. eigenvalues --    0.09097   0.09457   0.10396   0.10571   0.11194
 Alpha virt. eigenvalues --    0.11593   0.12128   0.12564   0.12689   0.12931
 Alpha virt. eigenvalues --    0.13195   0.13391   0.13966   0.14302   0.14487
 Alpha virt. eigenvalues --    0.14953   0.15310   0.15509   0.15681   0.16305
 Alpha virt. eigenvalues --    0.16501   0.17580   0.17683   0.18068   0.18258
 Alpha virt. eigenvalues --    0.18554   0.19005   0.19215   0.19944   0.20517
 Alpha virt. eigenvalues --    0.20947   0.21451   0.21709   0.21863   0.22018
 Alpha virt. eigenvalues --    0.22849   0.23066   0.23495   0.23659   0.24387
 Alpha virt. eigenvalues --    0.24611   0.25366   0.25659   0.26004   0.26353
 Alpha virt. eigenvalues --    0.26860   0.27509   0.27711   0.28260   0.28577
 Alpha virt. eigenvalues --    0.28994   0.30449   0.30778   0.31179   0.31742
 Alpha virt. eigenvalues --    0.32061   0.32490   0.32842   0.33528   0.33856
 Alpha virt. eigenvalues --    0.34295   0.34699   0.35829   0.36115   0.36713
 Alpha virt. eigenvalues --    0.37564   0.37793   0.38605   0.39282   0.40298
 Alpha virt. eigenvalues --    0.40653   0.40939   0.41327   0.42385   0.42578
 Alpha virt. eigenvalues --    0.43711   0.44148   0.44810   0.45279   0.45471
 Alpha virt. eigenvalues --    0.45670   0.46244   0.46879   0.47158   0.48232
 Alpha virt. eigenvalues --    0.48445   0.48831   0.49315   0.50040   0.51066
 Alpha virt. eigenvalues --    0.51898   0.52408   0.53304   0.53937   0.54532
 Alpha virt. eigenvalues --    0.55390   0.56104   0.56799   0.58134   0.58649
 Alpha virt. eigenvalues --    0.58979   0.59605   0.60123   0.60644   0.61955
 Alpha virt. eigenvalues --    0.62075   0.62265   0.62961   0.63960   0.64305
 Alpha virt. eigenvalues --    0.64817   0.65279   0.65665   0.65869   0.66629
 Alpha virt. eigenvalues --    0.67601   0.67983   0.68369   0.69088   0.69174
 Alpha virt. eigenvalues --    0.69633   0.70221   0.70436   0.70932   0.71323
 Alpha virt. eigenvalues --    0.72293   0.72552   0.73194   0.73515   0.74195
 Alpha virt. eigenvalues --    0.74628   0.74835   0.75410   0.76495   0.76829
 Alpha virt. eigenvalues --    0.77558   0.77864   0.78481   0.79272   0.80011
 Alpha virt. eigenvalues --    0.81232   0.81748   0.82028   0.82839   0.84493
 Alpha virt. eigenvalues --    0.84810   0.85542   0.85567   0.86978   0.87122
 Alpha virt. eigenvalues --    0.87370   0.88764   0.89548   0.89947   0.90767
 Alpha virt. eigenvalues --    0.91595   0.91820   0.92809   0.94059   0.94181
 Alpha virt. eigenvalues --    0.94845   0.95442   0.95766   0.97233   0.97364
 Alpha virt. eigenvalues --    0.98499   0.99080   0.99645   1.00451   1.01523
 Alpha virt. eigenvalues --    1.01832   1.02569   1.03664   1.04497   1.05915
 Alpha virt. eigenvalues --    1.07178   1.08379   1.08821   1.09859   1.10227
 Alpha virt. eigenvalues --    1.10827   1.11755   1.14273   1.14546   1.15571
 Alpha virt. eigenvalues --    1.17836   1.18485   1.18834   1.19381   1.19851
 Alpha virt. eigenvalues --    1.21151   1.22291   1.22659   1.23935   1.24424
 Alpha virt. eigenvalues --    1.25799   1.27374   1.27862   1.28866   1.29051
 Alpha virt. eigenvalues --    1.30573   1.31352   1.31711   1.33056   1.34205
 Alpha virt. eigenvalues --    1.34737   1.36249   1.36820   1.37850   1.39717
 Alpha virt. eigenvalues --    1.41067   1.41671   1.42900   1.44258   1.46050
 Alpha virt. eigenvalues --    1.46878   1.48163   1.49716   1.51455   1.53708
 Alpha virt. eigenvalues --    1.54976   1.55703   1.56576   1.57181   1.58486
 Alpha virt. eigenvalues --    1.59927   1.61244   1.62291   1.62991   1.64214
 Alpha virt. eigenvalues --    1.65453   1.66731   1.68222   1.68536   1.69375
 Alpha virt. eigenvalues --    1.70361   1.71182   1.71603   1.72109   1.73071
 Alpha virt. eigenvalues --    1.73716   1.74087   1.76654   1.78571   1.79148
 Alpha virt. eigenvalues --    1.80282   1.80818   1.83084   1.83734   1.84980
 Alpha virt. eigenvalues --    1.85113   1.85808   1.87771   1.88803   1.91341
 Alpha virt. eigenvalues --    1.91549   1.92601   1.94569   1.95640   1.97039
 Alpha virt. eigenvalues --    1.97450   1.98497   2.00115   2.01374   2.02188
 Alpha virt. eigenvalues --    2.05030   2.06039   2.07287   2.09106   2.09157
 Alpha virt. eigenvalues --    2.10526   2.11321   2.11716   2.13709   2.14260
 Alpha virt. eigenvalues --    2.15864   2.17103   2.19645   2.20048   2.22121
 Alpha virt. eigenvalues --    2.22638   2.23129   2.24709   2.26632   2.28031
 Alpha virt. eigenvalues --    2.28823   2.30819   2.31658   2.33267   2.34337
 Alpha virt. eigenvalues --    2.35501   2.36141   2.38652   2.39160   2.39992
 Alpha virt. eigenvalues --    2.43202   2.44520   2.47051   2.47530   2.48201
 Alpha virt. eigenvalues --    2.49703   2.51539   2.52029   2.54063   2.54985
 Alpha virt. eigenvalues --    2.59001   2.60284   2.61545   2.66547   2.69238
 Alpha virt. eigenvalues --    2.74971   2.75726   2.77598   2.82348   2.85640
 Alpha virt. eigenvalues --    2.87621   2.88368   2.91720   2.94531   3.00298
 Alpha virt. eigenvalues --    3.00741   3.05446   3.07575   3.08511   3.21444
 Alpha virt. eigenvalues --    3.26355   3.29907   3.35086   3.45955   3.53235
 Alpha virt. eigenvalues --    3.59522   3.74866   3.81044   4.15078   4.25605
          Condensed to atoms (all electrons):
               1          2          3          4          5          6
     1  C    9.907887  -1.931035  -0.719374  -0.871354  -0.125880  -0.336737
     2  C   -1.931035  11.525898  -3.310209   0.557389   0.222352   0.230388
     3  C   -0.719374  -3.310209  13.730961  -0.877900  -1.301980   0.020282
     4  C   -0.871354   0.557389  -0.877900   5.735464   0.113396   0.035726
     5  C   -0.125880   0.222352  -1.301980   0.113396   6.813545  -0.028170
     6  H   -0.336737   0.230388   0.020282   0.035726  -0.028170   1.667042
     7  S   -0.544626  -0.081902  -0.161786   0.132252   0.346697  -0.018381
     8  H    0.047468   0.138451  -0.064493   0.032033   0.140143  -0.067688
     9  C    0.132738   0.233561  -2.137549   0.104850   0.288047   0.003673
    10  S   -0.092993   0.314553  -0.489246   0.061727   0.015310   0.005676
    11  C    0.010881   0.108902  -0.241380  -0.032467   0.007293   0.001571
    12  C   -0.049013  -0.114342   0.371551   0.061707  -0.018313  -0.000817
    13  C    0.086362  -1.217260   0.604685  -0.252275  -0.190407  -0.010652
    14  H   -0.020136   0.073995   0.008716   0.015407   0.004573  -0.001495
    15  S    0.000795  -0.006017  -0.045368  -0.001457  -0.000864   0.000042
    16  C   -0.001589  -0.001129   0.034034   0.002022   0.000004  -0.000061
    17  C    0.002202   0.038944  -0.403102  -0.030071  -0.001438   0.000005
    18  H   -0.000092   0.000097   0.000496   0.000137  -0.000015  -0.000007
    19  H    0.000494   0.001594  -0.007418  -0.001009  -0.000231   0.000032
    20  H    0.044994  -0.011137  -0.033562   0.168155   0.014119  -0.004154
    21  H   -0.058757   0.086478   0.113050   0.145094  -0.026233   0.001869
    22  H   -0.012676   0.054786  -0.002616   0.355066   0.018909  -0.007502
               7          8          9         10         11         12
     1  C   -0.544626   0.047468   0.132738  -0.092993   0.010881  -0.049013
     2  C   -0.081902   0.138451   0.233561   0.314553   0.108902  -0.114342
     3  C   -0.161786  -0.064493  -2.137549  -0.489246  -0.241380   0.371551
     4  C    0.132252   0.032033   0.104850   0.061727  -0.032467   0.061707
     5  C    0.346697   0.140143   0.288047   0.015310   0.007293  -0.018313
     6  H   -0.018381  -0.067688   0.003673   0.005676   0.001571  -0.000817
     7  S   16.158152  -0.134366  -0.344697  -0.094429  -0.002289   0.011083
     8  H   -0.134366   1.260452   0.005261  -0.001558  -0.000581   0.001101
     9  C   -0.344697   0.005261  13.556146   0.366844  -0.548267  -0.275256
    10  S   -0.094429  -0.001558   0.366844  16.705654   0.256676  -0.381326
    11  C   -0.002289  -0.000581  -0.548267   0.256676  11.014820  -1.011112
    12  C    0.011083   0.001101  -0.275256  -0.381326  -1.011112  12.999858
    13  C    0.313753  -0.000004  -5.501009  -0.858891  -0.801644  -3.658020
    14  H    0.006560   0.001112   0.542671   0.034767  -0.116019   0.638927
    15  S    0.000314  -0.000098  -0.384189   0.131442   0.084273  -0.444137
    16  C   -0.002616   0.000005   0.062303  -0.116046  -0.063258  -1.024287
    17  C    0.007268  -0.000141  -0.254731  -0.242279  -2.632770  -0.857880
    18  H   -0.000004   0.000001   0.003206   0.013443   0.125202  -0.090719
    19  H   -0.000211  -0.000020   0.090369   0.022362   0.532507   0.088060
    20  H    0.002595   0.001132   0.028690  -0.033311  -0.004608  -0.000055
    21  H    0.005510   0.000279  -0.015583   0.015850   0.002947   0.003991
    22  H    0.006406   0.001202  -0.035789   0.004263  -0.001556   0.003758
              13         14         15         16         17         18
     1  C    0.086362  -0.020136   0.000795  -0.001589   0.002202  -0.000092
     2  C   -1.217260   0.073995  -0.006017  -0.001129   0.038944   0.000097
     3  C    0.604685   0.008716  -0.045368   0.034034  -0.403102   0.000496
     4  C   -0.252275   0.015407  -0.001457   0.002022  -0.030071   0.000137
     5  C   -0.190407   0.004573  -0.000864   0.000004  -0.001438  -0.000015
     6  H   -0.010652  -0.001495   0.000042  -0.000061   0.000005  -0.000007
     7  S    0.313753   0.006560   0.000314  -0.002616   0.007268  -0.000004
     8  H   -0.000004   0.001112  -0.000098   0.000005  -0.000141   0.000001
     9  C   -5.501009   0.542671  -0.384189   0.062303  -0.254731   0.003206
    10  S   -0.858891   0.034767   0.131442  -0.116046  -0.242279   0.013443
    11  C   -0.801644  -0.116019   0.084273  -0.063258  -2.632770   0.125202
    12  C   -3.658020   0.638927  -0.444137  -1.024287  -0.857880  -0.090719
    13  C   18.645192  -1.380092   0.124107  -0.064999  -0.104754   0.028108
    14  H   -1.380092   1.768204  -0.049222   0.013975  -0.042382   0.001680
    15  S    0.124107  -0.049222  16.030262   0.187130  -0.052319  -0.151725
    16  C   -0.064999   0.013975   0.187130   6.932273   0.081019   0.201223
    17  C   -0.104754  -0.042382  -0.052319   0.081019  10.458323   0.020807
    18  H    0.028108   0.001680  -0.151725   0.201223   0.020807   1.303023
    19  H   -0.071645  -0.001133  -0.006180  -0.136331  -0.539169  -0.071049
    20  H    0.032615   0.001697   0.000167  -0.000041  -0.000215   0.000017
    21  H   -0.020756   0.002112  -0.001930   0.000950  -0.006594  -0.000015
    22  H   -0.012866  -0.000021   0.000101   0.000148  -0.002183   0.000029
              19         20         21         22
     1  C    0.000494   0.044994  -0.058757  -0.012676
     2  C    0.001594  -0.011137   0.086478   0.054786
     3  C   -0.007418  -0.033562   0.113050  -0.002616
     4  C   -0.001009   0.168155   0.145094   0.355066
     5  C   -0.000231   0.014119  -0.026233   0.018909
     6  H    0.000032  -0.004154   0.001869  -0.007502
     7  S   -0.000211   0.002595   0.005510   0.006406
     8  H   -0.000020   0.001132   0.000279   0.001202
     9  C    0.090369   0.028690  -0.015583  -0.035789
    10  S    0.022362  -0.033311   0.015850   0.004263
    11  C    0.532507  -0.004608   0.002947  -0.001556
    12  C    0.088060  -0.000055   0.003991   0.003758
    13  C   -0.071645   0.032615  -0.020756  -0.012866
    14  H   -0.001133   0.001697   0.002112  -0.000021
    15  S   -0.006180   0.000167  -0.001930   0.000101
    16  C   -0.136331  -0.000041   0.000950   0.000148
    17  C   -0.539169  -0.000215  -0.006594  -0.002183
    18  H   -0.071049   0.000017  -0.000015   0.000029
    19  H    1.425714   0.000067   0.000313   0.000010
    20  H    0.000067   1.177206  -0.176837  -0.127214
    21  H    0.000313  -0.176837   1.056153  -0.119931
    22  H    0.000010  -0.127214  -0.119931   0.750844
 Mulliken charges:
               1
     1  C    0.530438
     2  C   -0.914358
     3  C    0.912208
     4  C    0.546107
     5  C   -0.290855
     6  H   -0.490643
     7  S    0.394717
     8  H   -0.359692
     9  C    0.078711
    10  S    0.361511
    11  C   -0.689122
    12  C   -0.254758
    13  C    0.310451
    14  H   -0.503898
    15  S    0.584872
    16  C   -0.104731
    17  C    0.561460
    18  H   -0.383842
    19  H   -0.327126
    20  H   -0.080321
    21  H   -0.007960
    22  H    0.126832
 Sum of Mulliken charges =  -0.00000
 Mulliken charges with hydrogens summed into heavy atoms:
               1
     1  C    0.039795
     2  C   -0.914358
     3  C    0.912208
     4  C    0.584657
     5  C   -0.650548
     7  S    0.394717
     9  C    0.078711
    10  S    0.361511
    11  C   -0.689122
    12  C   -0.254758
    13  C   -0.193447
    15  S    0.584872
    16  C   -0.488574
    17  C    0.234334
 Electronic spatial extent (au):  <R**2>=           4351.1771
 Charge=             -0.0000 electrons
 Dipole moment (field-independent basis, Debye):
    X=              0.5073    Y=              1.1605    Z=              0.4609  Tot=              1.3478
 Quadrupole moment (field-independent basis, Debye-Ang):
   XX=            -86.3610   YY=           -100.5813   ZZ=           -109.5145
   XY=             -2.2906   XZ=              2.9070   YZ=             -0.9321
 Traceless Quadrupole moment (field-independent basis, Debye-Ang):
   XX=             12.4579   YY=             -1.7624   ZZ=            -10.6955
   XY=             -2.2906   XZ=              2.9070   YZ=             -0.9321
 Octapole moment (field-independent basis, Debye-Ang**2):
  XXX=              0.9138  YYY=              4.3437  ZZZ=              2.3176  XYY=              7.3080
  XXY=             14.2096  XXZ=             -6.4677  XZZ=              1.4453  YZZ=              2.8018
  YYZ=             -0.7037  XYZ=             14.2653
 Hexadecapole moment (field-independent basis, Debye-Ang**3):
 XXXX=          -4153.8415 YYYY=          -1018.8728 ZZZZ=           -311.8079 XXXY=            -94.8992
 XXXZ=             27.7779 YYYX=            -18.4862 YYYZ=            -12.5167 ZZZX=              5.0530
 ZZZY=              2.4812 XXYY=           -927.5641 XXZZ=           -920.3575 YYZZ=           -218.5805
 XXYZ=             10.0929 YYXZ=              6.1606 ZZXY=              3.9589
 N-N= 1.124164560752D+03 E-N=-6.068489119823D+03  KE= 1.613736808920D+03
 Unable to Open any file for archive entry.
 1\1\GINC-CX3-11-3\FOpt\RHF\Aug-CC-pVDZ\C11H8S3\NS5018\26-Oct-2021\0\\#
  opt=modredundant hf/aug-cc-pvdz\\pBTTT_45.pdb\\0,1\C,-4.2286496974,-1
 .3590621814,-0.2658309403\C,-2.8644849108,-1.0277375142,-0.5973450786\
 C,-2.0552123269,-2.1185503086,-0.550892646\C,-2.4670436604,0.376174415
 1,-0.9771558272\C,-4.4163147974,-2.6628635074,0.0189327673\H,-5.024637
 6032,-0.6296548086,-0.2614192087\S,-2.9418189343,-3.5517487968,-0.0844
 095572\H,-5.3371086064,-3.1554631146,0.2814878167\C,-0.6071784813,-2.2
 392226172,-0.7834965862\S,0.5284657911,-1.0906094703,-0.084732402\C,1.
 8703026,-1.9467557794,-0.7780197476\C,1.4454467639,-3.0379317215,-1.47
 73420419\C,0.0239131024,-3.2102583094,-1.4863793118\H,-0.4972420353,-4
 .0037819428,-1.9963451399\S,2.7859481253,-3.894203717,-2.1760232898\C,
 3.9014381258,-2.7389755299,-1.4947339848\C,3.2937015523,-1.7658710736,
 -0.7843294157\H,4.9581592634,-2.8566354196,-1.6648831917\H,3.819035693
 8,-0.9654563308,-0.289385154\H,-3.2481736477,0.8293821379,-1.587123704
 3\H,-1.5408364115,0.3954396978,-1.5434966219\H,-2.3367099053,0.9997858
 924,-0.0910767345\\Version=ES64L-G16RevC.01\State=1-A\HF=-1613.8140958
 \RMSD=7.961e-09\RMSF=5.917e-04\Dipole=-0.1438267,0.5045183,-0.0771452\
 Quadrupole=9.7882663,-1.8692321,-7.9190342,-0.0709012,-0.6444324,1.411
 3337\PG=C01 [X(C11H8S3)]\\@
 The archive entry for this job was punched.


 The most important thing in communication is to hear what isn't being said.
 -- Peter F. Drucker
 Job cpu time:       0 days  7 hours 50 minutes 30.2 seconds.
 Elapsed time:       0 days  0 hours 59 minutes 16.2 seconds.
 File lengths (MBytes):  RWF=    103 Int=      0 D2E=      0 Chk=     13 Scr=      1
 Normal termination of Gaussian 16 at Tue Oct 26 01:28:04 2021.
