 Entering Gaussian System, Link 0=g16
 Input=pBTTT_-110.gjf
 Output=pBTTT_-110.log
 Initial command:
 /apps/gaussian/g16-c01-avx/g16/l1.exe "/tmp/pbs.4762177[65].pbs/Gau-3693115.inp" -scrdir="/tmp/pbs.4762177[65].pbs/"
 Entering Link 1 = /apps/gaussian/g16-c01-avx/g16/l1.exe PID=   3693116.
  
 Copyright (c) 1988-2019, Gaussian, Inc.  All Rights Reserved.
  
 This is part of the Gaussian(R) 16 program.  It is based on
 the Gaussian(R) 09 system (copyright 2009, Gaussian, Inc.),
 the Gaussian(R) 03 system (copyright 2003, Gaussian, Inc.),
 the Gaussian(R) 98 system (copyright 1998, Gaussian, Inc.),
 the Gaussian(R) 94 system (copyright 1995, Gaussian, Inc.),
 the Gaussian 92(TM) system (copyright 1992, Gaussian, Inc.),
 the Gaussian 90(TM) system (copyright 1990, Gaussian, Inc.),
 the Gaussian 88(TM) system (copyright 1988, Gaussian, Inc.),
 the Gaussian 86(TM) system (copyright 1986, Carnegie Mellon
 University), and the Gaussian 82(TM) system (copyright 1983,
 Carnegie Mellon University). Gaussian is a federally registered
 trademark of Gaussian, Inc.
  
 This software contains proprietary and confidential information,
 including trade secrets, belonging to Gaussian, Inc.
  
 This software is provided under written license and may be
 used, copied, transmitted, or stored only in accord with that
 written license.
  
 The following legend is applicable only to US Government
 contracts under FAR:
  
                    RESTRICTED RIGHTS LEGEND
  
 Use, reproduction and disclosure by the US Government is
 subject to restrictions as set forth in subparagraphs (a)
 and (c) of the Commercial Computer Software - Restricted
 Rights clause in FAR 52.227-19.
  
 Gaussian, Inc.
 340 Quinnipiac St., Bldg. 40, Wallingford CT 06492
  
  
 ---------------------------------------------------------------
 Warning -- This program may not be used in any manner that
 competes with the business of Gaussian, Inc. or will provide
 assistance to any competitor of Gaussian, Inc.  The licensee
 of this program is prohibited from giving any competitor of
 Gaussian, Inc. access to this program.  By using this program,
 the user acknowledges that Gaussian, Inc. is engaged in the
 business of creating and licensing software in the field of
 computational chemistry and represents and warrants to the
 licensee that it is not a competitor of Gaussian, Inc. and that
 it will not use this program in any manner prohibited above.
 ---------------------------------------------------------------
  

 Cite this work as:
 Gaussian 16, Revision C.01,
 M. J. Frisch, G. W. Trucks, H. B. Schlegel, G. E. Scuseria, 
 M. A. Robb, J. R. Cheeseman, G. Scalmani, V. Barone, 
 G. A. Petersson, H. Nakatsuji, X. Li, M. Caricato, A. V. Marenich, 
 J. Bloino, B. G. Janesko, R. Gomperts, B. Mennucci, H. P. Hratchian, 
 J. V. Ortiz, A. F. Izmaylov, J. L. Sonnenberg, D. Williams-Young, 
 F. Ding, F. Lipparini, F. Egidi, J. Goings, B. Peng, A. Petrone, 
 T. Henderson, D. Ranasinghe, V. G. Zakrzewski, J. Gao, N. Rega, 
 G. Zheng, W. Liang, M. Hada, M. Ehara, K. Toyota, R. Fukuda, 
 J. Hasegawa, M. Ishida, T. Nakajima, Y. Honda, O. Kitao, H. Nakai, 
 T. Vreven, K. Throssell, J. A. Montgomery, Jr., J. E. Peralta, 
 F. Ogliaro, M. J. Bearpark, J. J. Heyd, E. N. Brothers, K. N. Kudin, 
 V. N. Staroverov, T. A. Keith, R. Kobayashi, J. Normand, 
 K. Raghavachari, A. P. Rendell, J. C. Burant, S. S. Iyengar, 
 J. Tomasi, M. Cossi, J. M. Millam, M. Klene, C. Adamo, R. Cammi, 
 J. W. Ochterski, R. L. Martin, K. Morokuma, O. Farkas, 
 J. B. Foresman, and D. J. Fox, Gaussian, Inc., Wallingford CT, 2019.
 
 ******************************************
 Gaussian 16:  ES64L-G16RevC.01  3-Jul-2019
                25-Oct-2021 
 ******************************************
 %mem=100GB
 %nprocshared=8
 Will use up to    8 processors via shared memory.
 ---------------------------------
 # opt=modredundant hf/aug-cc-pvdz
 ---------------------------------
 1/18=120,19=15,38=1/1,3;
 2/9=110,12=2,17=6,18=5,40=1/2;
 3/5=16,7=10,11=9,25=1,30=1,71=1/1,2,3;
 4//1;
 5/5=2,38=5/2;
 6/7=2,8=2,9=2,10=2,28=1/1;
 7//1,2,3,16;
 1/18=20,19=15/3(2);
 2/9=110/2;
 99//99;
 2/9=110/2;
 3/5=16,7=10,11=9,25=1,30=1,71=1/1,2,3;
 4/5=5,16=3,69=1/1;
 5/5=2,38=5/2;
 7//1,2,3,16;
 1/18=20,19=15/3(-5);
 2/9=110/2;
 6/7=2,8=2,9=2,10=2,19=2,28=1/1;
 99/9=1/99;
 --------------
 pBTTT_-110.pdb
 --------------
 Symbolic Z-matrix:
 Charge =  0 Multiplicity = 1
 C                    -4.25     -1.36     -0.21 
 C                    -2.93     -0.95     -0.61 
 C                    -1.97     -2.05     -0.62 
 C                    -2.66      0.47     -0.96 
 C                    -4.33     -2.76      0.1 
 H                    -5.1      -0.7      -0.14 
 S                    -2.8      -3.56     -0.11 
 H                    -5.23     -3.27      0.41 
 C                    -0.56     -2.13     -0.97 
 S                     0.006    -2.984    -2.438 
 C                     1.665    -2.616    -2.115 
 C                     1.829    -1.825    -0.922 
 C                     0.584    -1.531    -0.279 
 H                     0.492    -0.821     0.528 
 S                     3.273    -0.867    -0.95 
 C                     3.709    -1.498    -2.539 
 C                     2.725    -2.425    -3.05 
 H                     4.519    -1.085    -3.124 
 H                     2.669    -2.703    -4.099 
 H                    -3.55      1.09     -0.83 
 H                    -2.35      0.56     -2. 
 H                    -1.88      0.89     -0.31 
 
 The following ModRedundant input section has been read:
 D       2       3       9      10 F                                           
 

 GradGradGradGradGradGradGradGradGradGradGradGradGradGradGradGradGradGrad
 Berny optimization.
 Initialization pass.
                           ----------------------------
                           !    Initial Parameters    !
                           ! (Angstroms and Degrees)  !
 --------------------------                            --------------------------
 ! Name  Definition              Value          Derivative Info.                !
 --------------------------------------------------------------------------------
 ! R1    R(1,2)                  1.4389         estimate D2E/DX2                !
 ! R2    R(1,5)                  1.4361         estimate D2E/DX2                !
 ! R3    R(1,6)                  1.0784         estimate D2E/DX2                !
 ! R4    R(2,3)                  1.46           estimate D2E/DX2                !
 ! R5    R(2,4)                  1.4872         estimate D2E/DX2                !
 ! R6    R(3,7)                  1.797          estimate D2E/DX2                !
 ! R7    R(3,9)                  1.455          estimate D2E/DX2                !
 ! R8    R(4,20)                 1.0924         estimate D2E/DX2                !
 ! R9    R(4,21)                 1.0889         estimate D2E/DX2                !
 ! R10   R(4,22)                 1.0988         estimate D2E/DX2                !
 ! R11   R(5,7)                  1.7393         estimate D2E/DX2                !
 ! R12   R(5,8)                  1.0799         estimate D2E/DX2                !
 ! R13   R(9,10)                 1.7902         estimate D2E/DX2                !
 ! R14   R(9,13)                 1.4646         estimate D2E/DX2                !
 ! R15   R(10,11)                1.7297         estimate D2E/DX2                !
 ! R16   R(11,12)                1.4408         estimate D2E/DX2                !
 ! R17   R(11,17)                1.4263         estimate D2E/DX2                !
 ! R18   R(12,13)                1.4318         estimate D2E/DX2                !
 ! R19   R(12,15)                1.7331         estimate D2E/DX2                !
 ! R20   R(13,14)                1.0788         estimate D2E/DX2                !
 ! R21   R(15,16)                1.7644         estimate D2E/DX2                !
 ! R22   R(16,17)                1.4452         estimate D2E/DX2                !
 ! R23   R(16,18)                1.0812         estimate D2E/DX2                !
 ! R24   R(17,19)                1.0867         estimate D2E/DX2                !
 ! A1    A(2,1,5)              112.8843         estimate D2E/DX2                !
 ! A2    A(2,1,6)              124.5209         estimate D2E/DX2                !
 ! A3    A(5,1,6)              122.5942         estimate D2E/DX2                !
 ! A4    A(1,2,3)              112.9799         estimate D2E/DX2                !
 ! A5    A(1,2,4)              120.2665         estimate D2E/DX2                !
 ! A6    A(3,2,4)              126.7536         estimate D2E/DX2                !
 ! A7    A(2,3,7)              109.1138         estimate D2E/DX2                !
 ! A8    A(2,3,9)              132.8639         estimate D2E/DX2                !
 ! A9    A(7,3,9)              118.0132         estimate D2E/DX2                !
 ! A10   A(2,4,20)             111.468          estimate D2E/DX2                !
 ! A11   A(2,4,21)             110.8154         estimate D2E/DX2                !
 ! A12   A(2,4,22)             110.7706         estimate D2E/DX2                !
 ! A13   A(20,4,21)            107.3779         estimate D2E/DX2                !
 ! A14   A(20,4,22)            106.918          estimate D2E/DX2                !
 ! A15   A(21,4,22)            109.3476         estimate D2E/DX2                !
 ! A16   A(1,5,7)              111.9209         estimate D2E/DX2                !
 ! A17   A(1,5,8)              124.6643         estimate D2E/DX2                !
 ! A18   A(7,5,8)              123.4062         estimate D2E/DX2                !
 ! A19   A(3,7,5)               93.0997         estimate D2E/DX2                !
 ! A20   A(3,9,10)             121.9977         estimate D2E/DX2                !
 ! A21   A(3,9,13)             128.3872         estimate D2E/DX2                !
 ! A22   A(10,9,13)            109.575          estimate D2E/DX2                !
 ! A23   A(9,10,11)             92.7869         estimate D2E/DX2                !
 ! A24   A(10,11,12)           112.3704         estimate D2E/DX2                !
 ! A25   A(10,11,17)           128.2334         estimate D2E/DX2                !
 ! A26   A(12,11,17)           112.6248         estimate D2E/DX2                !
 ! A27   A(11,12,13)           112.6824         estimate D2E/DX2                !
 ! A28   A(11,12,15)           112.6397         estimate D2E/DX2                !
 ! A29   A(13,12,15)           128.1889         estimate D2E/DX2                !
 ! A30   A(9,13,12)            112.5415         estimate D2E/DX2                !
 ! A31   A(9,13,14)            123.7447         estimate D2E/DX2                !
 ! A32   A(12,13,14)           123.0418         estimate D2E/DX2                !
 ! A33   A(12,15,16)            91.3038         estimate D2E/DX2                !
 ! A34   A(15,16,17)           112.3067         estimate D2E/DX2                !
 ! A35   A(15,16,18)           122.3991         estimate D2E/DX2                !
 ! A36   A(17,16,18)           124.3193         estimate D2E/DX2                !
 ! A37   A(11,17,16)           111.1072         estimate D2E/DX2                !
 ! A38   A(11,17,19)           124.0745         estimate D2E/DX2                !
 ! A39   A(16,17,19)           122.718          estimate D2E/DX2                !
 ! D1    D(5,1,2,3)              0.3915         estimate D2E/DX2                !
 ! D2    D(5,1,2,4)           -179.5973         estimate D2E/DX2                !
 ! D3    D(6,1,2,3)           -179.8811         estimate D2E/DX2                !
 ! D4    D(6,1,2,4)              0.13           estimate D2E/DX2                !
 ! D5    D(2,1,5,7)             -0.3845         estimate D2E/DX2                !
 ! D6    D(2,1,5,8)           -179.3471         estimate D2E/DX2                !
 ! D7    D(6,1,5,7)            179.8822         estimate D2E/DX2                !
 ! D8    D(6,1,5,8)              0.9196         estimate D2E/DX2                !
 ! D9    D(1,2,3,7)             -0.2224         estimate D2E/DX2                !
 ! D10   D(1,2,3,9)            178.6265         estimate D2E/DX2                !
 ! D11   D(4,2,3,7)            179.7656         estimate D2E/DX2                !
 ! D12   D(4,2,3,9)             -1.3855         estimate D2E/DX2                !
 ! D13   D(1,2,4,20)             2.1641         estimate D2E/DX2                !
 ! D14   D(1,2,4,21)          -117.3645         estimate D2E/DX2                !
 ! D15   D(1,2,4,22)           121.0843         estimate D2E/DX2                !
 ! D16   D(3,2,4,20)          -177.8231         estimate D2E/DX2                !
 ! D17   D(3,2,4,21)            62.6483         estimate D2E/DX2                !
 ! D18   D(3,2,4,22)           -58.9029         estimate D2E/DX2                !
 ! D19   D(2,3,7,5)              0.0033         estimate D2E/DX2                !
 ! D20   D(9,3,7,5)           -179.041          estimate D2E/DX2                !
 ! D21   D(2,3,9,10)          -109.9859         Frozen                          !
 ! D22   D(2,3,9,13)            67.4639         estimate D2E/DX2                !
 ! D23   D(7,3,9,10)            68.7821         estimate D2E/DX2                !
 ! D24   D(7,3,9,13)          -113.7681         estimate D2E/DX2                !
 ! D25   D(1,5,7,3)              0.2153         estimate D2E/DX2                !
 ! D26   D(8,5,7,3)            179.1932         estimate D2E/DX2                !
 ! D27   D(3,9,10,11)          179.7979         estimate D2E/DX2                !
 ! D28   D(13,9,10,11)           1.9193         estimate D2E/DX2                !
 ! D29   D(3,9,13,12)         -179.8557         estimate D2E/DX2                !
 ! D30   D(3,9,13,14)           -9.0159         estimate D2E/DX2                !
 ! D31   D(10,9,13,12)          -2.151          estimate D2E/DX2                !
 ! D32   D(10,9,13,14)         168.6888         estimate D2E/DX2                !
 ! D33   D(9,10,11,12)          -1.2368         estimate D2E/DX2                !
 ! D34   D(9,10,11,17)        -149.8713         estimate D2E/DX2                !
 ! D35   D(10,11,12,13)          0.1916         estimate D2E/DX2                !
 ! D36   D(10,11,12,15)       -154.0114         estimate D2E/DX2                !
 ! D37   D(17,11,12,13)        153.9003         estimate D2E/DX2                !
 ! D38   D(17,11,12,15)         -0.3027         estimate D2E/DX2                !
 ! D39   D(10,11,17,16)        149.6905         estimate D2E/DX2                !
 ! D40   D(10,11,17,19)        -14.166          estimate D2E/DX2                !
 ! D41   D(12,11,17,16)          1.1203         estimate D2E/DX2                !
 ! D42   D(12,11,17,19)       -162.7361         estimate D2E/DX2                !
 ! D43   D(11,12,13,9)           1.3006         estimate D2E/DX2                !
 ! D44   D(11,12,13,14)       -169.6136         estimate D2E/DX2                !
 ! D45   D(15,12,13,9)         150.5688         estimate D2E/DX2                !
 ! D46   D(15,12,13,14)        -20.3454         estimate D2E/DX2                !
 ! D47   D(11,12,15,16)         -0.459          estimate D2E/DX2                !
 ! D48   D(13,12,15,16)       -149.7377         estimate D2E/DX2                !
 ! D49   D(12,15,16,17)          1.1023         estimate D2E/DX2                !
 ! D50   D(12,15,16,18)        170.2496         estimate D2E/DX2                !
 ! D51   D(15,16,17,11)         -1.4612         estimate D2E/DX2                !
 ! D52   D(15,16,17,19)        162.652          estimate D2E/DX2                !
 ! D53   D(18,16,17,11)       -170.3634         estimate D2E/DX2                !
 ! D54   D(18,16,17,19)         -6.2502         estimate D2E/DX2                !
 --------------------------------------------------------------------------------
 Trust Radius=3.00D-01 FncErr=1.00D-07 GrdErr=1.00D-07 EigMax=2.50D+02 EigMin=1.00D-04
 Number of steps in this run=    127 maximum allowed number of steps=    132.
 GradGradGradGradGradGradGradGradGradGradGradGradGradGradGradGradGradGrad

                          Input orientation:                          
 ---------------------------------------------------------------------
 Center     Atomic      Atomic             Coordinates (Angstroms)
 Number     Number       Type             X           Y           Z
 ---------------------------------------------------------------------
      1          6           0       -4.250000   -1.360000   -0.210000
      2          6           0       -2.930000   -0.950000   -0.610000
      3          6           0       -1.970000   -2.050000   -0.620000
      4          6           0       -2.660000    0.470000   -0.960000
      5          6           0       -4.330000   -2.760000    0.100000
      6          1           0       -5.100000   -0.700000   -0.140000
      7         16           0       -2.800000   -3.560000   -0.110000
      8          1           0       -5.230000   -3.270000    0.410000
      9          6           0       -0.560000   -2.130000   -0.970000
     10         16           0        0.006000   -2.984000   -2.438000
     11          6           0        1.665000   -2.616000   -2.115000
     12          6           0        1.829000   -1.825000   -0.922000
     13          6           0        0.584000   -1.531000   -0.279000
     14          1           0        0.492000   -0.821000    0.528000
     15         16           0        3.273000   -0.867000   -0.950000
     16          6           0        3.709000   -1.498000   -2.539000
     17          6           0        2.725000   -2.425000   -3.050000
     18          1           0        4.519000   -1.085000   -3.124000
     19          1           0        2.669000   -2.703000   -4.099000
     20          1           0       -3.550000    1.090000   -0.830000
     21          1           0       -2.350000    0.560000   -2.000000
     22          1           0       -1.880000    0.890000   -0.310000
 ---------------------------------------------------------------------
                    Distance matrix (angstroms):
                    1          2          3          4          5
     1  C    0.000000
     2  C    1.438923   0.000000
     3  C    2.417147   1.460034   0.000000
     4  C    2.537617   1.487212   2.634787   0.000000
     5  C    1.436141   2.395871   2.567509   3.787532   0.000000
     6  H    1.078425   2.234346   3.442354   2.827525   2.212261
     7  S    2.636759   2.660639   1.796970   4.121044   1.739253
     8  H    2.234480   3.422397   3.630000   4.740190   1.079907
     9  C    3.845335   2.671872   1.454991   3.342170   3.969219
    10  S    5.070986   4.012335   2.842896   4.606751   5.029167
    11  C    6.339857   5.114157   3.970970   5.437191   6.392729
    12  C    6.138193   4.848819   3.817621   5.041784   6.312843
    13  C    4.837516   3.577054   2.628414   3.871860   5.079516
    14  H    4.829258   3.608569   2.981575   3.716978   5.214843
    15  S    7.575367   6.212866   5.384927   6.081789   7.905160
    16  C    8.293911   6.935248   6.019826   6.850579   8.554676
    17  C    7.605948   6.333107   5.299863   6.461219   7.733547
    18  H    9.244587   7.862952   7.021991   7.657608   9.565804
    19  H    8.049878   6.826048   5.835252   6.951222   8.162160
    20  H    2.622384   2.143455   3.521378   1.092428   4.036806
    21  H    3.240447   2.132745   2.976726   1.088944   4.399182
    22  H    3.269465   2.139650   2.957668   1.098772   4.415099
                    6          7          8          9         10
     6  H    0.000000
     7  S    3.670218   0.000000
     8  H    2.631406   2.501879   0.000000
     9  C    4.831708   2.793224   5.001290   0.000000
    10  S    6.047206   3.691205   5.967294   1.790166   0.000000
    11  C    7.303212   4.984715   7.371863   2.549087   1.729750
    12  C    7.063157   5.009712   7.327464   2.408869   2.639103
    13  C    5.746106   3.949286   6.107490   1.464588   2.665816
    14  H    5.633057   4.329715   6.225175   2.250375   3.702961
    15  S    8.413746   6.696206   8.940079   4.035772   4.167628
    16  C    9.164632   7.246997   9.578220   4.591900   3.991316
    17  C    8.524925   6.360617   8.715942   3.899314   2.842532
    18  H   10.078573   8.293225  10.597471   5.614978   4.944084
    19  H    8.946678   6.823235   9.113000   4.532705   3.151103
    20  H    2.466313   4.764808   4.834211   4.396374   5.641655
    21  H    3.551014   4.555107   5.363898   3.391327   4.278144
    22  H    3.595191   4.548505   5.389480   3.361309   4.805544
                   11         12         13         14         15
    11  C    0.000000
    12  C    1.440773   0.000000
    13  C    2.390958   1.431751   0.000000
    14  H    3.403440   2.213162   1.078802   0.000000
    15  S    2.646108   1.733114   2.849887   3.149692   0.000000
    16  C    2.368045   2.501203   3.856723   4.495988   1.764420
    17  C    1.426291   2.385624   3.614078   4.512337   2.671641
    18  H    3.392250   3.554223   4.876184   5.442750   2.515217
    19  H    2.225273   3.401443   4.507018   5.448888   3.694850
    20  H    6.525480   6.118769   4.925769   4.672670   7.099125
    21  H    5.120588   4.930958   3.992803   4.046592   5.895503
    22  H    5.302555   4.637073   3.454490   3.042392   5.481793
                   16         17         18         19         20
    16  C    0.000000
    17  C    1.445236   0.000000
    18  H    1.081154   2.240427   0.000000
    19  H    2.228727   1.086656   2.644059   0.000000
    20  H    7.893764   7.527234   8.666131   7.984308   0.000000
    21  H    6.421633   5.980665   7.152102   6.343763   1.757783
    22  H    6.473632   6.301020   7.264050   6.925285   1.760483
                   21         22
    21  H    0.000000
    22  H    1.784909   0.000000
 Stoichiometry    C11H8S3
 Framework group  C1[X(C11H8S3)]
 Deg. of freedom    60
 Full point group                 C1      NOp   1
 Largest Abelian subgroup         C1      NOp   1
 Largest concise Abelian subgroup C1      NOp   1
                         Standard orientation:                         
 ---------------------------------------------------------------------
 Center     Atomic      Atomic             Coordinates (Angstroms)
 Number     Number       Type             X           Y           Z
 ---------------------------------------------------------------------
      1          6           0        3.979620    0.811938    0.294798
      2          6           0        2.576507    1.093702    0.444403
      3          6           0        1.722708    0.038095   -0.092645
      4          6           0        2.130318    2.355999    1.091953
      5          6           0        4.230865   -0.442207   -0.358270
      6          1           0        4.772538    1.462993    0.627076
      7         16           0        2.755896   -1.266025   -0.771537
      8          1           0        5.212804   -0.844652   -0.558354
      9          6           0        0.279143   -0.135511   -0.147253
     10         16           0       -0.565568   -1.370727    0.835296
     11          6           0       -2.117750   -0.922945    0.217027
     12          6           0       -2.041722    0.175022   -0.712766
     13          6           0       -0.701527    0.637436   -0.912666
     14          1           0       -0.466077    1.547476   -1.442008
     15         16           0       -3.512800    1.088192   -0.788484
     16          6           0       -4.276869    0.032104    0.400656
     17          6           0       -3.384125   -1.003796    0.868229
     18          1           0       -5.231839    0.263167    0.851808
     19          1           0       -3.565656   -1.568792    1.778529
     20          1           0        2.979343    2.985697    1.367699
     21          1           0        1.571039    2.147048    2.002638
     22          1           0        1.504387    2.944996    0.407415
 ---------------------------------------------------------------------
 Rotational constants (GHZ):           1.2063707           0.2638274           0.2415113
 Standard basis: Aug-CC-pVDZ (5D, 7F)
 There are   434 symmetry adapted cartesian basis functions of A   symmetry.
 There are   406 symmetry adapted basis functions of A   symmetry.
   406 basis functions,   804 primitive gaussians,   434 cartesian basis functions
    61 alpha electrons       61 beta electrons
       nuclear repulsion energy      1104.5094059948 Hartrees.
 NAtoms=   22 NActive=   22 NUniq=   22 SFac= 1.00D+00 NAtFMM=   60 NAOKFM=F Big=F
 Integral buffers will be    131072 words long.
 Raffenetti 1 integral format.
 Two-electron integral symmetry is turned on.
 One-electron integrals computed using PRISM.
 NBasis=   406 RedAO= T EigKep=  5.88D-06  NBF=   406
 NBsUse=   406 1.00D-06 EigRej= -1.00D+00 NBFU=   406
 ExpMin= 2.97D-02 ExpMax= 1.11D+05 ExpMxC= 1.07D+03 IAcc=3 IRadAn=         5 AccDes= 0.00D+00
 Harris functional with IExCor=  205 and IRadAn=       5 diagonalized for initial guess.
 HarFok:  IExCor=  205 AccDes= 0.00D+00 IRadAn=         5 IDoV= 1 UseB2=F ITyADJ=14
 ICtDFT=  3500011 ScaDFX=  1.000000  1.000000  1.000000  1.000000
 FoFCou: FMM=F IPFlag=           0 FMFlag=      100000 FMFlg1=           0
         NFxFlg=           0 DoJE=T BraDBF=F KetDBF=T FulRan=T
         wScrn=  0.000000 ICntrl=       500 IOpCl=  0 I1Cent=   200000004 NGrid=           0
         NMat0=    1 NMatS0=      1 NMatT0=    0 NMatD0=    1 NMtDS0=    0 NMtDT0=    0
 Petite list used in FoFCou.
 Requested convergence on RMS density matrix=1.00D-08 within 128 cycles.
 Requested convergence on MAX density matrix=1.00D-06.
 Requested convergence on             energy=1.00D-06.
 No special actions if energy rises.
 SCF Done:  E(RHF) =  -1613.75027255     A.U. after   18 cycles
            NFock= 18  Conv=0.45D-08     -V/T= 2.0010

 **********************************************************************

            Population analysis using the SCF Density.

 **********************************************************************

 Orbital symmetries:
       Occupied  (A) (A) (A) (A) (A) (A) (A) (A) (A) (A) (A) (A)
                 (A) (A) (A) (A) (A) (A) (A) (A) (A) (A) (A) (A)
                 (A) (A) (A) (A) (A) (A) (A) (A) (A) (A) (A) (A)
                 (A) (A) (A) (A) (A) (A) (A) (A) (A) (A) (A) (A)
                 (A) (A) (A) (A) (A) (A) (A) (A) (A) (A) (A) (A)
                 (A)
       Virtual   (A) (A) (A) (A) (A) (A) (A) (A) (A) (A) (A) (A)
                 (A) (A) (A) (A) (A) (A) (A) (A) (A) (A) (A) (A)
                 (A) (A) (A) (A) (A) (A) (A) (A) (A) (A) (A) (A)
                 (A) (A) (A) (A) (A) (A) (A) (A) (A) (A) (A) (A)
                 (A) (A) (A) (A) (A) (A) (A) (A) (A) (A) (A) (A)
                 (A) (A) (A) (A) (A) (A) (A) (A) (A) (A) (A) (A)
                 (A) (A) (A) (A) (A) (A) (A) (A) (A) (A) (A) (A)
                 (A) (A) (A) (A) (A) (A) (A) (A) (A) (A) (A) (A)
                 (A) (A) (A) (A) (A) (A) (A) (A) (A) (A) (A) (A)
                 (A) (A) (A) (A) (A) (A) (A) (A) (A) (A) (A) (A)
                 (A) (A) (A) (A) (A) (A) (A) (A) (A) (A) (A) (A)
                 (A) (A) (A) (A) (A) (A) (A) (A) (A) (A) (A) (A)
                 (A) (A) (A) (A) (A) (A) (A) (A) (A) (A) (A) (A)
                 (A) (A) (A) (A) (A) (A) (A) (A) (A) (A) (A) (A)
                 (A) (A) (A) (A) (A) (A) (A) (A) (A) (A) (A) (A)
                 (A) (A) (A) (A) (A) (A) (A) (A) (A) (A) (A) (A)
                 (A) (A) (A) (A) (A) (A) (A) (A) (A) (A) (A) (A)
                 (A) (A) (A) (A) (A) (A) (A) (A) (A) (A) (A) (A)
                 (A) (A) (A) (A) (A) (A) (A) (A) (A) (A) (A) (A)
                 (A) (A) (A) (A) (A) (A) (A) (A) (A) (A) (A) (A)
                 (A) (A) (A) (A) (A) (A) (A) (A) (A) (A) (A) (A)
                 (A) (A) (A) (A) (A) (A) (A) (A) (A) (A) (A) (A)
                 (A) (A) (A) (A) (A) (A) (A) (A) (A) (A) (A) (A)
                 (A) (A) (A) (A) (A) (A) (A) (A) (A) (A) (A) (A)
                 (A) (A) (A) (A) (A) (A) (A) (A) (A) (A) (A) (A)
                 (A) (A) (A) (A) (A) (A) (A) (A) (A) (A) (A) (A)
                 (A) (A) (A) (A) (A) (A) (A) (A) (A) (A) (A) (A)
                 (A) (A) (A) (A) (A) (A) (A) (A) (A) (A) (A) (A)
                 (A) (A) (A) (A) (A) (A) (A) (A) (A)
 The electronic state is 1-A.
 Alpha  occ. eigenvalues --  -92.00108 -91.99767 -91.99449 -11.30527 -11.29478
 Alpha  occ. eigenvalues --  -11.29090 -11.28680 -11.28665 -11.28505 -11.27589
 Alpha  occ. eigenvalues --  -11.27430 -11.27312 -11.25519 -11.23979  -9.00167
 Alpha  occ. eigenvalues --   -8.99800  -8.99415  -6.68333  -6.68244  -6.68055
 Alpha  occ. eigenvalues --   -6.67962  -6.67866  -6.67681  -6.67570  -6.67471
 Alpha  occ. eigenvalues --   -6.67312  -1.19796  -1.15948  -1.10342  -1.03664
 Alpha  occ. eigenvalues --   -1.03185  -1.00507  -0.94399  -0.93696  -0.90696
 Alpha  occ. eigenvalues --   -0.81998  -0.77393  -0.76037  -0.71820  -0.69658
 Alpha  occ. eigenvalues --   -0.66227  -0.65816  -0.60393  -0.58919  -0.58260
 Alpha  occ. eigenvalues --   -0.56399  -0.55595  -0.54206  -0.53696  -0.52844
 Alpha  occ. eigenvalues --   -0.51440  -0.50699  -0.48863  -0.47279  -0.46520
 Alpha  occ. eigenvalues --   -0.44873  -0.38835  -0.34114  -0.32342  -0.31591
 Alpha  occ. eigenvalues --   -0.27464
 Alpha virt. eigenvalues --    0.03408   0.03550   0.04092   0.04727   0.04943
 Alpha virt. eigenvalues --    0.05607   0.05922   0.06671   0.07449   0.08085
 Alpha virt. eigenvalues --    0.08418   0.08583   0.09310   0.10316   0.10663
 Alpha virt. eigenvalues --    0.10988   0.11311   0.12100   0.12467   0.12900
 Alpha virt. eigenvalues --    0.13052   0.13422   0.13973   0.14088   0.14134
 Alpha virt. eigenvalues --    0.14610   0.15036   0.15390   0.15623   0.16257
 Alpha virt. eigenvalues --    0.16507   0.16962   0.17425   0.17594   0.17954
 Alpha virt. eigenvalues --    0.18439   0.18806   0.18948   0.19175   0.19813
 Alpha virt. eigenvalues --    0.20033   0.20938   0.21080   0.21266   0.21399
 Alpha virt. eigenvalues --    0.21752   0.22610   0.22880   0.23085   0.23285
 Alpha virt. eigenvalues --    0.24740   0.25016   0.25218   0.26003   0.26459
 Alpha virt. eigenvalues --    0.26585   0.26841   0.27458   0.27721   0.28767
 Alpha virt. eigenvalues --    0.29189   0.29743   0.30367   0.31117   0.31634
 Alpha virt. eigenvalues --    0.31946   0.32035   0.32955   0.33239   0.33629
 Alpha virt. eigenvalues --    0.34205   0.34730   0.35467   0.35678   0.36138
 Alpha virt. eigenvalues --    0.36646   0.37273   0.37630   0.38657   0.38969
 Alpha virt. eigenvalues --    0.39834   0.40161   0.41388   0.41545   0.42032
 Alpha virt. eigenvalues --    0.42364   0.43503   0.43775   0.44367   0.44826
 Alpha virt. eigenvalues --    0.45556   0.46020   0.46468   0.47166   0.47561
 Alpha virt. eigenvalues --    0.47876   0.48481   0.49477   0.50302   0.50604
 Alpha virt. eigenvalues --    0.51219   0.51764   0.51855   0.53467   0.53893
 Alpha virt. eigenvalues --    0.54302   0.55186   0.55977   0.56186   0.56676
 Alpha virt. eigenvalues --    0.57599   0.57894   0.58030   0.59351   0.59967
 Alpha virt. eigenvalues --    0.60618   0.61569   0.61966   0.62621   0.63247
 Alpha virt. eigenvalues --    0.63620   0.64369   0.64887   0.65379   0.65950
 Alpha virt. eigenvalues --    0.66640   0.67030   0.67335   0.67457   0.68393
 Alpha virt. eigenvalues --    0.68672   0.68976   0.69443   0.70067   0.70221
 Alpha virt. eigenvalues --    0.70819   0.71706   0.72077   0.72499   0.73082
 Alpha virt. eigenvalues --    0.73425   0.73954   0.74835   0.75502   0.75686
 Alpha virt. eigenvalues --    0.76611   0.76845   0.77487   0.77645   0.78908
 Alpha virt. eigenvalues --    0.79633   0.79989   0.80532   0.81252   0.81876
 Alpha virt. eigenvalues --    0.82719   0.83620   0.84627   0.84864   0.86314
 Alpha virt. eigenvalues --    0.86952   0.87373   0.87846   0.88681   0.89627
 Alpha virt. eigenvalues --    0.89941   0.90343   0.91007   0.91631   0.92371
 Alpha virt. eigenvalues --    0.93455   0.94171   0.94911   0.96005   0.96781
 Alpha virt. eigenvalues --    0.97555   0.98148   0.98470   0.98837   0.99640
 Alpha virt. eigenvalues --    1.00672   1.01084   1.01447   1.02915   1.04123
 Alpha virt. eigenvalues --    1.05710   1.05743   1.06084   1.07152   1.09412
 Alpha virt. eigenvalues --    1.10361   1.10949   1.11941   1.12993   1.13377
 Alpha virt. eigenvalues --    1.14742   1.15537   1.16477   1.17249   1.18745
 Alpha virt. eigenvalues --    1.19332   1.20656   1.21977   1.22311   1.23123
 Alpha virt. eigenvalues --    1.24414   1.25233   1.26213   1.26617   1.27281
 Alpha virt. eigenvalues --    1.28522   1.28886   1.29525   1.30218   1.31296
 Alpha virt. eigenvalues --    1.32346   1.33289   1.34069   1.34291   1.36680
 Alpha virt. eigenvalues --    1.37301   1.38005   1.39146   1.41719   1.43007
 Alpha virt. eigenvalues --    1.44359   1.45099   1.46414   1.47205   1.49693
 Alpha virt. eigenvalues --    1.51913   1.53341   1.55053   1.55276   1.56793
 Alpha virt. eigenvalues --    1.58137   1.59073   1.59350   1.61242   1.62369
 Alpha virt. eigenvalues --    1.63701   1.64907   1.65632   1.65919   1.66936
 Alpha virt. eigenvalues --    1.67840   1.68524   1.69748   1.71038   1.71070
 Alpha virt. eigenvalues --    1.73226   1.74832   1.75544   1.75741   1.76568
 Alpha virt. eigenvalues --    1.77005   1.78326   1.78862   1.80896   1.81606
 Alpha virt. eigenvalues --    1.82684   1.82975   1.85105   1.85435   1.87264
 Alpha virt. eigenvalues --    1.88598   1.89986   1.91669   1.92826   1.94293
 Alpha virt. eigenvalues --    1.95455   1.96246   1.96886   1.98072   2.00065
 Alpha virt. eigenvalues --    2.00529   2.02300   2.03110   2.05382   2.05766
 Alpha virt. eigenvalues --    2.08065   2.09226   2.10011   2.11581   2.13219
 Alpha virt. eigenvalues --    2.14187   2.15063   2.15881   2.17707   2.17799
 Alpha virt. eigenvalues --    2.18726   2.19348   2.21287   2.23276   2.23675
 Alpha virt. eigenvalues --    2.25424   2.25594   2.27354   2.28917   2.30576
 Alpha virt. eigenvalues --    2.31676   2.33308   2.34918   2.35613   2.37237
 Alpha virt. eigenvalues --    2.38582   2.39584   2.41007   2.43345   2.44420
 Alpha virt. eigenvalues --    2.45792   2.47924   2.50500   2.50616   2.52904
 Alpha virt. eigenvalues --    2.54675   2.56095   2.60124   2.61610   2.65188
 Alpha virt. eigenvalues --    2.68901   2.72482   2.73579   2.76237   2.79057
 Alpha virt. eigenvalues --    2.81935   2.83927   2.84779   2.87162   2.90211
 Alpha virt. eigenvalues --    2.93900   2.95536   3.01009   3.02417   3.05022
 Alpha virt. eigenvalues --    3.14076   3.20055   3.22468   3.25256   3.31193
 Alpha virt. eigenvalues --    3.43535   3.60755   3.74796   4.11259   4.16015
          Condensed to atoms (all electrons):
               1          2          3          4          5          6
     1  C    9.516854  -1.870450  -0.455550  -1.101186   0.187683  -0.473295
     2  C   -1.870450   9.421684  -1.434794   0.303527   0.134554   0.361308
     3  C   -0.455550  -1.434794  11.634308  -0.775576  -1.116619   0.022364
     4  C   -1.101186   0.303527  -0.775576   6.365056   0.126036   0.107903
     5  C    0.187683   0.134554  -1.116619   0.126036   6.250267  -0.089801
     6  H   -0.473295   0.361308   0.022364   0.107903  -0.089801   1.714081
     7  S   -0.600328   0.114054  -0.297656   0.122546   0.357505  -0.011241
     8  H   -0.010722   0.076850   0.009695   0.019690   0.226890  -0.079998
     9  C    0.166578  -0.500127  -2.091361  -0.044988   0.214854  -0.010027
    10  S    0.003752   0.009146  -0.445093  -0.065259   0.021745  -0.002815
    11  C    0.023637  -0.003265   0.053978   0.033275   0.017581   0.000426
    12  C   -0.044478   0.003063   0.359907   0.071609  -0.012311  -0.000098
    13  C   -0.033315   0.051319   0.054010  -0.045650  -0.058322   0.005722
    14  H    0.023677   0.006752  -0.004318   0.042728  -0.004289   0.000511
    15  S   -0.006938  -0.017350   0.034902   0.003997   0.000972  -0.000277
    16  C   -0.001076  -0.010267   0.058551   0.003851  -0.000416   0.000017
    17  C    0.004984   0.030110  -0.258810  -0.019672   0.000684   0.000097
    18  H   -0.000129  -0.000586   0.002760   0.000484   0.000005  -0.000004
    19  H    0.000225   0.000410  -0.010060  -0.001169   0.000233   0.000001
    20  H    0.063802   0.082668   0.077024  -0.140650   0.001326  -0.032357
    21  H    0.014627   0.022453  -0.072537   0.371254   0.005084   0.002876
    22  H   -0.016503   0.010658   0.000369   0.334897   0.000996   0.000171
               7          8          9         10         11         12
     1  C   -0.600328  -0.010722   0.166578   0.003752   0.023637  -0.044478
     2  C    0.114054   0.076850  -0.500127   0.009146  -0.003265   0.003063
     3  C   -0.297656   0.009695  -2.091361  -0.445093   0.053978   0.359907
     4  C    0.122546   0.019690  -0.044988  -0.065259   0.033275   0.071609
     5  C    0.357505   0.226890   0.214854   0.021745   0.017581  -0.012311
     6  H   -0.011241  -0.079998  -0.010027  -0.002815   0.000426  -0.000098
     7  S   15.981614  -0.155854  -0.038073   0.202931  -0.019143  -0.022151
     8  H   -0.155854   1.241331   0.001044   0.002020   0.000406  -0.000750
     9  C   -0.038073   0.001044  10.097000   0.427159  -0.278454  -0.526832
    10  S    0.202931   0.002020   0.427159  16.123313   0.125738  -0.288275
    11  C   -0.019143   0.000406  -0.278454   0.125738   7.583073   0.203503
    12  C   -0.022151  -0.000750  -0.526832  -0.288275   0.203503   8.114902
    13  C   -0.092035   0.000600  -1.497383  -0.481045  -0.304948  -1.466025
    14  H   -0.004329  -0.000057   0.138670   0.034037  -0.031853   0.207376
    15  S    0.004026   0.000045  -0.131107  -0.006280  -0.020020   0.119377
    16  C   -0.005327  -0.000042   0.064794  -0.057551   0.133433  -0.255226
    17  C    0.025108   0.000083  -0.121969  -0.018846  -1.184777   0.075126
    18  H   -0.000199   0.000000  -0.004917  -0.006961  -0.034769   0.023440
    19  H    0.002426   0.000013   0.050328  -0.029707   0.204469  -0.021729
    20  H   -0.005329   0.001927   0.040607   0.008055   0.002453  -0.007425
    21  H    0.003149   0.000656  -0.036494  -0.007079  -0.000585   0.014932
    22  H    0.010265   0.001018  -0.008794  -0.006385  -0.004922   0.013396
              13         14         15         16         17         18
     1  C   -0.033315   0.023677  -0.006938  -0.001076   0.004984  -0.000129
     2  C    0.051319   0.006752  -0.017350  -0.010267   0.030110  -0.000586
     3  C    0.054010  -0.004318   0.034902   0.058551  -0.258810   0.002760
     4  C   -0.045650   0.042728   0.003997   0.003851  -0.019672   0.000484
     5  C   -0.058322  -0.004289   0.000972  -0.000416   0.000684   0.000005
     6  H    0.005722   0.000511  -0.000277   0.000017   0.000097  -0.000004
     7  S   -0.092035  -0.004329   0.004026  -0.005327   0.025108  -0.000199
     8  H    0.000600  -0.000057   0.000045  -0.000042   0.000083   0.000000
     9  C   -1.497383   0.138670  -0.131107   0.064794  -0.121969  -0.004917
    10  S   -0.481045   0.034037  -0.006280  -0.057551  -0.018846  -0.006961
    11  C   -0.304948  -0.031853  -0.020020   0.133433  -1.184777  -0.034769
    12  C   -1.466025   0.207376   0.119377  -0.255226   0.075126   0.023440
    13  C    9.967964  -0.498295  -0.096907  -0.327661   0.407940   0.034340
    14  H   -0.498295   1.593925  -0.049044  -0.000479  -0.012642   0.001888
    15  S   -0.096907  -0.049044  15.654763   0.207672  -0.262906  -0.132835
    16  C   -0.327661  -0.000479   0.207672   5.836256   0.203477   0.231137
    17  C    0.407940  -0.012642  -0.262906   0.203477   6.741237   0.042931
    18  H    0.034340   0.001888  -0.132835   0.231137   0.042931   1.240652
    19  H   -0.016455  -0.000569   0.005701  -0.052500  -0.136037  -0.058024
    20  H   -0.006624   0.003307   0.000548  -0.000061  -0.000912   0.000024
    21  H    0.011708   0.001694  -0.000531   0.001055  -0.001308   0.000018
    22  H   -0.020742  -0.003177  -0.000381  -0.000275   0.002982  -0.000060
              19         20         21         22
     1  C    0.000225   0.063802   0.014627  -0.016503
     2  C    0.000410   0.082668   0.022453   0.010658
     3  C   -0.010060   0.077024  -0.072537   0.000369
     4  C   -0.001169  -0.140650   0.371254   0.334897
     5  C    0.000233   0.001326   0.005084   0.000996
     6  H    0.000001  -0.032357   0.002876   0.000171
     7  S    0.002426  -0.005329   0.003149   0.010265
     8  H    0.000013   0.001927   0.000656   0.001018
     9  C    0.050328   0.040607  -0.036494  -0.008794
    10  S   -0.029707   0.008055  -0.007079  -0.006385
    11  C    0.204469   0.002453  -0.000585  -0.004922
    12  C   -0.021729  -0.007425   0.014932   0.013396
    13  C   -0.016455  -0.006624   0.011708  -0.020742
    14  H   -0.000569   0.003307   0.001694  -0.003177
    15  S    0.005701   0.000548  -0.000531  -0.000381
    16  C   -0.052500  -0.000061   0.001055  -0.000275
    17  C   -0.136037  -0.000912  -0.001308   0.002982
    18  H   -0.058024   0.000024   0.000018  -0.000060
    19  H    1.384169  -0.000009   0.000026   0.000078
    20  H   -0.000009   1.345962  -0.113521  -0.094916
    21  H    0.000026  -0.113521   0.798051  -0.120108
    22  H    0.000078  -0.094916  -0.120108   0.789257
 Mulliken charges:
               1
     1  C    0.608151
     2  C   -0.791718
     3  C    0.654504
     4  C    0.287298
     5  C   -0.264656
     6  H   -0.515564
     7  S    0.428045
     8  H   -0.334844
     9  C    0.089491
    10  S    0.457401
    11  C   -0.499235
    12  C   -0.561333
    13  C    0.411802
    14  H   -0.445513
    15  S    0.692574
    16  C   -0.029363
    17  C    0.483119
    18  H   -0.339196
    19  H   -0.321821
    20  H   -0.225900
    21  H    0.104580
    22  H    0.112176
 Sum of Mulliken charges =  -0.00000
 Mulliken charges with hydrogens summed into heavy atoms:
               1
     1  C    0.092587
     2  C   -0.791718
     3  C    0.654504
     4  C    0.278155
     5  C   -0.599501
     7  S    0.428045
     9  C    0.089491
    10  S    0.457401
    11  C   -0.499235
    12  C   -0.561333
    13  C   -0.033710
    15  S    0.692574
    16  C   -0.368559
    17  C    0.161299
 Electronic spatial extent (au):  <R**2>=           4437.2761
 Charge=             -0.0000 electrons
 Dipole moment (field-independent basis, Debye):
    X=              0.4721    Y=              1.8810    Z=              1.4513  Tot=              2.4222
 Quadrupole moment (field-independent basis, Debye-Ang):
   XX=            -89.7207   YY=           -103.1225   ZZ=           -106.9069
   XY=              2.1825   XZ=             -4.5519   YZ=             -1.2590
 Traceless Quadrupole moment (field-independent basis, Debye-Ang):
   XX=             10.1960   YY=             -3.2058   ZZ=             -6.9902
   XY=              2.1825   XZ=             -4.5519   YZ=             -1.2590
 Octapole moment (field-independent basis, Debye-Ang**2):
  XXX=             24.9506  YYY=             12.3969  ZZZ=              8.0647  XYY=             10.2882
  XXY=              8.3635  XXZ=             30.5129  XZZ=             -7.9290  YZZ=              1.0844
  YYZ=              3.5313  XYZ=             18.1147
 Hexadecapole moment (field-independent basis, Debye-Ang**3):
 XXXX=          -4324.9709 YYYY=           -942.6756 ZZZZ=           -471.9684 XXXY=            -73.4809
 XXXZ=           -148.8645 YYYX=             10.0262 YYYZ=             -5.2898 ZZZX=            -11.6784
 ZZZY=            -10.0702 XXYY=           -958.8971 XXZZ=           -928.3412 YYZZ=           -221.5090
 XXYZ=             24.6102 YYXZ=             -0.5223 ZZXY=             10.9327
 N-N= 1.104509405995D+03 E-N=-6.027507071333D+03  KE= 1.612217461819D+03
 Calling FoFJK, ICntrl=      2127 FMM=F ISym2X=0 I1Cent= 0 IOpClX= 0 NMat=1 NMatS=1 NMatT=0.
 ***** Axes restored to original set *****
 -------------------------------------------------------------------
 Center     Atomic                   Forces (Hartrees/Bohr)
 Number     Number              X              Y              Z
 -------------------------------------------------------------------
      1        6           0.017153006   -0.076961100    0.013695965
      2        6           0.030846106   -0.064090201    0.006154532
      3        6          -0.074623278    0.027587747    0.012121306
      4        6           0.010988041    0.013930496    0.000385259
      5        6           0.013681401    0.064584857   -0.018471014
      6        1           0.001115003    0.000459688   -0.000380256
      7       16          -0.007719437    0.031635474   -0.004666533
      8        1           0.004472550   -0.003089870   -0.000154640
      9        6           0.082986391    0.036371125    0.025069616
     10       16          -0.005897381    0.001033135    0.023476240
     11        6           0.009936361    0.043447608    0.032588738
     12        6          -0.030719732   -0.016782561   -0.043771308
     13        6          -0.057359908   -0.035316193   -0.043963449
     14        1          -0.004042383   -0.006224518    0.004107652
     15       16           0.009177942   -0.016268956   -0.016194645
     16        6          -0.059814667   -0.043810354   -0.023864740
     17        6           0.048175536    0.056677798    0.024812956
     18        1           0.002799173   -0.003908941    0.007425797
     19        1           0.007071341   -0.005718646    0.008006997
     20        1           0.000958500   -0.004120855    0.000200180
     21        1           0.003421149    0.001732343    0.000156312
     22        1          -0.002605714   -0.001168078   -0.006734965
 -------------------------------------------------------------------
 Cartesian Forces:  Max     0.082986391 RMS     0.030000305

 GradGradGradGradGradGradGradGradGradGradGradGradGradGradGradGradGradGrad
 Berny optimization.
 FormGI is forming the generalized inverse of G from B-inverse, IUseBI=4.
 Internal  Forces:  Max     0.088657868 RMS     0.017223946
 Search for a local minimum.
 Step number   1 out of a maximum of  127
 All quantities printed in internal units (Hartrees-Bohrs-Radians)
 Mixed Optimization -- RFO/linear search
 Second derivative matrix not updated -- first step.
 ITU=  0
     Eigenvalues ---    0.00935   0.00982   0.01057   0.01215   0.01241
     Eigenvalues ---    0.01277   0.01299   0.01421   0.01457   0.01497
     Eigenvalues ---    0.01498   0.01592   0.01596   0.01767   0.02203
     Eigenvalues ---    0.02657   0.07307   0.07353   0.15078   0.15688
     Eigenvalues ---    0.15739   0.15997   0.16000   0.16000   0.16000
     Eigenvalues ---    0.16000   0.17981   0.22442   0.22545   0.23318
     Eigenvalues ---    0.23976   0.24718   0.24978   0.24995   0.25000
     Eigenvalues ---    0.26147   0.26560   0.28444   0.30920   0.31251
     Eigenvalues ---    0.31596   0.33757   0.33818   0.34533   0.34820
     Eigenvalues ---    0.34935   0.35202   0.35855   0.35877   0.36006
     Eigenvalues ---    0.36140   0.36185   0.36315   0.37598   0.38262
     Eigenvalues ---    0.38438   0.39458   0.39805   0.405981000.00000
     Eigenvalues --- 1000.000001000.000001000.000001000.000001000.00000
     Eigenvalues --- 1000.000001000.000001000.000001000.000001000.00000
     Eigenvalues --- 1000.000001000.000001000.000001000.000001000.00000
     Eigenvalues --- 1000.000001000.000001000.000001000.000001000.00000
     Eigenvalues --- 1000.000001000.000001000.000001000.000001000.00000
     Eigenvalues --- 1000.000001000.000001000.000001000.000001000.00000
     Eigenvalues --- 1000.000001000.000001000.000001000.000001000.00000
     Eigenvalues --- 1000.000001000.000001000.000001000.000001000.00000
     Eigenvalues --- 1000.000001000.000001000.000001000.000001000.00000
     Eigenvalues --- 1000.000001000.000001000.000001000.000001000.00000
     Eigenvalues --- 1000.000001000.000001000.000001000.000001000.00000
     Eigenvalues --- 1000.000001000.00000
 RFO step:  Lambda=-8.33191518D-02 EMin= 9.35106172D-03
 Linear search not attempted -- first point.
 Maximum step size (   0.300) exceeded in Quadratic search.
    -- Step size scaled by   0.714
 Iteration  1 RMS(Cart)=  0.06235623 RMS(Int)=  0.00104528
 Iteration  2 RMS(Cart)=  0.00170708 RMS(Int)=  0.00034574
 Iteration  3 RMS(Cart)=  0.00000144 RMS(Int)=  0.00034574
 Iteration  4 RMS(Cart)=  0.00000000 RMS(Int)=  0.00034574
 Iteration  1 RMS(Cart)=  0.00000625 RMS(Int)=  0.00000237
 Iteration  2 RMS(Cart)=  0.00000341 RMS(Int)=  0.00000264
 Iteration  3 RMS(Cart)=  0.00000186 RMS(Int)=  0.00000299
 Iteration  4 RMS(Cart)=  0.00000101 RMS(Int)=  0.00000321
 Iteration  5 RMS(Cart)=  0.00000055 RMS(Int)=  0.00000334
 Variable       Old X    -DE/DX   Delta X   Delta X   Delta X     New X
                                 (Linear)    (Quad)   (Total)
    R1        2.71917  -0.01192   0.00000  -0.01954  -0.01948   2.69969
    R2        2.71391  -0.07173   0.00000  -0.10671  -0.10676   2.60716
    R3        2.03793  -0.00062   0.00000  -0.00100  -0.00100   2.03693
    R4        2.75906  -0.08313   0.00000  -0.13156  -0.13146   2.62760
    R5        2.81042   0.01363   0.00000   0.02313   0.02313   2.83356
    R6        3.39578  -0.02801   0.00000  -0.05553  -0.05552   3.34026
    R7        2.74954   0.00227   0.00000   0.00354   0.00354   2.75307
    R8        2.06439  -0.00310   0.00000  -0.00516  -0.00516   2.05923
    R9        2.05781   0.00097   0.00000   0.00160   0.00160   2.05940
   R10        2.07638  -0.00628   0.00000  -0.01064  -0.01064   2.06574
   R11        3.28671  -0.02398   0.00000  -0.04164  -0.04174   3.24498
   R12        2.04073  -0.00231   0.00000  -0.00373  -0.00373   2.03700
   R13        3.38292  -0.01984   0.00000  -0.03697  -0.03734   3.34558
   R14        2.76767  -0.08866   0.00000  -0.14150  -0.14166   2.62601
   R15        3.26875  -0.00508   0.00000  -0.00780  -0.00778   3.26097
   R16        2.72267  -0.05495   0.00000  -0.08512  -0.08444   2.63823
   R17        2.69530   0.00236   0.00000   0.00127   0.00160   2.69690
   R18        2.70562  -0.00721   0.00000  -0.01276  -0.01251   2.69310
   R19        3.27511  -0.00294   0.00000  -0.00367  -0.00375   3.27136
   R20        2.03864  -0.00068   0.00000  -0.00109  -0.00109   2.03755
   R21        3.33427  -0.01790   0.00000  -0.03176  -0.03215   3.30212
   R22        2.73110  -0.08067   0.00000  -0.12249  -0.12258   2.60852
   R23        2.04308  -0.00341   0.00000  -0.00552  -0.00552   2.03757
   R24        2.05348  -0.00663   0.00000  -0.01088  -0.01088   2.04260
    A1        1.97020   0.00778   0.00000   0.01356   0.01357   1.98377
    A2        2.17330  -0.00501   0.00000  -0.01007  -0.01008   2.16323
    A3        2.13967  -0.00277   0.00000  -0.00347  -0.00348   2.13619
    A4        1.97187  -0.00178   0.00000  -0.00738  -0.00723   1.96464
    A5        2.09905   0.01300   0.00000   0.02964   0.02956   2.12861
    A6        2.21227  -0.01122   0.00000  -0.02226  -0.02234   2.18993
    A7        1.90440   0.00633   0.00000   0.01470   0.01481   1.91921
    A8        2.31891  -0.01543   0.00000  -0.03368  -0.03374   2.28518
    A9        2.05972   0.00910   0.00000   0.01890   0.01884   2.07855
   A10        1.94548  -0.00454   0.00000  -0.01259  -0.01256   1.93292
   A11        1.93409   0.00260   0.00000   0.00716   0.00716   1.94126
   A12        1.93331   0.00334   0.00000   0.00957   0.00958   1.94289
   A13        1.87410   0.00136   0.00000   0.00446   0.00449   1.87859
   A14        1.86607   0.00132   0.00000   0.00481   0.00485   1.87092
   A15        1.90848  -0.00427   0.00000  -0.01391  -0.01392   1.89456
   A16        1.95339  -0.00381   0.00000  -0.00926  -0.00940   1.94399
   A17        2.17580   0.00692   0.00000   0.01938   0.01944   2.19524
   A18        2.15384  -0.00311   0.00000  -0.01007  -0.01000   2.14384
   A19        1.62490  -0.00852   0.00000  -0.01158  -0.01173   1.61316
   A20        2.12926  -0.00366   0.00000  -0.00767  -0.00770   2.12156
   A21        2.24078  -0.00357   0.00000  -0.00750  -0.00754   2.23324
   A22        1.91245   0.00731   0.00000   0.01560   0.01560   1.92805
   A23        1.61944  -0.00674   0.00000  -0.01075  -0.01061   1.60883
   A24        1.96123  -0.01200   0.00000  -0.02164  -0.02228   1.93895
   A25        2.23810   0.00939   0.00000   0.03382   0.03260   2.27070
   A26        1.96567   0.00704   0.00000   0.01466   0.01487   1.98054
   A27        1.96668   0.00803   0.00000   0.01559   0.01566   1.98234
   A28        1.96593  -0.01424   0.00000  -0.02622  -0.02673   1.93920
   A29        2.23732   0.01043   0.00000   0.03588   0.03477   2.27209
   A30        1.96422   0.00344   0.00000   0.00141   0.00181   1.96603
   A31        2.15975  -0.00582   0.00000  -0.01121  -0.01170   2.14805
   A32        2.14748   0.00311   0.00000   0.01506   0.01457   2.16205
   A33        1.59355   0.00023   0.00000   0.00299   0.00309   1.59664
   A34        1.96012   0.00076   0.00000   0.00061   0.00043   1.96055
   A35        2.13627  -0.00378   0.00000  -0.00794  -0.00848   2.12778
   A36        2.16978   0.00431   0.00000   0.01629   0.01583   2.18561
   A37        1.93919   0.00621   0.00000   0.00797   0.00835   1.94754
   A38        2.16551  -0.00007   0.00000   0.00947   0.00854   2.17405
   A39        2.14183  -0.00392   0.00000  -0.00247  -0.00344   2.13839
    D1        0.00683  -0.00056   0.00000  -0.00540  -0.00543   0.00141
    D2       -3.13456  -0.00069   0.00000  -0.00645  -0.00648  -3.14104
    D3       -3.13952  -0.00004   0.00000  -0.00094  -0.00098  -3.14050
    D4        0.00227  -0.00017   0.00000  -0.00199  -0.00203   0.00024
    D5       -0.00671   0.00057   0.00000   0.00391   0.00387  -0.00284
    D6       -3.13020   0.00017   0.00000   0.00151   0.00149  -3.12871
    D7        3.13954   0.00007   0.00000  -0.00043  -0.00047   3.13906
    D8        0.01605  -0.00033   0.00000  -0.00282  -0.00286   0.01319
    D9       -0.00388   0.00039   0.00000   0.00453   0.00451   0.00063
   D10        3.11762   0.00047   0.00000  -0.00025  -0.00023   3.11739
   D11        3.13750   0.00054   0.00000   0.00567   0.00562  -3.14007
   D12       -0.02418   0.00062   0.00000   0.00088   0.00087  -0.02331
   D13        0.03777  -0.00023   0.00000  -0.00130  -0.00130   0.03647
   D14       -2.04840  -0.00069   0.00000  -0.00341  -0.00340  -2.05179
   D15        2.11332   0.00068   0.00000   0.00286   0.00284   2.11616
   D16       -3.10360  -0.00039   0.00000  -0.00251  -0.00250  -3.10610
   D17        1.09342  -0.00085   0.00000  -0.00461  -0.00459   1.08883
   D18       -1.02805   0.00053   0.00000   0.00165   0.00164  -1.02641
   D19        0.00006  -0.00001   0.00000  -0.00188  -0.00195  -0.00189
   D20       -3.12486   0.00025   0.00000   0.00278   0.00285  -3.12201
   D21       -1.91962  -0.00166   0.00000   0.00000  -0.00000  -1.91962
   D22        1.17747   0.00104   0.00000   0.01381   0.01384   1.19130
   D23        1.20047  -0.00163   0.00000  -0.00523  -0.00522   1.19526
   D24       -1.98563   0.00107   0.00000   0.00858   0.00862  -1.97701
   D25        0.00376  -0.00030   0.00000  -0.00107  -0.00106   0.00269
   D26        3.12751   0.00023   0.00000   0.00165   0.00159   3.12910
   D27        3.13807   0.00108   0.00000   0.00605   0.00603  -3.13909
   D28        0.03350  -0.00096   0.00000  -0.00501  -0.00518   0.02832
   D29       -3.13907  -0.00173   0.00000  -0.00884  -0.00871   3.13540
   D30       -0.15736   0.00360   0.00000   0.02829   0.02821  -0.12915
   D31       -0.03754   0.00050   0.00000   0.00317   0.00345  -0.03409
   D32        2.94417   0.00584   0.00000   0.04030   0.04037   2.98454
   D33       -0.02159   0.00169   0.00000   0.00660   0.00653  -0.01506
   D34       -2.61575  -0.00880   0.00000  -0.05228  -0.05246  -2.66821
   D35        0.00334  -0.00121   0.00000  -0.00513  -0.00500  -0.00165
   D36       -2.68801  -0.01201   0.00000  -0.06183  -0.06052  -2.74853
   D37        2.68607   0.00950   0.00000   0.05273   0.05180   2.73787
   D38       -0.00528  -0.00130   0.00000  -0.00397  -0.00372  -0.00901
   D39        2.61259   0.00673   0.00000   0.05241   0.05332   2.66591
   D40       -0.24724  -0.00104   0.00000  -0.00318  -0.00274  -0.24998
   D41        0.01955   0.00103   0.00000   0.00256   0.00237   0.02192
   D42       -2.84028  -0.00674   0.00000  -0.05303  -0.05369  -2.89397
   D43        0.02270   0.00055   0.00000   0.00123   0.00105   0.02375
   D44       -2.96032  -0.00380   0.00000  -0.03283  -0.03342  -2.99374
   D45        2.62792   0.00542   0.00000   0.04769   0.04863   2.67655
   D46       -0.35509   0.00107   0.00000   0.01363   0.01416  -0.34093
   D47       -0.00801   0.00130   0.00000   0.00381   0.00369  -0.00432
   D48       -2.61342  -0.00910   0.00000  -0.05301  -0.05303  -2.66645
   D49        0.01924  -0.00059   0.00000  -0.00215  -0.00221   0.01703
   D50        2.97142   0.00703   0.00000   0.04911   0.04869   3.02010
   D51       -0.02550   0.00003   0.00000   0.00045   0.00066  -0.02485
   D52        2.83881   0.00838   0.00000   0.05738   0.05759   2.89641
   D53       -2.97340  -0.00672   0.00000  -0.04883  -0.04907  -3.02247
   D54       -0.10909   0.00163   0.00000   0.00811   0.00787  -0.10121
         Item               Value     Threshold  Converged?
 Maximum Force            0.088655     0.000450     NO 
 RMS     Force            0.017297     0.000300     NO 
 Maximum Displacement     0.215731     0.001800     NO 
 RMS     Displacement     0.062682     0.001200     NO 
 Predicted change in Energy=-4.336209D-02
 GradGradGradGradGradGradGradGradGradGradGradGradGradGradGradGradGradGrad

                          Input orientation:                          
 ---------------------------------------------------------------------
 Center     Atomic      Atomic             Coordinates (Angstroms)
 Number     Number       Type             X           Y           Z
 ---------------------------------------------------------------------
      1          6           0       -4.204598   -1.395922   -0.192261
      2          6           0       -2.895986   -0.994034   -0.600866
      3          6           0       -1.991541   -2.050120   -0.608566
      4          6           0       -2.581048    0.424088   -0.972492
      5          6           0       -4.302274   -2.738411    0.110413
      6          1           0       -5.045635   -0.725417   -0.121969
      7         16           0       -2.798186   -3.539161   -0.102152
      8          1           0       -5.196938   -3.249611    0.426952
      9          6           0       -0.582966   -2.097774   -0.977475
     10         16           0       -0.036111   -2.930870   -2.440773
     11          6           0        1.614048   -2.533241   -2.129846
     12          6           0        1.737248   -1.776131   -0.963365
     13          6           0        0.493085   -1.514511   -0.319469
     14          1           0        0.377840   -0.840518    0.514209
     15         16           0        3.207644   -0.862489   -0.965519
     16          6           0        3.657088   -1.503947   -2.527557
     17          6           0        2.705470   -2.366103   -3.034048
     18          1           0        4.517190   -1.140704   -3.066878
     19          1           0        2.699769   -2.683125   -4.067396
     20          1           0       -3.457200    1.059737   -0.846986
     21          1           0       -2.265454    0.498530   -2.012925
     22          1           0       -1.790444    0.834734   -0.339033
 ---------------------------------------------------------------------
                    Distance matrix (angstroms):
                    1          2          3          4          5
     1  C    0.000000
     2  C    1.428614   0.000000
     3  C    2.344974   1.390466   0.000000
     4  C    2.560686   1.499454   2.569371   0.000000
     5  C    1.379648   2.350833   2.515981   3.759881   0.000000
     6  H    1.077897   2.218668   3.364387   2.849375   2.158410
     7  S    2.565071   2.595371   1.767590   4.063494   1.717167
     8  H    2.191877   3.382073   3.575702   4.722011   1.077936
     9  C    3.771654   2.590393   1.456862   3.217475   3.927743
    10  S    4.978770   3.913499   2.820711   4.459629   4.974508
    11  C    6.237337   5.004732   3.943092   5.261567   6.329591
    12  C    6.003724   4.712742   3.755639   4.846518   6.209252
    13  C    4.700901   3.440331   2.558089   3.692546   4.967715
    14  H    4.669723   3.461921   2.887513   3.544648   5.066410
    15  S    7.471533   6.115928   5.345036   5.929948   7.815087
    16  C    8.201913   6.849447   5.990646   6.711921   8.475507
    17  C    7.534325   6.259334   5.295727   6.323168   7.689911
    18  H    9.186846   7.813956   7.016688   7.564391   9.509510
    19  H    8.021461   6.795758   5.862814   6.864417   8.153879
    20  H    2.649062   2.143248   3.446188   1.089699   4.007080
    21  H    3.265585   2.149240   2.922819   1.089790   4.374356
    22  H    3.290215   2.152945   2.904389   1.093140   4.390747
                    6          7          8          9         10
     6  H    0.000000
     7  S    3.601191   0.000000
     8  H    2.587617   2.473419   0.000000
     9  C    4.746648   2.784059   4.958616   0.000000
    10  S    5.944426   3.669908   5.912662   1.770407   0.000000
    11  C    7.186875   4.958954   7.310262   2.518822   1.725633
    12  C    6.915161   4.941672   7.224061   2.342445   2.580884
    13  C    5.598133   3.870258   5.995337   1.389623   2.605005
    14  H    5.461872   4.213042   6.073672   2.174618   3.643192
    15  S    8.297408   6.631740   8.847278   3.986828   4.120258
    16  C    9.062579   7.189941   9.495801   4.553399   3.960223
    17  C    8.441071   6.345259   8.672206   3.887841   2.861330
    18  H   10.014618   8.249662  10.536537   5.594031   4.932470
    19  H    8.910123   6.832530   9.103738   4.546053   3.192541
    20  H    2.497108   4.705204   4.818723   4.271782   5.492626
    21  H    3.578151   4.498645   5.347444   3.262471   4.112640
    22  H    3.616277   4.494732   5.373343   3.234998   4.655616
                   11         12         13         14         15
    11  C    0.000000
    12  C    1.396092   0.000000
    13  C    2.360473   1.425128   0.000000
    14  H    3.374100   2.215082   1.078224   0.000000
    15  S    2.585849   1.731130   2.865545   3.193410   0.000000
    16  C    2.321989   2.491298   3.858326   4.521719   1.747406
    17  C    1.427137   2.360773   3.603998   4.509479   2.606117
    18  H    3.353419   3.543531   4.886861   5.481652   2.491590
    19  H    2.226062   3.374032   4.503562   5.456891   3.632395
    20  H    6.346083   5.919289   4.744447   4.491253   6.937517
    21  H    4.925022   4.722001   3.811780   3.894414   5.736221
    22  H    5.112810   4.432947   3.276254   2.869834   5.315442
                   16         17         18         19         20
    16  C    0.000000
    17  C    1.380371   0.000000
    18  H    1.078234   2.187466   0.000000
    19  H    2.162874   1.080899   2.585173   0.000000
    20  H    7.746605   7.382285   8.565089   7.892295   0.000000
    21  H    6.273059   5.827427   7.057065   6.244775   1.759155
    22  H    6.319388   6.141800   7.150505   6.814545   1.756906
                   21         22
    21  H    0.000000
    22  H    1.772169   0.000000
 Stoichiometry    C11H8S3
 Framework group  C1[X(C11H8S3)]
 Deg. of freedom    60
 Full point group                 C1      NOp   1
 Largest Abelian subgroup         C1      NOp   1
 Largest concise Abelian subgroup C1      NOp   1
                         Standard orientation:                         
 ---------------------------------------------------------------------
 Center     Atomic      Atomic             Coordinates (Angstroms)
 Number     Number       Type             X           Y           Z
 ---------------------------------------------------------------------
      1          6           0        3.917920    0.791801    0.286960
      2          6           0        2.521238    1.053091    0.435100
      3          6           0        1.729749    0.039653   -0.093941
      4          6           0        2.012617    2.298521    1.097347
      5          6           0        4.193677   -0.402061   -0.347139
      6          1           0        4.694263    1.455003    0.632382
      7         16           0        2.752170   -1.232924   -0.771862
      8          1           0        5.176490   -0.795737   -0.549730
      9          6           0        0.281969   -0.117233   -0.135997
     10         16           0       -0.545513   -1.345003    0.834670
     11          6           0       -2.091794   -0.876813    0.228350
     12          6           0       -1.979110    0.189679   -0.665501
     13          6           0       -0.638209    0.631624   -0.859557
     14          1           0       -0.371958    1.521259   -1.407487
     15         16           0       -3.470795    1.059317   -0.789676
     16          6           0       -4.244042   -0.014144    0.351902
     17          6           0       -3.384115   -0.985235    0.824059
     18          1           0       -5.237463    0.172659    0.727143
     19          1           0       -3.611665   -1.592185    1.689031
     20          1           0        2.839387    2.944720    1.391150
     21          1           0        1.442336    2.062987    1.995648
     22          1           0        1.375409    2.875749    0.422270
 ---------------------------------------------------------------------
 Rotational constants (GHZ):           1.2618236           0.2700615           0.2480218
 Standard basis: Aug-CC-pVDZ (5D, 7F)
 There are   434 symmetry adapted cartesian basis functions of A   symmetry.
 There are   406 symmetry adapted basis functions of A   symmetry.
   406 basis functions,   804 primitive gaussians,   434 cartesian basis functions
    61 alpha electrons       61 beta electrons
       nuclear repulsion energy      1120.7548995708 Hartrees.
 NAtoms=   22 NActive=   22 NUniq=   22 SFac= 1.00D+00 NAtFMM=   60 NAOKFM=F Big=F
 Integral buffers will be    131072 words long.
 Raffenetti 1 integral format.
 Two-electron integral symmetry is turned on.
 One-electron integrals computed using PRISM.
 NBasis=   406 RedAO= T EigKep=  4.70D-06  NBF=   406
 NBsUse=   406 1.00D-06 EigRej= -1.00D+00 NBFU=   406
 Initial guess from the checkpoint file:  "/tmp/pbs.4762177[65].pbs/Gau-3693116.chk"
 B after Tr=    -0.000000    0.000000    0.000000
         Rot=    0.999990   -0.002921    0.002399   -0.002368 Ang=  -0.51 deg.
 ExpMin= 2.97D-02 ExpMax= 1.11D+05 ExpMxC= 1.07D+03 IAcc=3 IRadAn=         5 AccDes= 0.00D+00
 Harris functional with IExCor=  205 and IRadAn=       5 diagonalized for initial guess.
 HarFok:  IExCor=  205 AccDes= 0.00D+00 IRadAn=         5 IDoV= 1 UseB2=F ITyADJ=14
 ICtDFT=  3500011 ScaDFX=  1.000000  1.000000  1.000000  1.000000
 FoFCou: FMM=F IPFlag=           0 FMFlag=      100000 FMFlg1=           0
         NFxFlg=           0 DoJE=T BraDBF=F KetDBF=T FulRan=T
         wScrn=  0.000000 ICntrl=       500 IOpCl=  0 I1Cent=   200000004 NGrid=           0
         NMat0=    1 NMatS0=      1 NMatT0=    0 NMatD0=    1 NMtDS0=    0 NMtDT0=    0
 Petite list used in FoFCou.
 Requested convergence on RMS density matrix=1.00D-08 within 128 cycles.
 Requested convergence on MAX density matrix=1.00D-06.
 Requested convergence on             energy=1.00D-06.
 No special actions if energy rises.
 SCF Done:  E(RHF) =  -1613.79346427     A.U. after   15 cycles
            NFock= 15  Conv=0.95D-08     -V/T= 2.0003
 Calling FoFJK, ICntrl=      2127 FMM=F ISym2X=0 I1Cent= 0 IOpClX= 0 NMat=1 NMatS=1 NMatT=0.
 ***** Axes restored to original set *****
 -------------------------------------------------------------------
 Center     Atomic                   Forces (Hartrees/Bohr)
 Number     Number              X              Y              Z
 -------------------------------------------------------------------
      1        6          -0.002624172   -0.031965064    0.008694277
      2        6           0.020944571   -0.021043424    0.000151340
      3        6          -0.038556505    0.005340096    0.006867680
      4        6           0.003996833    0.007170777   -0.000214203
      5        6           0.001774075    0.030031989   -0.008103645
      6        1           0.000301673    0.001575590   -0.000422443
      7       16           0.003163475    0.007680549   -0.002386143
      8        1           0.002711632   -0.002516598    0.000266600
      9        6           0.042365195    0.016865968    0.008933216
     10       16          -0.008389886   -0.006726468    0.008707703
     11        6           0.000006086    0.024683812    0.016074578
     12        6          -0.008321630   -0.004249076   -0.028417618
     13        6          -0.029422555   -0.012861328   -0.013833398
     14        1          -0.001000603   -0.005152626    0.003911482
     15       16           0.010781789   -0.004764725   -0.000324153
     16        6          -0.026973284   -0.017443592   -0.011917515
     17        6           0.021861932    0.024399764    0.005208760
     18        1           0.002835782   -0.002119686    0.005438764
     19        1           0.003837314   -0.006817665    0.004210663
     20        1          -0.000000923   -0.001574563   -0.000092817
     21        1           0.001790436    0.000313589    0.000407187
     22        1          -0.001081233   -0.000827317   -0.003160317
 -------------------------------------------------------------------
 Cartesian Forces:  Max     0.042365195 RMS     0.013821380

 GradGradGradGradGradGradGradGradGradGradGradGradGradGradGradGradGradGrad
 Berny optimization.
 Using GEDIIS/GDIIS optimizer.
 FormGI is forming the generalized inverse of G from B-inverse, IUseBI=4.
 Internal  Forces:  Max     0.035613801 RMS     0.007031449
 Search for a local minimum.
 Step number   2 out of a maximum of  127
 All quantities printed in internal units (Hartrees-Bohrs-Radians)
 Mixed Optimization -- RFO/linear search
 Update second derivatives using D2CorX and points    1    2
 DE= -4.32D-02 DEPred=-4.34D-02 R= 9.96D-01
 TightC=F SS=  1.41D+00  RLast= 3.50D-01 DXNew= 5.0454D-01 1.0489D+00
 Trust test= 9.96D-01 RLast= 3.50D-01 DXMaxT set to 5.05D-01
 ITU=  1  0
 Use linear search instead of GDIIS.
     Eigenvalues ---    0.00935   0.00981   0.01051   0.01210   0.01241
     Eigenvalues ---    0.01274   0.01292   0.01385   0.01461   0.01485
     Eigenvalues ---    0.01499   0.01589   0.01592   0.01713   0.02055
     Eigenvalues ---    0.02378   0.07249   0.07377   0.15423   0.15781
     Eigenvalues ---    0.15840   0.15966   0.15999   0.16000   0.16000
     Eigenvalues ---    0.16024   0.18670   0.22459   0.22517   0.23423
     Eigenvalues ---    0.24085   0.24588   0.24895   0.24990   0.25083
     Eigenvalues ---    0.26121   0.26566   0.28497   0.30523   0.31103
     Eigenvalues ---    0.31433   0.33710   0.33814   0.34534   0.34861
     Eigenvalues ---    0.34937   0.35207   0.35855   0.35920   0.36007
     Eigenvalues ---    0.36088   0.36140   0.36224   0.37044   0.38097
     Eigenvalues ---    0.38833   0.39543   0.40374   0.448051000.00000
     Eigenvalues --- 1000.000001000.000001000.000001000.000001000.00000
     Eigenvalues --- 1000.000001000.000001000.000001000.000001000.00000
     Eigenvalues --- 1000.000001000.000001000.000001000.000001000.00000
     Eigenvalues --- 1000.000001000.000001000.000001000.000001000.00000
     Eigenvalues --- 1000.000001000.000001000.000001000.000001000.00000
     Eigenvalues --- 1000.000001000.000001000.000001000.000001000.00000
     Eigenvalues --- 1000.000001000.000001000.000001000.000001000.00000
     Eigenvalues --- 1000.000001000.000001000.000001000.000001000.00000
     Eigenvalues --- 1000.000001000.000001000.000001000.000001000.00000
     Eigenvalues --- 1000.000001000.000001000.000001000.000001000.00000
     Eigenvalues --- 1000.000001000.000001000.000001000.000001000.00000
     Eigenvalues --- 1000.000001000.00000
 RFO step:  Lambda=-8.71818643D-03 EMin= 9.35089994D-03
 Quartic linear search produced a step of  0.55994.
 Iteration  1 RMS(Cart)=  0.07830370 RMS(Int)=  0.00588208
 Iteration  2 RMS(Cart)=  0.00737278 RMS(Int)=  0.00225508
 Iteration  3 RMS(Cart)=  0.00003264 RMS(Int)=  0.00225491
 Iteration  4 RMS(Cart)=  0.00000002 RMS(Int)=  0.00225491
 Iteration  1 RMS(Cart)=  0.00001110 RMS(Int)=  0.00000423
 Iteration  2 RMS(Cart)=  0.00000609 RMS(Int)=  0.00000473
 Iteration  3 RMS(Cart)=  0.00000334 RMS(Int)=  0.00000534
 Iteration  4 RMS(Cart)=  0.00000183 RMS(Int)=  0.00000575
 Iteration  5 RMS(Cart)=  0.00000101 RMS(Int)=  0.00000599
 Iteration  6 RMS(Cart)=  0.00000055 RMS(Int)=  0.00000613
 Variable       Old X    -DE/DX   Delta X   Delta X   Delta X     New X
                                 (Linear)    (Quad)   (Total)
    R1        2.69969   0.00301  -0.01091   0.02932   0.01839   2.71808
    R2        2.60716  -0.02714  -0.05978   0.00042  -0.05947   2.54769
    R3        2.03693   0.00072  -0.00056   0.00397   0.00341   2.04034
    R4        2.62760  -0.03089  -0.07361   0.00323  -0.07028   2.55732
    R5        2.83356   0.00655   0.01295   0.00582   0.01877   2.85233
    R6        3.34026  -0.01162  -0.03109  -0.00418  -0.03518   3.30508
    R7        2.75307   0.00765   0.00198   0.02717   0.02915   2.78222
    R8        2.05923  -0.00093  -0.00289   0.00113  -0.00176   2.05748
    R9        2.05940   0.00015   0.00089  -0.00095  -0.00005   2.05935
   R10        2.06574  -0.00292  -0.00596  -0.00225  -0.00821   2.05752
   R11        3.24498  -0.00284  -0.02337   0.03027   0.00684   3.25182
   R12        2.03700  -0.00098  -0.00209  -0.00040  -0.00248   2.03452
   R13        3.34558  -0.00767  -0.02091   0.00793  -0.01555   3.33003
   R14        2.62601  -0.03561  -0.07932  -0.00319  -0.08419   2.54182
   R15        3.26097   0.00368  -0.00436   0.02348   0.01985   3.28083
   R16        2.63823  -0.02188  -0.04728  -0.01469  -0.05736   2.58087
   R17        2.69690   0.00524   0.00090   0.01361   0.01608   2.71298
   R18        2.69310   0.00371  -0.00701   0.02188   0.01618   2.70928
   R19        3.27136   0.00338  -0.00210   0.01909   0.01688   3.28824
   R20        2.03755  -0.00009  -0.00061   0.00071   0.00010   2.03765
   R21        3.30212  -0.00555  -0.01800   0.01399  -0.00613   3.29599
   R22        2.60852  -0.03043  -0.06864   0.00406  -0.06533   2.54320
   R23        2.03757  -0.00117  -0.00309   0.00056  -0.00253   2.03503
   R24        2.04260  -0.00205  -0.00609   0.00211  -0.00398   2.03862
    A1        1.98377   0.00070   0.00760  -0.01378  -0.00633   1.97744
    A2        2.16323  -0.00187  -0.00564  -0.00268  -0.00826   2.15497
    A3        2.13619   0.00118  -0.00195   0.01646   0.01457   2.15076
    A4        1.96464  -0.00168  -0.00405  -0.00428  -0.00827   1.95638
    A5        2.12861   0.00519   0.01655  -0.00077   0.01573   2.14434
    A6        2.18993  -0.00350  -0.01251   0.00504  -0.00751   2.18242
    A7        1.91921   0.00564   0.00829   0.01754   0.02600   1.94521
    A8        2.28518  -0.01029  -0.01889  -0.02407  -0.04306   2.24212
    A9        2.07855   0.00465   0.01055   0.00664   0.01710   2.09566
   A10        1.93292  -0.00164  -0.00703   0.00379  -0.00323   1.92970
   A11        1.94126   0.00056   0.00401  -0.00610  -0.00208   1.93917
   A12        1.94289   0.00128   0.00536  -0.00146   0.00391   1.94680
   A13        1.87859   0.00081   0.00251   0.00243   0.00495   1.88354
   A14        1.87092   0.00084   0.00271   0.00450   0.00722   1.87814
   A15        1.89456  -0.00186  -0.00779  -0.00277  -0.01057   1.88399
   A16        1.94399   0.00046  -0.00526   0.01417   0.00871   1.95270
   A17        2.19524   0.00339   0.01089   0.00664   0.01760   2.21285
   A18        2.14384  -0.00385  -0.00560  -0.02069  -0.02622   2.11762
   A19        1.61316  -0.00511  -0.00657  -0.01366  -0.02019   1.59298
   A20        2.12156  -0.00361  -0.00431  -0.01390  -0.01828   2.10328
   A21        2.23324  -0.00188  -0.00422  -0.00378  -0.00807   2.22518
   A22        1.92805   0.00553   0.00874   0.01851   0.02660   1.95465
   A23        1.60883  -0.00460  -0.00594  -0.01920  -0.02312   1.58571
   A24        1.93895  -0.00307  -0.01248   0.01681   0.00168   1.94063
   A25        2.27070   0.00483   0.01826   0.04298   0.05058   2.32128
   A26        1.98054   0.00143   0.00832  -0.00464   0.00280   1.98334
   A27        1.98234   0.00114   0.00877  -0.00614   0.00120   1.98353
   A28        1.93920  -0.00318  -0.01497   0.02170   0.00390   1.94311
   A29        2.27209   0.00514   0.01947   0.04123   0.04992   2.32201
   A30        1.96603   0.00104   0.00102  -0.00848  -0.00586   1.96017
   A31        2.14805  -0.00172  -0.00655   0.01242   0.00270   2.15075
   A32        2.16205   0.00115   0.00816   0.00495   0.00991   2.17197
   A33        1.59664  -0.00259   0.00173  -0.02463  -0.02003   1.57661
   A34        1.96055   0.00282   0.00024   0.02082   0.01942   1.97997
   A35        2.12778  -0.00467  -0.00475  -0.02033  -0.02987   2.09791
   A36        2.18561   0.00264   0.00886   0.01561   0.01965   2.20526
   A37        1.94754   0.00153   0.00468  -0.01251  -0.00597   1.94157
   A38        2.17405  -0.00053   0.00478   0.00694   0.00525   2.17930
   A39        2.13839   0.00037  -0.00193   0.02951   0.02128   2.15967
    D1        0.00141  -0.00041  -0.00304  -0.00666  -0.00967  -0.00826
    D2       -3.14104  -0.00061  -0.00363  -0.01502  -0.01867   3.12347
    D3       -3.14050  -0.00006  -0.00055  -0.00245  -0.00306   3.13962
    D4        0.00024  -0.00026  -0.00114  -0.01081  -0.01206  -0.01183
    D5       -0.00284   0.00035   0.00217   0.00102   0.00316   0.00032
    D6       -3.12871  -0.00002   0.00083  -0.00672  -0.00602  -3.13473
    D7        3.13906   0.00001  -0.00027  -0.00312  -0.00342   3.13564
    D8        0.01319  -0.00037  -0.00160  -0.01086  -0.01260   0.00059
    D9        0.00063   0.00029   0.00253   0.00896   0.01153   0.01217
   D10        3.11739   0.00052  -0.00013   0.01456   0.01443   3.13182
   D11       -3.14007   0.00049   0.00314   0.01767   0.02076  -3.11931
   D12       -0.02331   0.00072   0.00049   0.02328   0.02365   0.00034
   D13        0.03647  -0.00024  -0.00073  -0.00509  -0.00581   0.03066
   D14       -2.05179  -0.00054  -0.00190  -0.00665  -0.00853  -2.06033
   D15        2.11616   0.00057   0.00159   0.00210   0.00369   2.11985
   D16       -3.10610  -0.00047  -0.00140  -0.01458  -0.01599  -3.12209
   D17        1.08883  -0.00076  -0.00257  -0.01614  -0.01872   1.07011
   D18       -1.02641   0.00034   0.00092  -0.00739  -0.00649  -1.03290
   D19       -0.00189  -0.00007  -0.00109  -0.00717  -0.00838  -0.01027
   D20       -3.12201  -0.00002   0.00159  -0.01149  -0.01000  -3.13201
   D21       -1.91962  -0.00128  -0.00000   0.00000  -0.00000  -1.91962
   D22        1.19130   0.00109   0.00775   0.03758   0.04545   1.23675
   D23        1.19526  -0.00105  -0.00292   0.00610   0.00312   1.19838
   D24       -1.97701   0.00132   0.00483   0.04368   0.04857  -1.92844
   D25        0.00269  -0.00016  -0.00060   0.00352   0.00281   0.00551
   D26        3.12910   0.00028   0.00089   0.01127   0.01186   3.14096
   D27       -3.13909   0.00068   0.00338  -0.00505  -0.00191  -3.14100
   D28        0.02832  -0.00122  -0.00290  -0.03642  -0.04037  -0.01205
   D29        3.13540  -0.00083  -0.00488   0.00927   0.00454   3.13993
   D30       -0.12915   0.00335   0.01579   0.08664   0.10228  -0.02687
   D31       -0.03409   0.00121   0.00193   0.04302   0.04616   0.01207
[...]
     22          1           0        2.362494    3.106202    0.614513
 ---------------------------------------------------------------------
 Rotational constants (GHZ):           1.2841903           0.2660235           0.2487792

 **********************************************************************

            Population analysis using the SCF Density.

 **********************************************************************

 Orbital symmetries:
       Occupied  (A) (A) (A) (A) (A) (A) (A) (A) (A) (A) (A) (A)
                 (A) (A) (A) (A) (A) (A) (A) (A) (A) (A) (A) (A)
                 (A) (A) (A) (A) (A) (A) (A) (A) (A) (A) (A) (A)
                 (A) (A) (A) (A) (A) (A) (A) (A) (A) (A) (A) (A)
                 (A) (A) (A) (A) (A) (A) (A) (A) (A) (A) (A) (A)
                 (A)
       Virtual   (A) (A) (A) (A) (A) (A) (A) (A) (A) (A) (A) (A)
                 (A) (A) (A) (A) (A) (A) (A) (A) (A) (A) (A) (A)
                 (A) (A) (A) (A) (A) (A) (A) (A) (A) (A) (A) (A)
                 (A) (A) (A) (A) (A) (A) (A) (A) (A) (A) (A) (A)
                 (A) (A) (A) (A) (A) (A) (A) (A) (A) (A) (A) (A)
                 (A) (A) (A) (A) (A) (A) (A) (A) (A) (A) (A) (A)
                 (A) (A) (A) (A) (A) (A) (A) (A) (A) (A) (A) (A)
                 (A) (A) (A) (A) (A) (A) (A) (A) (A) (A) (A) (A)
                 (A) (A) (A) (A) (A) (A) (A) (A) (A) (A) (A) (A)
                 (A) (A) (A) (A) (A) (A) (A) (A) (A) (A) (A) (A)
                 (A) (A) (A) (A) (A) (A) (A) (A) (A) (A) (A) (A)
                 (A) (A) (A) (A) (A) (A) (A) (A) (A) (A) (A) (A)
                 (A) (A) (A) (A) (A) (A) (A) (A) (A) (A) (A) (A)
                 (A) (A) (A) (A) (A) (A) (A) (A) (A) (A) (A) (A)
                 (A) (A) (A) (A) (A) (A) (A) (A) (A) (A) (A) (A)
                 (A) (A) (A) (A) (A) (A) (A) (A) (A) (A) (A) (A)
                 (A) (A) (A) (A) (A) (A) (A) (A) (A) (A) (A) (A)
                 (A) (A) (A) (A) (A) (A) (A) (A) (A) (A) (A) (A)
                 (A) (A) (A) (A) (A) (A) (A) (A) (A) (A) (A) (A)
                 (A) (A) (A) (A) (A) (A) (A) (A) (A) (A) (A) (A)
                 (A) (A) (A) (A) (A) (A) (A) (A) (A) (A) (A) (A)
                 (A) (A) (A) (A) (A) (A) (A) (A) (A) (A) (A) (A)
                 (A) (A) (A) (A) (A) (A) (A) (A) (A) (A) (A) (A)
                 (A) (A) (A) (A) (A) (A) (A) (A) (A) (A) (A) (A)
                 (A) (A) (A) (A) (A) (A) (A) (A) (A) (A) (A) (A)
                 (A) (A) (A) (A) (A) (A) (A) (A) (A) (A) (A) (A)
                 (A) (A) (A) (A) (A) (A) (A) (A) (A) (A) (A) (A)
                 (A) (A) (A) (A) (A) (A) (A) (A) (A) (A) (A) (A)
                 (A) (A) (A) (A) (A) (A) (A) (A) (A)
 The electronic state is 1-A.
 Alpha  occ. eigenvalues --  -91.99067 -91.98951 -91.98333 -11.28803 -11.27806
 Alpha  occ. eigenvalues --  -11.27505 -11.27307 -11.27160 -11.27153 -11.25814
 Alpha  occ. eigenvalues --  -11.25796 -11.25559 -11.24303 -11.23637  -8.99247
 Alpha  occ. eigenvalues --   -8.99107  -8.98555  -6.67414  -6.67336  -6.67270
 Alpha  occ. eigenvalues --   -6.67188  -6.67130  -6.66982  -6.66719  -6.66627
 Alpha  occ. eigenvalues --   -6.66436  -1.21744  -1.18558  -1.12860  -1.03964
 Alpha  occ. eigenvalues --   -1.02459  -1.01639  -0.95839  -0.94601  -0.91851
 Alpha  occ. eigenvalues --   -0.82120  -0.77360  -0.76478  -0.72724  -0.69969
 Alpha  occ. eigenvalues --   -0.67363  -0.66866  -0.60733  -0.59059  -0.58840
 Alpha  occ. eigenvalues --   -0.56695  -0.56336  -0.54656  -0.53851  -0.52531
 Alpha  occ. eigenvalues --   -0.51767  -0.50972  -0.49479  -0.47365  -0.46257
 Alpha  occ. eigenvalues --   -0.46125  -0.38848  -0.34241  -0.33584  -0.32168
 Alpha  occ. eigenvalues --   -0.30072
 Alpha virt. eigenvalues --    0.03394   0.03507   0.04119   0.04710   0.04926
 Alpha virt. eigenvalues --    0.05553   0.06442   0.07344   0.08352   0.08497
 Alpha virt. eigenvalues --    0.08810   0.09060   0.10269   0.10531   0.10776
 Alpha virt. eigenvalues --    0.11304   0.11736   0.12365   0.12634   0.13054
 Alpha virt. eigenvalues --    0.13130   0.13898   0.14059   0.14086   0.14767
 Alpha virt. eigenvalues --    0.14853   0.15163   0.15602   0.15749   0.15966
 Alpha virt. eigenvalues --    0.16616   0.16791   0.17316   0.18069   0.18223
 Alpha virt. eigenvalues --    0.18814   0.19014   0.19105   0.20078   0.20226
 Alpha virt. eigenvalues --    0.20493   0.20880   0.21315   0.21689   0.21776
 Alpha virt. eigenvalues --    0.22627   0.22932   0.23163   0.23422   0.24030
 Alpha virt. eigenvalues --    0.24676   0.24979   0.25174   0.25712   0.26496
 Alpha virt. eigenvalues --    0.26626   0.27071   0.27857   0.28891   0.29070
 Alpha virt. eigenvalues --    0.29224   0.29915   0.30802   0.31735   0.32077
 Alpha virt. eigenvalues --    0.32276   0.32748   0.33064   0.33521   0.34013
 Alpha virt. eigenvalues --    0.34591   0.34857   0.35540   0.36000   0.36535
 Alpha virt. eigenvalues --    0.37170   0.37413   0.38632   0.39743   0.40215
 Alpha virt. eigenvalues --    0.40290   0.41205   0.41267   0.41622   0.42492
 Alpha virt. eigenvalues --    0.43578   0.43766   0.44763   0.44943   0.45227
 Alpha virt. eigenvalues --    0.45719   0.46182   0.46606   0.47443   0.48421
 Alpha virt. eigenvalues --    0.48937   0.49254   0.49667   0.49882   0.51105
 Alpha virt. eigenvalues --    0.51996   0.52930   0.53356   0.54100   0.54286
 Alpha virt. eigenvalues --    0.55340   0.56890   0.57617   0.58135   0.58437
 Alpha virt. eigenvalues --    0.58924   0.59277   0.59724   0.60457   0.61241
 Alpha virt. eigenvalues --    0.61636   0.62793   0.62822   0.63257   0.63505
 Alpha virt. eigenvalues --    0.64086   0.65021   0.65867   0.66613   0.66746
 Alpha virt. eigenvalues --    0.67481   0.68283   0.68631   0.68873   0.69297
 Alpha virt. eigenvalues --    0.69538   0.70112   0.70200   0.71395   0.71774
 Alpha virt. eigenvalues --    0.72428   0.72834   0.73806   0.73994   0.74578
 Alpha virt. eigenvalues --    0.75554   0.75676   0.76105   0.76477   0.76940
 Alpha virt. eigenvalues --    0.77440   0.77748   0.78217   0.79246   0.79777
 Alpha virt. eigenvalues --    0.80331   0.81118   0.81915   0.82944   0.83260
 Alpha virt. eigenvalues --    0.83785   0.84370   0.85439   0.85892   0.86965
 Alpha virt. eigenvalues --    0.87464   0.88299   0.89616   0.89919   0.90361
 Alpha virt. eigenvalues --    0.91597   0.91916   0.92345   0.93199   0.93715
 Alpha virt. eigenvalues --    0.95333   0.95973   0.96010   0.96324   0.97506
 Alpha virt. eigenvalues --    0.97748   0.98452   0.99188   0.99712   1.00838
 Alpha virt. eigenvalues --    1.01420   1.02786   1.03879   1.04839   1.05654
 Alpha virt. eigenvalues --    1.06550   1.07202   1.08970   1.09620   1.10208
 Alpha virt. eigenvalues --    1.11904   1.12212   1.12866   1.13505   1.15088
 Alpha virt. eigenvalues --    1.16340   1.17652   1.17885   1.19179   1.20265
 Alpha virt. eigenvalues --    1.21906   1.22055   1.22907   1.24221   1.24594
 Alpha virt. eigenvalues --    1.25420   1.26117   1.26555   1.27861   1.28214
 Alpha virt. eigenvalues --    1.29450   1.31125   1.32013   1.32481   1.32865
 Alpha virt. eigenvalues --    1.34237   1.35858   1.37328   1.37525   1.38186
 Alpha virt. eigenvalues --    1.38455   1.41058   1.42376   1.44324   1.46801
 Alpha virt. eigenvalues --    1.48051   1.49200   1.50727   1.51270   1.53263
 Alpha virt. eigenvalues --    1.54142   1.55058   1.57385   1.58404   1.58653
 Alpha virt. eigenvalues --    1.59785   1.60080   1.61824   1.62378   1.64379
 Alpha virt. eigenvalues --    1.64621   1.65233   1.67257   1.67568   1.68778
 Alpha virt. eigenvalues --    1.69126   1.70072   1.70644   1.71672   1.72768
 Alpha virt. eigenvalues --    1.74501   1.74715   1.75577   1.77149   1.78806
 Alpha virt. eigenvalues --    1.80557   1.80946   1.81951   1.82463   1.84532
 Alpha virt. eigenvalues --    1.85109   1.85883   1.88325   1.89305   1.90469
 Alpha virt. eigenvalues --    1.91565   1.93160   1.94965   1.95512   1.96846
 Alpha virt. eigenvalues --    1.97590   1.97865   1.99721   2.00693   2.02821
 Alpha virt. eigenvalues --    2.05141   2.06176   2.07162   2.07912   2.09329
 Alpha virt. eigenvalues --    2.10480   2.10794   2.11313   2.13554   2.14492
 Alpha virt. eigenvalues --    2.15286   2.15795   2.16967   2.20484   2.21709
 Alpha virt. eigenvalues --    2.22596   2.24268   2.24730   2.26983   2.27689
 Alpha virt. eigenvalues --    2.29063   2.29614   2.30801   2.32580   2.33029
 Alpha virt. eigenvalues --    2.35775   2.36097   2.37300   2.39424   2.40571
 Alpha virt. eigenvalues --    2.42788   2.43878   2.45025   2.46905   2.48020
 Alpha virt. eigenvalues --    2.49802   2.51371   2.51533   2.53810   2.55801
 Alpha virt. eigenvalues --    2.58009   2.59046   2.63392   2.63781   2.70577
 Alpha virt. eigenvalues --    2.73606   2.75579   2.79281   2.83775   2.85100
 Alpha virt. eigenvalues --    2.87347   2.88601   2.91849   2.94920   2.99388
 Alpha virt. eigenvalues --    3.00631   3.02129   3.04016   3.06446   3.22836
 Alpha virt. eigenvalues --    3.24622   3.30521   3.34590   3.45227   3.54401
 Alpha virt. eigenvalues --    3.61415   3.75117   3.81638   4.12400   4.24645
          Condensed to atoms (all electrons):
               1          2          3          4          5          6
     1  C   10.205295  -2.229610  -0.969621  -0.856072  -0.298890  -0.334941
     2  C   -2.229610  10.721407  -2.200561   0.562425   0.310862   0.267261
     3  C   -0.969621  -2.200561  14.254573  -0.932441  -1.644378  -0.097195
     4  C   -0.856072   0.562425  -0.932441   6.040574   0.169024   0.028119
     5  C   -0.298890   0.310862  -1.644378   0.169024   7.132362   0.007917
     6  H   -0.334941   0.267261  -0.097195   0.028119   0.007917   1.645042
     7  S   -0.592085   0.087306  -0.465927   0.116261   0.460636  -0.004861
     8  H    0.059532   0.108734  -0.026890   0.032199   0.157819  -0.068043
     9  C    0.580091  -1.081551  -1.690290  -0.073317   0.083981   0.064272
    10  S    0.011754  -0.041897  -0.551398  -0.073817   0.028194   0.001336
    11  C    0.036403  -0.011013  -0.426912  -0.065241   0.017640   0.003186
    12  C   -0.044553   0.048581   0.677691   0.147600   0.000280  -0.003979
    13  C   -0.208724   0.375474  -0.543828  -0.194650  -0.107751  -0.014919
    14  H    0.022731  -0.015575   0.118088   0.049854  -0.003475   0.000221
    15  S   -0.002179   0.007113  -0.082656  -0.005799  -0.000472  -0.000057
    16  C   -0.000224  -0.008383   0.030254  -0.002512   0.000464  -0.000018
    17  C    0.002865   0.005314  -0.426042  -0.021599  -0.002000  -0.000004
    18  H   -0.000050   0.000012  -0.000258  -0.000056   0.000024  -0.000005
    19  H   -0.000133  -0.000095  -0.013600  -0.000645  -0.000011  -0.000003
    20  H   -0.028605   0.037188  -0.024961   0.325542   0.013848  -0.007225
    21  H   -0.050123   0.179241   0.126503  -0.013665  -0.044194   0.002464
    22  H   -0.023960   0.070699  -0.028660   0.272916   0.031903  -0.006582
               7          8          9         10         11         12
     1  C   -0.592085   0.059532   0.580091   0.011754   0.036403  -0.044553
     2  C    0.087306   0.108734  -1.081551  -0.041897  -0.011013   0.048581
     3  C   -0.465927  -0.026890  -1.690290  -0.551398  -0.426912   0.677691
     4  C    0.116261   0.032199  -0.073317  -0.073817  -0.065241   0.147600
     5  C    0.460636   0.157819   0.083981   0.028194   0.017640   0.000280
     6  H   -0.004861  -0.068043   0.064272   0.001336   0.003186  -0.003979
     7  S   16.308620  -0.156035  -0.345494   0.201559   0.029091   0.013092
     8  H   -0.156035   1.259783  -0.011776   0.001099  -0.000415   0.001493
     9  C   -0.345494  -0.011776  12.896223   0.310650   0.122091  -0.861914
    10  S    0.201559   0.001099   0.310650  16.529811   0.391369  -0.519481
    11  C    0.029091  -0.000415   0.122091   0.391369  11.234699  -0.651959
    12  C    0.013092   0.001493  -0.861914  -0.519481  -0.651959  11.990274
    13  C   -0.029426  -0.000643  -3.510824  -0.524520  -1.697643  -2.861172
    14  H    0.009753   0.000027   0.077657   0.027953  -0.049744   0.676814
    15  S    0.003423  -0.000051  -0.274675   0.090401  -0.114141  -0.296489
    16  C    0.004512   0.000052   0.070237  -0.091518  -0.130867  -0.900075
    17  C    0.014496  -0.000108  -0.779527  -0.203134  -2.585583  -1.104773
    18  H    0.000247   0.000004   0.004627   0.007218   0.050831  -0.032199
    19  H    0.002207  -0.000005   0.125040   0.014575   0.633143   0.045831
    20  H    0.004955   0.001622  -0.000283  -0.003648  -0.003256   0.005576
    21  H    0.006330  -0.000480  -0.121303   0.008756  -0.005076   0.040355
    22  H    0.003642   0.001557   0.016271   0.001918  -0.000767  -0.003485
              13         14         15         16         17         18
     1  C   -0.208724   0.022731  -0.002179  -0.000224   0.002865  -0.000050
     2  C    0.375474  -0.015575   0.007113  -0.008383   0.005314   0.000012
     3  C   -0.543828   0.118088  -0.082656   0.030254  -0.426042  -0.000258
     4  C   -0.194650   0.049854  -0.005799  -0.002512  -0.021599  -0.000056
     5  C   -0.107751  -0.003475  -0.000472   0.000464  -0.002000   0.000024
     6  H   -0.014919   0.000221  -0.000057  -0.000018  -0.000004  -0.000005
     7  S   -0.029426   0.009753   0.003423   0.004512   0.014496   0.000247
     8  H   -0.000643   0.000027  -0.000051   0.000052  -0.000108   0.000004
     9  C   -3.510824   0.077657  -0.274675   0.070237  -0.779527   0.004627
    10  S   -0.524520   0.027953   0.090401  -0.091518  -0.203134   0.007218
    11  C   -1.697643  -0.049744  -0.114141  -0.130867  -2.585583   0.050831
    12  C   -2.861172   0.676814  -0.296489  -0.900075  -1.104773  -0.032199
    13  C   15.603869  -1.113054   0.078870  -0.166750   0.724554   0.033588
    14  H   -1.113054   1.732860  -0.037506   0.018277  -0.041115   0.001737
    15  S    0.078870  -0.037506  15.976664   0.177536   0.017688  -0.161253
    16  C   -0.166750   0.018277   0.177536   6.859099   0.124370   0.178513
    17  C    0.724554  -0.041115   0.017688   0.124370  10.216960   0.071330
    18  H    0.033588   0.001737  -0.161253   0.178513   0.071330   1.293438
    19  H   -0.074311  -0.002364  -0.005074  -0.112968  -0.653566  -0.068276
    20  H   -0.024581   0.000666  -0.000131  -0.000219  -0.000008   0.000020
    21  H    0.078922   0.003281   0.000986   0.001092  -0.013113  -0.000155
    22  H   -0.020185   0.001099  -0.000686   0.000019  -0.000785   0.000018
              19         20         21         22
     1  C   -0.000133  -0.028605  -0.050123  -0.023960
     2  C   -0.000095   0.037188   0.179241   0.070699
     3  C   -0.013600  -0.024961   0.126503  -0.028660
     4  C   -0.000645   0.325542  -0.013665   0.272916
     5  C   -0.000011   0.013848  -0.044194   0.031903
     6  H   -0.000003  -0.007225   0.002464  -0.006582
     7  S    0.002207   0.004955   0.006330   0.003642
     8  H   -0.000005   0.001622  -0.000480   0.001557
     9  C    0.125040  -0.000283  -0.121303   0.016271
    10  S    0.014575  -0.003648   0.008756   0.001918
    11  C    0.633143  -0.003256  -0.005076  -0.000767
    12  C    0.045831   0.005576   0.040355  -0.003485
    13  C   -0.074311  -0.024581   0.078922  -0.020185
    14  H   -0.002364   0.000666   0.003281   0.001099
    15  S   -0.005074  -0.000131   0.000986  -0.000686
    16  C   -0.112968  -0.000219   0.001092   0.000019
    17  C   -0.653566  -0.000008  -0.013113  -0.000785
    18  H   -0.068276   0.000020  -0.000155   0.000018
    19  H    1.439548  -0.000025   0.000181  -0.000024
    20  H   -0.000025   0.932250  -0.140884  -0.110196
    21  H    0.000181  -0.140884   1.176154  -0.121929
    22  H   -0.000024  -0.110196  -0.121929   0.822064
 Mulliken charges:
               1
     1  C    0.721097
     2  C   -1.192933
     3  C    0.918512
     4  C    0.495300
     5  C   -0.313783
     6  H   -0.481986
     7  S    0.327697
     8  H   -0.359476
     9  C    0.399813
    10  S    0.382819
    11  C   -0.775835
    12  C   -0.367509
    13  C    0.197702
    14  H   -0.478185
    15  S    0.628488
    16  C   -0.050890
    17  C    0.653779
    18  H   -0.379355
    19  H   -0.329424
    20  H    0.022356
    21  H   -0.113343
    22  H    0.095156
 Sum of Mulliken charges =  -0.00000
 Mulliken charges with hydrogens summed into heavy atoms:
               1
     1  C    0.239111
     2  C   -1.192933
     3  C    0.918512
     4  C    0.499469
     5  C   -0.673259
     7  S    0.327697
     9  C    0.399813
    10  S    0.382819
    11  C   -0.775835
    12  C   -0.367509
    13  C   -0.280483
    15  S    0.628488
    16  C   -0.430245
    17  C    0.324355
 Electronic spatial extent (au):  <R**2>=           4340.7909
 Charge=             -0.0000 electrons
 Dipole moment (field-independent basis, Debye):
    X=              0.3660    Y=              1.0963    Z=              0.6226  Tot=              1.3128
 Quadrupole moment (field-independent basis, Debye-Ang):
   XX=            -86.8832   YY=           -102.8731   ZZ=           -107.0928
   XY=              5.8464   XZ=             -2.0963   YZ=             -1.2451
 Traceless Quadrupole moment (field-independent basis, Debye-Ang):
   XX=             12.0665   YY=             -3.9234   ZZ=             -8.1431
   XY=              5.8464   XZ=             -2.0963   YZ=             -1.2451
 Octapole moment (field-independent basis, Debye-Ang**2):
  XXX=              0.5471  YYY=              5.7176  ZZZ=              3.1891  XYY=              6.8954
  XXY=            -13.3621  XXZ=              9.0684  XZZ=              0.4033  YZZ=              1.0576
  YYZ=              2.3922  XYZ=             17.7812
 Hexadecapole moment (field-independent basis, Debye-Ang**3):
 XXXX=          -4131.6877 YYYY=           -845.7757 ZZZZ=           -497.1111 XXXY=             30.8838
 XXXZ=            -69.6729 YYYX=             24.2950 YYYZ=             -9.8856 ZZZX=              4.4732
 ZZZY=             -4.2890 XXYY=           -930.2947 XXZZ=           -922.6179 YYZZ=           -209.4821
 XXYZ=             11.0946 YYXZ=            -10.2220 ZZXY=              8.9095
 N-N= 1.122959952819D+03 E-N=-6.066132085399D+03  KE= 1.613726330797D+03
 Unable to Open any file for archive entry.
 1\1\GINC-CX3-2-22\FOpt\RHF\Aug-CC-pVDZ\C11H8S3\NS5018\26-Oct-2021\0\\#
  opt=modredundant hf/aug-cc-pvdz\\pBTTT_-110.pdb\\0,1\C,-4.189087778,-
 1.4521386517,-0.0485743632\C,-2.9142735953,-0.9971859388,-0.5502117713
 \C,-2.0173845821,-2.0103590092,-0.6424119576\C,-2.6690014163,0.4394713
 402,-0.927252061\C,-4.2229748515,-2.7743359392,0.2092255152\H,-5.03405
 85696,-0.7959002819,0.0966589393\S,-2.7107626249,-3.532642179,-0.13360
 73163\H,-5.0517767158,-3.3516871448,0.5827417427\C,-0.6165168656,-1.94
 92653011,-1.0983717826\S,-0.1418990134,-2.6749290107,-2.6294492603\C,1
 .5034487982,-2.1751526137,-2.3877561377\C,1.6432111311,-1.499156952,-1
 .2111388636\C,0.4269904152,-1.3712603139,-0.4629300794\H,0.3370224023,
 -0.8868136578,0.4955355213\S,3.2894195755,-0.9998096122,-0.9667483598\
 C,3.7530747362,-1.7273944886,-2.4827852937\C,2.7240541783,-2.311870515
 8,-3.1307413782\H,4.7792159142,-1.675521624,-2.8050702405\H,2.81808619
 84,-2.8124824458,-4.0805165766\H,-3.4418167165,0.786559713,-1.61403350
 53\H,-1.7026735321,0.5665659381,-1.4060998553\H,-2.7012970883,1.080308
 6891,-0.0444629163\\Version=ES64L-G16RevC.01\State=1-A\HF=-1613.814691
 \RMSD=4.721e-09\RMSF=1.895e-05\Dipole=-0.1929758,0.4779017,-0.0336508\
 Quadrupole=6.8221542,-4.299149,-2.5230052,-2.1504158,-6.3274551,2.1551
 834\PG=C01 [X(C11H8S3)]\\@
 The archive entry for this job was punched.


 THE LENGTH OF A MEETING IS PROPORTIONAL TO THE
 SQUARE OF THE PARTICIPANTS.
 Job cpu time:       0 days 10 hours  4 minutes 43.3 seconds.
 Elapsed time:       0 days  1 hours 16 minutes 19.4 seconds.
 File lengths (MBytes):  RWF=    103 Int=      0 D2E=      0 Chk=     13 Scr=      1
 Normal termination of Gaussian 16 at Tue Oct 26 00:07:04 2021.
