 Entering Gaussian System, Link 0=g16
 Input=pBTTT_-10.gjf
 Output=pBTTT_-10.log
 Initial command:
 /apps/gaussian/g16-c01-avx/g16/l1.exe "/tmp/pbs.4762177[165].pbs/Gau-598350.inp" -scrdir="/tmp/pbs.4762177[165].pbs/"
 Entering Link 1 = /apps/gaussian/g16-c01-avx/g16/l1.exe PID=    598351.
  
 Copyright (c) 1988-2019, Gaussian, Inc.  All Rights Reserved.
  
 This is part of the Gaussian(R) 16 program.  It is based on
 the Gaussian(R) 09 system (copyright 2009, Gaussian, Inc.),
 the Gaussian(R) 03 system (copyright 2003, Gaussian, Inc.),
 the Gaussian(R) 98 system (copyright 1998, Gaussian, Inc.),
 the Gaussian(R) 94 system (copyright 1995, Gaussian, Inc.),
 the Gaussian 92(TM) system (copyright 1992, Gaussian, Inc.),
 the Gaussian 90(TM) system (copyright 1990, Gaussian, Inc.),
 the Gaussian 88(TM) system (copyright 1988, Gaussian, Inc.),
 the Gaussian 86(TM) system (copyright 1986, Carnegie Mellon
 University), and the Gaussian 82(TM) system (copyright 1983,
 Carnegie Mellon University). Gaussian is a federally registered
 trademark of Gaussian, Inc.
  
 This software contains proprietary and confidential information,
 including trade secrets, belonging to Gaussian, Inc.
  
 This software is provided under written license and may be
 used, copied, transmitted, or stored only in accord with that
 written license.
  
 The following legend is applicable only to US Government
 contracts under FAR:
  
                    RESTRICTED RIGHTS LEGEND
  
 Use, reproduction and disclosure by the US Government is
 subject to restrictions as set forth in subparagraphs (a)
 and (c) of the Commercial Computer Software - Restricted
 Rights clause in FAR 52.227-19.
  
 Gaussian, Inc.
 340 Quinnipiac St., Bldg. 40, Wallingford CT 06492
  
  
 ---------------------------------------------------------------
 Warning -- This program may not be used in any manner that
 competes with the business of Gaussian, Inc. or will provide
 assistance to any competitor of Gaussian, Inc.  The licensee
 of this program is prohibited from giving any competitor of
 Gaussian, Inc. access to this program.  By using this program,
 the user acknowledges that Gaussian, Inc. is engaged in the
 business of creating and licensing software in the field of
 computational chemistry and represents and warrants to the
 licensee that it is not a competitor of Gaussian, Inc. and that
 it will not use this program in any manner prohibited above.
 ---------------------------------------------------------------
  

 Cite this work as:
 Gaussian 16, Revision C.01,
 M. J. Frisch, G. W. Trucks, H. B. Schlegel, G. E. Scuseria, 
 M. A. Robb, J. R. Cheeseman, G. Scalmani, V. Barone, 
 G. A. Petersson, H. Nakatsuji, X. Li, M. Caricato, A. V. Marenich, 
 J. Bloino, B. G. Janesko, R. Gomperts, B. Mennucci, H. P. Hratchian, 
 J. V. Ortiz, A. F. Izmaylov, J. L. Sonnenberg, D. Williams-Young, 
 F. Ding, F. Lipparini, F. Egidi, J. Goings, B. Peng, A. Petrone, 
 T. Henderson, D. Ranasinghe, V. G. Zakrzewski, J. Gao, N. Rega, 
 G. Zheng, W. Liang, M. Hada, M. Ehara, K. Toyota, R. Fukuda, 
 J. Hasegawa, M. Ishida, T. Nakajima, Y. Honda, O. Kitao, H. Nakai, 
 T. Vreven, K. Throssell, J. A. Montgomery, Jr., J. E. Peralta, 
 F. Ogliaro, M. J. Bearpark, J. J. Heyd, E. N. Brothers, K. N. Kudin, 
 V. N. Staroverov, T. A. Keith, R. Kobayashi, J. Normand, 
 K. Raghavachari, A. P. Rendell, J. C. Burant, S. S. Iyengar, 
 J. Tomasi, M. Cossi, J. M. Millam, M. Klene, C. Adamo, R. Cammi, 
 J. W. Ochterski, R. L. Martin, K. Morokuma, O. Farkas, 
 J. B. Foresman, and D. J. Fox, Gaussian, Inc., Wallingford CT, 2019.
 
 ******************************************
 Gaussian 16:  ES64L-G16RevC.01  3-Jul-2019
                26-Oct-2021 
 ******************************************
 %mem=100GB
 %nprocshared=8
 Will use up to    8 processors via shared memory.
 ---------------------------------
 # opt=modredundant hf/aug-cc-pvdz
 ---------------------------------
 1/18=120,19=15,38=1/1,3;
 2/9=110,12=2,17=6,18=5,40=1/2;
 3/5=16,7=10,11=9,25=1,30=1,71=1/1,2,3;
 4//1;
 5/5=2,38=5/2;
 6/7=2,8=2,9=2,10=2,28=1/1;
 7//1,2,3,16;
 1/18=20,19=15/3(2);
 2/9=110/2;
 99//99;
 2/9=110/2;
 3/5=16,7=10,11=9,25=1,30=1,71=1/1,2,3;
 4/5=5,16=3,69=1/1;
 5/5=2,38=5/2;
 7//1,2,3,16;
 1/18=20,19=15/3(-5);
 2/9=110/2;
 6/7=2,8=2,9=2,10=2,19=2,28=1/1;
 99/9=1/99;
 -------------
 pBTTT_-10.pdb
 -------------
 Symbolic Z-matrix:
 Charge =  0 Multiplicity = 1
 C                    -4.25     -1.36     -0.21 
 C                    -2.93     -0.95     -0.61 
 C                    -1.97     -2.05     -0.62 
 C                    -2.66      0.47     -0.96 
 C                    -4.33     -2.76      0.1 
 H                    -5.1      -0.7      -0.14 
 S                    -2.8      -3.56     -0.11 
 H                    -5.23     -3.27      0.41 
 C                    -0.56     -2.13     -0.97 
 S                     0.297    -0.776    -1.768 
 C                     1.797    -1.638    -1.808 
 C                     1.696    -2.942    -1.203 
 C                     0.38     -3.223    -0.713 
 H                     0.154    -4.074    -0.089 
 S                     3.212    -3.511    -0.588 
 C                     4.028    -2.043    -1.128 
 C                     3.12     -1.11     -1.757 
 H                     5.044    -1.806    -0.844 
 H                     3.364    -0.062    -1.903 
 H                    -3.55      1.09     -0.83 
 H                    -2.35      0.56     -2. 
 H                    -1.88      0.89     -0.31 
 
 The following ModRedundant input section has been read:
 D       2       3       9      10 F                                           
 

 GradGradGradGradGradGradGradGradGradGradGradGradGradGradGradGradGradGrad
 Berny optimization.
 Initialization pass.
                           ----------------------------
                           !    Initial Parameters    !
                           ! (Angstroms and Degrees)  !
 --------------------------                            --------------------------
 ! Name  Definition              Value          Derivative Info.                !
 --------------------------------------------------------------------------------
 ! R1    R(1,2)                  1.4389         estimate D2E/DX2                !
 ! R2    R(1,5)                  1.4361         estimate D2E/DX2                !
 ! R3    R(1,6)                  1.0784         estimate D2E/DX2                !
 ! R4    R(2,3)                  1.46           estimate D2E/DX2                !
 ! R5    R(2,4)                  1.4872         estimate D2E/DX2                !
 ! R6    R(3,7)                  1.797          estimate D2E/DX2                !
 ! R7    R(3,9)                  1.455          estimate D2E/DX2                !
 ! R8    R(4,20)                 1.0924         estimate D2E/DX2                !
 ! R9    R(4,21)                 1.0889         estimate D2E/DX2                !
 ! R10   R(4,22)                 1.0988         estimate D2E/DX2                !
 ! R11   R(5,7)                  1.7393         estimate D2E/DX2                !
 ! R12   R(5,8)                  1.0799         estimate D2E/DX2                !
 ! R13   R(9,10)                 1.7901         estimate D2E/DX2                !
 ! R14   R(9,13)                 1.4643         estimate D2E/DX2                !
 ! R15   R(10,11)                1.7305         estimate D2E/DX2                !
 ! R16   R(11,12)                1.4411         estimate D2E/DX2                !
 ! R17   R(11,17)                1.4254         estimate D2E/DX2                !
 ! R18   R(12,13)                1.4321         estimate D2E/DX2                !
 ! R19   R(12,15)                1.7321         estimate D2E/DX2                !
 ! R20   R(13,14)                1.0792         estimate D2E/DX2                !
 ! R21   R(15,16)                1.7642         estimate D2E/DX2                !
 ! R22   R(16,17)                1.4459         estimate D2E/DX2                !
 ! R23   R(16,18)                1.0812         estimate D2E/DX2                !
 ! R24   R(17,19)                1.0859         estimate D2E/DX2                !
 ! A1    A(2,1,5)              112.8843         estimate D2E/DX2                !
 ! A2    A(2,1,6)              124.5209         estimate D2E/DX2                !
 ! A3    A(5,1,6)              122.5942         estimate D2E/DX2                !
 ! A4    A(1,2,3)              112.9799         estimate D2E/DX2                !
 ! A5    A(1,2,4)              120.2665         estimate D2E/DX2                !
 ! A6    A(3,2,4)              126.7536         estimate D2E/DX2                !
 ! A7    A(2,3,7)              109.1138         estimate D2E/DX2                !
 ! A8    A(2,3,9)              132.8639         estimate D2E/DX2                !
 ! A9    A(7,3,9)              118.0132         estimate D2E/DX2                !
 ! A10   A(2,4,20)             111.468          estimate D2E/DX2                !
 ! A11   A(2,4,21)             110.8154         estimate D2E/DX2                !
 ! A12   A(2,4,22)             110.7706         estimate D2E/DX2                !
 ! A13   A(20,4,21)            107.3779         estimate D2E/DX2                !
 ! A14   A(20,4,22)            106.918          estimate D2E/DX2                !
 ! A15   A(21,4,22)            109.3476         estimate D2E/DX2                !
 ! A16   A(1,5,7)              111.9209         estimate D2E/DX2                !
 ! A17   A(1,5,8)              124.6643         estimate D2E/DX2                !
 ! A18   A(7,5,8)              123.4062         estimate D2E/DX2                !
 ! A19   A(3,7,5)               93.0997         estimate D2E/DX2                !
 ! A20   A(3,9,10)             121.9769         estimate D2E/DX2                !
 ! A21   A(3,9,13)             128.3818         estimate D2E/DX2                !
 ! A22   A(10,9,13)            109.602          estimate D2E/DX2                !
 ! A23   A(9,10,11)             92.7804         estimate D2E/DX2                !
 ! A24   A(10,11,12)           112.3516         estimate D2E/DX2                !
 ! A25   A(10,11,17)           128.2574         estimate D2E/DX2                !
 ! A26   A(12,11,17)           112.6579         estimate D2E/DX2                !
 ! A27   A(11,12,13)           112.6814         estimate D2E/DX2                !
 ! A28   A(11,12,15)           112.6423         estimate D2E/DX2                !
 ! A29   A(13,12,15)           128.1944         estimate D2E/DX2                !
 ! A30   A(9,13,12)            112.5431         estimate D2E/DX2                !
 ! A31   A(9,13,14)            123.7544         estimate D2E/DX2                !
 ! A32   A(12,13,14)           123.0248         estimate D2E/DX2                !
 ! A33   A(12,15,16)            91.3063         estimate D2E/DX2                !
 ! A34   A(15,16,17)           112.3105         estimate D2E/DX2                !
 ! A35   A(15,16,18)           122.4532         estimate D2E/DX2                !
 ! A36   A(17,16,18)           124.258          estimate D2E/DX2                !
 ! A37   A(11,17,16)           111.0644         estimate D2E/DX2                !
 ! A38   A(11,17,19)           124.1424         estimate D2E/DX2                !
 ! A39   A(16,17,19)           122.6934         estimate D2E/DX2                !
 ! D1    D(5,1,2,3)              0.3915         estimate D2E/DX2                !
 ! D2    D(5,1,2,4)           -179.5973         estimate D2E/DX2                !
 ! D3    D(6,1,2,3)           -179.8811         estimate D2E/DX2                !
 ! D4    D(6,1,2,4)              0.13           estimate D2E/DX2                !
 ! D5    D(2,1,5,7)             -0.3845         estimate D2E/DX2                !
 ! D6    D(2,1,5,8)           -179.3471         estimate D2E/DX2                !
 ! D7    D(6,1,5,7)            179.8822         estimate D2E/DX2                !
 ! D8    D(6,1,5,8)              0.9196         estimate D2E/DX2                !
 ! D9    D(1,2,3,7)             -0.2224         estimate D2E/DX2                !
 ! D10   D(1,2,3,9)            178.6265         estimate D2E/DX2                !
 ! D11   D(4,2,3,7)            179.7656         estimate D2E/DX2                !
 ! D12   D(4,2,3,9)             -1.3855         estimate D2E/DX2                !
 ! D13   D(1,2,4,20)             2.1641         estimate D2E/DX2                !
 ! D14   D(1,2,4,21)          -117.3645         estimate D2E/DX2                !
 ! D15   D(1,2,4,22)           121.0843         estimate D2E/DX2                !
 ! D16   D(3,2,4,20)          -177.8231         estimate D2E/DX2                !
 ! D17   D(3,2,4,21)            62.6483         estimate D2E/DX2                !
 ! D18   D(3,2,4,22)           -58.9029         estimate D2E/DX2                !
 ! D19   D(2,3,7,5)              0.0033         estimate D2E/DX2                !
 ! D20   D(9,3,7,5)           -179.041          estimate D2E/DX2                !
 ! D21   D(2,3,9,10)           -10.0178         Frozen                          !
 ! D22   D(2,3,9,13)           167.4564         estimate D2E/DX2                !
 ! D23   D(7,3,9,10)           168.7502         estimate D2E/DX2                !
 ! D24   D(7,3,9,13)           -13.7756         estimate D2E/DX2                !
 ! D25   D(1,5,7,3)              0.2153         estimate D2E/DX2                !
 ! D26   D(8,5,7,3)            179.1932         estimate D2E/DX2                !
 ! D27   D(3,9,10,11)          179.7576         estimate D2E/DX2                !
 ! D28   D(13,9,10,11)           1.8592         estimate D2E/DX2                !
 ! D29   D(3,9,13,12)         -179.8324         estimate D2E/DX2                !
 ! D30   D(3,9,13,14)           -9.033          estimate D2E/DX2                !
 ! D31   D(10,9,13,12)          -2.1067         estimate D2E/DX2                !
 ! D32   D(10,9,13,14)         168.6928         estimate D2E/DX2                !
 ! D33   D(9,10,11,12)          -1.1749         estimate D2E/DX2                !
 ! D34   D(9,10,11,17)        -149.899          estimate D2E/DX2                !
 ! D35   D(10,11,12,13)          0.1452         estimate D2E/DX2                !
 ! D36   D(10,11,12,15)       -154.0725         estimate D2E/DX2                !
 ! D37   D(17,11,12,13)        153.9291         estimate D2E/DX2                !
 ! D38   D(17,11,12,15)         -0.2886         estimate D2E/DX2                !
 ! D39   D(10,11,17,16)        149.7767         estimate D2E/DX2                !
 ! D40   D(10,11,17,19)        -14.0752         estimate D2E/DX2                !
 ! D41   D(12,11,17,16)          1.1298         estimate D2E/DX2                !
 ! D42   D(12,11,17,19)       -162.7221         estimate D2E/DX2                !
 ! D43   D(11,12,13,9)           1.2999         estimate D2E/DX2                !
 ! D44   D(11,12,13,14)       -169.5771         estimate D2E/DX2                !
 ! D45   D(15,12,13,9)         150.5842         estimate D2E/DX2                !
 ! D46   D(15,12,13,14)        -20.2928         estimate D2E/DX2                !
 ! D47   D(11,12,15,16)         -0.4855         estimate D2E/DX2                !
 ! D48   D(13,12,15,16)       -149.7795         estimate D2E/DX2                !
 ! D49   D(12,15,16,17)          1.1343         estimate D2E/DX2                !
 ! D50   D(12,15,16,18)        170.2557         estimate D2E/DX2                !
 ! D51   D(15,16,17,11)         -1.4902         estimate D2E/DX2                !
 ! D52   D(15,16,17,19)        162.636          estimate D2E/DX2                !
 ! D53   D(18,16,17,11)       -170.3808         estimate D2E/DX2                !
 ! D54   D(18,16,17,19)         -6.2546         estimate D2E/DX2                !
 --------------------------------------------------------------------------------
 Trust Radius=3.00D-01 FncErr=1.00D-07 GrdErr=1.00D-07 EigMax=2.50D+02 EigMin=1.00D-04
 Number of steps in this run=    127 maximum allowed number of steps=    132.
 GradGradGradGradGradGradGradGradGradGradGradGradGradGradGradGradGradGrad

                          Input orientation:                          
 ---------------------------------------------------------------------
 Center     Atomic      Atomic             Coordinates (Angstroms)
 Number     Number       Type             X           Y           Z
 ---------------------------------------------------------------------
      1          6           0       -4.250000   -1.360000   -0.210000
      2          6           0       -2.930000   -0.950000   -0.610000
      3          6           0       -1.970000   -2.050000   -0.620000
      4          6           0       -2.660000    0.470000   -0.960000
      5          6           0       -4.330000   -2.760000    0.100000
      6          1           0       -5.100000   -0.700000   -0.140000
      7         16           0       -2.800000   -3.560000   -0.110000
      8          1           0       -5.230000   -3.270000    0.410000
      9          6           0       -0.560000   -2.130000   -0.970000
     10         16           0        0.297000   -0.776000   -1.768000
     11          6           0        1.797000   -1.638000   -1.808000
     12          6           0        1.696000   -2.942000   -1.203000
     13          6           0        0.380000   -3.223000   -0.713000
     14          1           0        0.154000   -4.074000   -0.089000
     15         16           0        3.212000   -3.511000   -0.588000
     16          6           0        4.028000   -2.043000   -1.128000
     17          6           0        3.120000   -1.110000   -1.757000
     18          1           0        5.044000   -1.806000   -0.844000
     19          1           0        3.364000   -0.062000   -1.903000
     20          1           0       -3.550000    1.090000   -0.830000
     21          1           0       -2.350000    0.560000   -2.000000
     22          1           0       -1.880000    0.890000   -0.310000
 ---------------------------------------------------------------------
                    Distance matrix (angstroms):
                    1          2          3          4          5
     1  C    0.000000
     2  C    1.438923   0.000000
     3  C    2.417147   1.460034   0.000000
     4  C    2.537617   1.487212   2.634787   0.000000
     5  C    1.436141   2.395871   2.567509   3.787532   0.000000
     6  H    1.078425   2.234346   3.442354   2.827525   2.212261
     7  S    2.636759   2.660639   1.796970   4.121044   1.739253
     8  H    2.234480   3.422397   3.630000   4.740190   1.079907
     9  C    3.845335   2.671872   1.454991   3.342170   3.969219
    10  S    4.841862   3.432895   2.842581   3.308962   5.369805
    11  C    6.260759   4.924741   3.971319   5.002761   6.514559
    12  C    6.232471   5.071448   3.817736   5.538549   6.167950
    13  C    5.016042   4.016620   2.628132   4.789662   4.802024
    14  H    5.174520   4.420619   2.981596   5.415272   4.676385
    15  S    7.775032   6.654575   5.384113   7.104022   7.610460
    16  C    8.356704   7.062346   6.019478   7.146519   8.478103
    17  C    7.534760   6.159847   5.299478   6.044833   7.853244
    18  H    9.326270   8.023227   7.021817   8.034006   9.469590
    19  H    7.907215   6.486511   5.835220   6.120527   8.395764
    20  H    2.622384   2.143455   3.521378   1.092428   4.036806
    21  H    3.240447   2.132745   2.976726   1.088944   4.399182
    22  H    3.269465   2.139650   2.957668   1.098772   4.415099
                    6          7          8          9         10
     6  H    0.000000
     7  S    3.670218   0.000000
     8  H    2.631406   2.501879   0.000000
     9  C    4.831708   2.793224   5.001290   0.000000
    10  S    5.637710   4.482302   6.442938   1.790131   0.000000
    11  C    7.157561   5.264000   7.547296   2.549462   1.730504
    12  C    7.234787   4.668039   7.118906   2.408977   2.639694
    13  C    6.060054   3.254163   5.721489   1.464342   2.666031
    14  H    6.244277   2.998458   5.466523   2.250576   3.703552
    15  S    8.785885   6.031171   8.504202   4.034981   4.167715
    16  C    9.279018   7.068182   9.464752   4.591544   3.991898
    17  C    8.387562   6.615248   8.892918   3.898996   2.842711
    18  H   10.228372   8.071159  10.453272   5.614772   4.944561
    19  H    8.669170   7.310660   9.460342   4.532647   3.151906
    20  H    2.466313   4.764808   4.834211   4.396374   4.377352
    21  H    3.551014   4.555107   5.363898   3.391327   2.974110
    22  H    3.595191   4.548505   5.389480   3.361309   3.104939
                   11         12         13         14         15
    11  C    0.000000
    12  C    1.441056   0.000000
    13  C    2.391472   1.432102   0.000000
    14  H    3.404189   2.213636   1.079191   0.000000
    15  S    2.645516   1.732121   2.849350   3.149180   0.000000
    16  C    2.367232   2.500410   3.856492   4.495816   1.764222
    17  C    1.425382   2.385564   3.614181   4.512724   2.672045
    18  H    3.391243   3.553657   4.876264   5.442972   2.515708
    19  H    2.224475   3.400974   4.506914   5.448930   3.694310
    20  H    6.081848   6.626965   5.836142   6.398093   8.182445
    21  H    4.697412   5.410114   4.839458   5.603204   7.035810
    22  H    4.706922   5.316902   4.710284   5.369105   6.736063
                   16         17         18         19         20
    16  C    0.000000
    17  C    1.445889   0.000000
    18  H    1.081240   2.240482   0.000000
    19  H    2.228426   1.085889   2.642994   0.000000
    20  H    8.205521   7.084365   9.068839   7.090968   0.000000
    21  H    6.943693   5.724408   7.848919   5.748573   1.757783
    22  H    6.646509   5.576182   7.449520   5.562687   1.760483
                   21         22
    21  H    0.000000
    22  H    1.784909   0.000000
 Stoichiometry    C11H8S3
 Framework group  C1[X(C11H8S3)]
 Deg. of freedom    60
 Full point group                 C1      NOp   1
 Largest Abelian subgroup         C1      NOp   1
 Largest concise Abelian subgroup C1      NOp   1
                         Standard orientation:                         
 ---------------------------------------------------------------------
 Center     Atomic      Atomic             Coordinates (Angstroms)
 Number     Number       Type             X           Y           Z
 ---------------------------------------------------------------------
      1          6           0       -4.077206    0.321540    0.253399
      2          6           0       -2.752915    0.882033    0.202416
      3          6           0       -1.717224   -0.122143   -0.022700
      4          6           0       -2.551419    2.345749    0.371925
      5          6           0       -4.087290   -1.104109    0.080413
      6          1           0       -4.977685    0.894273    0.408690
      7         16           0       -2.485803   -1.741252   -0.152587
      8          1           0       -4.977114   -1.715984    0.075736
      9          6           0       -0.272372   -0.037594   -0.171879
     10         16           0        0.571351    1.530250   -0.357799
     11          6           0        2.126482    0.777557   -0.456101
     12          6           0        2.050941   -0.655553   -0.325210
     13          6           0        0.709265   -1.123922   -0.147862
     14          1           0        0.472691   -2.139873    0.128777
     15         16           0        3.516499   -1.347504    0.286007
     16          6           0        4.278268    0.241441    0.372261
     17          6           0        3.387642    1.300612   -0.046708
     18          1           0        5.228866    0.403365    0.861368
     19          1           0        3.566402    2.345219    0.189930
     20          1           0       -3.495945    2.859679    0.564659
     21          1           0       -2.120400    2.783704   -0.527084
     22          1           0       -1.894602    2.552070    1.228268
 ---------------------------------------------------------------------
 Rotational constants (GHZ):           1.1867250           0.2796640           0.2303609
 Standard basis: Aug-CC-pVDZ (5D, 7F)
 There are   434 symmetry adapted cartesian basis functions of A   symmetry.
 There are   406 symmetry adapted basis functions of A   symmetry.
   406 basis functions,   804 primitive gaussians,   434 cartesian basis functions
    61 alpha electrons       61 beta electrons
       nuclear repulsion energy      1107.8221277806 Hartrees.
 NAtoms=   22 NActive=   22 NUniq=   22 SFac= 1.00D+00 NAtFMM=   60 NAOKFM=F Big=F
 Integral buffers will be    131072 words long.
 Raffenetti 1 integral format.
 Two-electron integral symmetry is turned on.
 One-electron integrals computed using PRISM.
 NBasis=   406 RedAO= T EigKep=  4.21D-06  NBF=   406
 NBsUse=   406 1.00D-06 EigRej= -1.00D+00 NBFU=   406
 ExpMin= 2.97D-02 ExpMax= 1.11D+05 ExpMxC= 1.07D+03 IAcc=3 IRadAn=         5 AccDes= 0.00D+00
 Harris functional with IExCor=  205 and IRadAn=       5 diagonalized for initial guess.
 HarFok:  IExCor=  205 AccDes= 0.00D+00 IRadAn=         5 IDoV= 1 UseB2=F ITyADJ=14
 ICtDFT=  3500011 ScaDFX=  1.000000  1.000000  1.000000  1.000000
 FoFCou: FMM=F IPFlag=           0 FMFlag=      100000 FMFlg1=           0
         NFxFlg=           0 DoJE=T BraDBF=F KetDBF=T FulRan=T
         wScrn=  0.000000 ICntrl=       500 IOpCl=  0 I1Cent=   200000004 NGrid=           0
         NMat0=    1 NMatS0=      1 NMatT0=    0 NMatD0=    1 NMtDS0=    0 NMtDT0=    0
 Petite list used in FoFCou.
 Requested convergence on RMS density matrix=1.00D-08 within 128 cycles.
 Requested convergence on MAX density matrix=1.00D-06.
 Requested convergence on             energy=1.00D-06.
 No special actions if energy rises.
 SCF Done:  E(RHF) =  -1613.75365903     A.U. after   18 cycles
            NFock= 18  Conv=0.99D-08     -V/T= 2.0009

 **********************************************************************

            Population analysis using the SCF Density.

 **********************************************************************

 Orbital symmetries:
       Occupied  (A) (A) (A) (A) (A) (A) (A) (A) (A) (A) (A) (A)
                 (A) (A) (A) (A) (A) (A) (A) (A) (A) (A) (A) (A)
                 (A) (A) (A) (A) (A) (A) (A) (A) (A) (A) (A) (A)
                 (A) (A) (A) (A) (A) (A) (A) (A) (A) (A) (A) (A)
                 (A) (A) (A) (A) (A) (A) (A) (A) (A) (A) (A) (A)
                 (A)
       Virtual   (A) (A) (A) (A) (A) (A) (A) (A) (A) (A) (A) (A)
                 (A) (A) (A) (A) (A) (A) (A) (A) (A) (A) (A) (A)
                 (A) (A) (A) (A) (A) (A) (A) (A) (A) (A) (A) (A)
                 (A) (A) (A) (A) (A) (A) (A) (A) (A) (A) (A) (A)
                 (A) (A) (A) (A) (A) (A) (A) (A) (A) (A) (A) (A)
                 (A) (A) (A) (A) (A) (A) (A) (A) (A) (A) (A) (A)
                 (A) (A) (A) (A) (A) (A) (A) (A) (A) (A) (A) (A)
                 (A) (A) (A) (A) (A) (A) (A) (A) (A) (A) (A) (A)
                 (A) (A) (A) (A) (A) (A) (A) (A) (A) (A) (A) (A)
                 (A) (A) (A) (A) (A) (A) (A) (A) (A) (A) (A) (A)
                 (A) (A) (A) (A) (A) (A) (A) (A) (A) (A) (A) (A)
                 (A) (A) (A) (A) (A) (A) (A) (A) (A) (A) (A) (A)
                 (A) (A) (A) (A) (A) (A) (A) (A) (A) (A) (A) (A)
                 (A) (A) (A) (A) (A) (A) (A) (A) (A) (A) (A) (A)
                 (A) (A) (A) (A) (A) (A) (A) (A) (A) (A) (A) (A)
                 (A) (A) (A) (A) (A) (A) (A) (A) (A) (A) (A) (A)
                 (A) (A) (A) (A) (A) (A) (A) (A) (A) (A) (A) (A)
                 (A) (A) (A) (A) (A) (A) (A) (A) (A) (A) (A) (A)
                 (A) (A) (A) (A) (A) (A) (A) (A) (A) (A) (A) (A)
                 (A) (A) (A) (A) (A) (A) (A) (A) (A) (A) (A) (A)
                 (A) (A) (A) (A) (A) (A) (A) (A) (A) (A) (A) (A)
                 (A) (A) (A) (A) (A) (A) (A) (A) (A) (A) (A) (A)
                 (A) (A) (A) (A) (A) (A) (A) (A) (A) (A) (A) (A)
                 (A) (A) (A) (A) (A) (A) (A) (A) (A) (A) (A) (A)
                 (A) (A) (A) (A) (A) (A) (A) (A) (A) (A) (A) (A)
                 (A) (A) (A) (A) (A) (A) (A) (A) (A) (A) (A) (A)
                 (A) (A) (A) (A) (A) (A) (A) (A) (A) (A) (A) (A)
                 (A) (A) (A) (A) (A) (A) (A) (A) (A) (A) (A) (A)
                 (A) (A) (A) (A) (A) (A) (A) (A) (A)
 The electronic state is 1-A.
 Alpha  occ. eigenvalues --  -91.99937 -91.99802 -91.99787 -11.31184 -11.29800
 Alpha  occ. eigenvalues --  -11.29106 -11.28988 -11.28669 -11.28299 -11.27620
 Alpha  occ. eigenvalues --  -11.27166 -11.27106 -11.25935 -11.24205  -8.99996
 Alpha  occ. eigenvalues --   -8.99875  -8.99784  -6.68163  -6.68074  -6.68043
 Alpha  occ. eigenvalues --   -6.67949  -6.67947  -6.67885  -6.67851  -6.67757
 Alpha  occ. eigenvalues --   -6.67684  -1.19780  -1.16351  -1.10402  -1.04186
 Alpha  occ. eigenvalues --   -1.03076  -1.00696  -0.94572  -0.93630  -0.91062
 Alpha  occ. eigenvalues --   -0.82159  -0.77601  -0.76424  -0.71149  -0.69963
 Alpha  occ. eigenvalues --   -0.66558  -0.65800  -0.60385  -0.59279  -0.58811
 Alpha  occ. eigenvalues --   -0.56507  -0.55410  -0.54466  -0.53926  -0.52238
 Alpha  occ. eigenvalues --   -0.51532  -0.50855  -0.49929  -0.47198  -0.45870
 Alpha  occ. eigenvalues --   -0.45646  -0.39497  -0.34514  -0.34289  -0.31927
 Alpha  occ. eigenvalues --   -0.25227
 Alpha virt. eigenvalues --    0.03333   0.03532   0.03857   0.04025   0.04831
 Alpha virt. eigenvalues --    0.05018   0.05971   0.06096   0.07402   0.08367
 Alpha virt. eigenvalues --    0.09080   0.09736   0.10121   0.10341   0.10681
 Alpha virt. eigenvalues --    0.11461   0.12141   0.12376   0.12473   0.12837
 Alpha virt. eigenvalues --    0.13255   0.13752   0.13928   0.14286   0.14761
 Alpha virt. eigenvalues --    0.15061   0.15225   0.15402   0.15719   0.16619
 Alpha virt. eigenvalues --    0.16924   0.17424   0.17687   0.17926   0.18017
 Alpha virt. eigenvalues --    0.18454   0.18722   0.19051   0.19474   0.19784
 Alpha virt. eigenvalues --    0.20453   0.20817   0.21070   0.21319   0.21915
 Alpha virt. eigenvalues --    0.22133   0.22362   0.23438   0.23630   0.24068
 Alpha virt. eigenvalues --    0.24863   0.25139   0.25564   0.26099   0.26428
 Alpha virt. eigenvalues --    0.26660   0.27441   0.27650   0.27983   0.28583
 Alpha virt. eigenvalues --    0.29213   0.29635   0.30397   0.31491   0.31569
 Alpha virt. eigenvalues --    0.32130   0.32223   0.33044   0.33238   0.33827
 Alpha virt. eigenvalues --    0.34566   0.34720   0.35740   0.35861   0.36676
 Alpha virt. eigenvalues --    0.37138   0.37444   0.38202   0.38601   0.39315
 Alpha virt. eigenvalues --    0.40100   0.40428   0.40709   0.41462   0.41939
 Alpha virt. eigenvalues --    0.42615   0.43218   0.43544   0.44035   0.44379
 Alpha virt. eigenvalues --    0.44989   0.45626   0.45957   0.46667   0.47403
 Alpha virt. eigenvalues --    0.47900   0.48769   0.48976   0.49202   0.49913
 Alpha virt. eigenvalues --    0.51152   0.51330   0.51653   0.53079   0.53998
 Alpha virt. eigenvalues --    0.54448   0.54800   0.55716   0.56465   0.57268
 Alpha virt. eigenvalues --    0.58141   0.58917   0.59547   0.59794   0.60378
 Alpha virt. eigenvalues --    0.61636   0.62020   0.62137   0.62259   0.63118
 Alpha virt. eigenvalues --    0.63792   0.64457   0.65045   0.65667   0.65848
 Alpha virt. eigenvalues --    0.66363   0.66888   0.67342   0.67779   0.68334
 Alpha virt. eigenvalues --    0.68767   0.69016   0.69207   0.70357   0.71047
 Alpha virt. eigenvalues --    0.71433   0.71829   0.72383   0.72726   0.73600
 Alpha virt. eigenvalues --    0.74014   0.74114   0.75065   0.76375   0.76578
 Alpha virt. eigenvalues --    0.77068   0.77298   0.77953   0.79032   0.79826
 Alpha virt. eigenvalues --    0.80180   0.80361   0.81477   0.82149   0.82874
 Alpha virt. eigenvalues --    0.83490   0.83829   0.84727   0.85214   0.86389
 Alpha virt. eigenvalues --    0.86995   0.88232   0.88679   0.88869   0.89768
 Alpha virt. eigenvalues --    0.90419   0.91538   0.92455   0.92691   0.93163
 Alpha virt. eigenvalues --    0.94397   0.94906   0.95225   0.95482   0.96653
 Alpha virt. eigenvalues --    0.97017   0.97640   0.98998   0.99735   1.00210
 Alpha virt. eigenvalues --    1.01165   1.01570   1.02392   1.02640   1.03224
 Alpha virt. eigenvalues --    1.05552   1.05820   1.07180   1.08155   1.09736
 Alpha virt. eigenvalues --    1.10274   1.10879   1.12046   1.13470   1.15439
 Alpha virt. eigenvalues --    1.16703   1.16966   1.17728   1.18916   1.19992
 Alpha virt. eigenvalues --    1.20348   1.21618   1.22822   1.23599   1.24549
 Alpha virt. eigenvalues --    1.25662   1.26510   1.26743   1.27802   1.28381
 Alpha virt. eigenvalues --    1.29179   1.30270   1.30445   1.30712   1.32395
 Alpha virt. eigenvalues --    1.32773   1.33848   1.35866   1.37193   1.38640
 Alpha virt. eigenvalues --    1.39260   1.39776   1.41400   1.43406   1.43982
 Alpha virt. eigenvalues --    1.45385   1.47352   1.48226   1.51914   1.52359
 Alpha virt. eigenvalues --    1.53159   1.54854   1.55735   1.56036   1.57586
 Alpha virt. eigenvalues --    1.58478   1.59922   1.61297   1.62486   1.62967
 Alpha virt. eigenvalues --    1.64705   1.64946   1.65846   1.67003   1.67794
 Alpha virt. eigenvalues --    1.68117   1.69563   1.69975   1.72397   1.73183
 Alpha virt. eigenvalues --    1.73522   1.74662   1.75904   1.76475   1.78036
 Alpha virt. eigenvalues --    1.79273   1.79557   1.80308   1.80975   1.82497
 Alpha virt. eigenvalues --    1.83010   1.83729   1.85528   1.86487   1.87173
 Alpha virt. eigenvalues --    1.88944   1.91653   1.92380   1.92912   1.94238
 Alpha virt. eigenvalues --    1.95461   1.96348   1.97477   1.98340   1.99048
 Alpha virt. eigenvalues --    2.00936   2.01818   2.04694   2.06894   2.07577
 Alpha virt. eigenvalues --    2.08791   2.09774   2.10820   2.12283   2.13362
 Alpha virt. eigenvalues --    2.14136   2.15996   2.16885   2.18287   2.18494
 Alpha virt. eigenvalues --    2.19777   2.19875   2.21507   2.23910   2.24908
 Alpha virt. eigenvalues --    2.25614   2.27216   2.29189   2.30293   2.30773
 Alpha virt. eigenvalues --    2.32815   2.34128   2.36088   2.37404   2.38843
 Alpha virt. eigenvalues --    2.40272   2.41443   2.42246   2.44510   2.46492
 Alpha virt. eigenvalues --    2.47661   2.50262   2.51011   2.52688   2.53333
 Alpha virt. eigenvalues --    2.54366   2.57482   2.60362   2.62561   2.66272
 Alpha virt. eigenvalues --    2.70371   2.72547   2.75215   2.76648   2.81192
 Alpha virt. eigenvalues --    2.82258   2.84925   2.86309   2.89785   2.95422
 Alpha virt. eigenvalues --    2.96047   2.99902   3.00777   3.04325   3.13228
 Alpha virt. eigenvalues --    3.13722   3.20842   3.29037   3.30255   3.34389
 Alpha virt. eigenvalues --    3.54338   3.65367   3.74929   4.03256   4.15789
          Condensed to atoms (all electrons):
               1          2          3          4          5          6
     1  C    9.738616  -1.595201  -0.537627  -1.165048   0.230584  -0.475380
     2  C   -1.595201  10.256656  -1.612454   0.410226   0.041726   0.332834
     3  C   -0.537627  -1.612454  13.288364  -0.640170  -1.123536   0.093587
     4  C   -1.165048   0.410226  -0.640170   5.907103   0.049073   0.082882
     5  C    0.230584   0.041726  -1.123536   0.049073   6.685273  -0.084891
     6  H   -0.475380   0.332834   0.093587   0.082882  -0.084891   1.731716
     7  S   -0.532439  -0.082798  -0.129538   0.093392   0.095826  -0.019819
     8  H    0.049999   0.062557  -0.027926   0.018302   0.184804  -0.073980
     9  C   -0.138518  -0.726259  -3.288165   0.052287   0.470940  -0.047444
    10  S   -0.093540   0.094712  -0.364158   0.049044   0.064921   0.005697
    11  C   -0.012567  -0.045140   0.091041   0.005653   0.023833   0.001574
    12  C   -0.017580  -0.006125   0.045613   0.026799  -0.061752  -0.002531
    13  C   -0.009415  -0.715173  -0.005664  -0.028822  -0.282350   0.003922
    14  H   -0.009227   0.065052  -0.036038   0.007016   0.008975  -0.000392
    15  S   -0.001626  -0.007169   0.000249   0.003007   0.000372  -0.000058
    16  C   -0.001367  -0.007886   0.023622  -0.001501  -0.000389  -0.000009
    17  C    0.006439   0.050230  -0.152164  -0.032744   0.002732   0.000300
    18  H   -0.000066  -0.000206   0.000710  -0.000058  -0.000038  -0.000002
    19  H    0.000467   0.001364   0.000486  -0.000248   0.000511   0.000028
    20  H    0.069153  -0.030765   0.033416   0.033451   0.029568  -0.031731
    21  H    0.018304  -0.003422  -0.000699   0.254972  -0.010128   0.006850
    22  H   -0.005622   0.030356  -0.084698   0.315467  -0.009130   0.005589
               7          8          9         10         11         12
     1  C   -0.532439   0.049999  -0.138518  -0.093540  -0.012567  -0.017580
     2  C   -0.082798   0.062557  -0.726259   0.094712  -0.045140  -0.006125
     3  C   -0.129538  -0.027926  -3.288165  -0.364158   0.091041   0.045613
     4  C    0.093392   0.018302   0.052287   0.049044   0.005653   0.026799
     5  C    0.095826   0.184804   0.470940   0.064921   0.023833  -0.061752
     6  H   -0.019819  -0.073980  -0.047444   0.005697   0.001574  -0.002531
     7  S   16.255919  -0.128121  -0.130655   0.050669   0.014432  -0.092476
     8  H   -0.128121   1.270294   0.011695   0.001263   0.000165   0.000753
     9  C   -0.130655   0.011695  12.518715   0.417471  -0.473666  -0.580085
    10  S    0.050669   0.001263   0.417471  16.503048  -0.238888  -0.221671
    11  C    0.014432   0.000165  -0.473666  -0.238888   8.083279   0.072161
    12  C   -0.092476   0.000753  -0.580085  -0.221671   0.072161   9.523138
    13  C    0.023682  -0.002614  -2.620196  -0.758114  -0.163753  -2.091826
    14  H    0.019997   0.001789   0.769965   0.044785  -0.094634   0.000552
    15  S    0.002241  -0.000086  -0.163389  -0.007693   0.061695   0.002909
    16  C    0.000447  -0.000041   0.058786  -0.139046   0.101112  -0.342407
    17  C    0.004696   0.000162  -0.077544   0.022035  -1.025824   0.223045
    18  H   -0.000049  -0.000001  -0.000708   0.001970   0.022511  -0.030001
    19  H    0.000327   0.000013   0.028736  -0.007978   0.199341  -0.018445
    20  H   -0.008851   0.001049  -0.011116  -0.020844  -0.006034  -0.000886
    21  H    0.009932   0.000509  -0.008355   0.011146   0.003616   0.002902
    22  H    0.005161   0.000753   0.024802   0.020870   0.014327   0.003584
              13         14         15         16         17         18
     1  C   -0.009415  -0.009227  -0.001626  -0.001367   0.006439  -0.000066
     2  C   -0.715173   0.065052  -0.007169  -0.007886   0.050230  -0.000206
     3  C   -0.005664  -0.036038   0.000249   0.023622  -0.152164   0.000710
     4  C   -0.028822   0.007016   0.003007  -0.001501  -0.032744  -0.000058
     5  C   -0.282350   0.008975   0.000372  -0.000389   0.002732  -0.000038
     6  H    0.003922  -0.000392  -0.000058  -0.000009   0.000300  -0.000002
     7  S    0.023682   0.019997   0.002241   0.000447   0.004696  -0.000049
     8  H   -0.002614   0.001789  -0.000086  -0.000041   0.000162  -0.000001
     9  C   -2.620196   0.769965  -0.163389   0.058786  -0.077544  -0.000708
    10  S   -0.758114   0.044785  -0.007693  -0.139046   0.022035   0.001970
    11  C   -0.163753  -0.094634   0.061695   0.101112  -1.025824   0.022511
    12  C   -2.091826   0.000552   0.002909  -0.342407   0.223045  -0.030001
    13  C   13.162825  -0.930100   0.056364  -0.088939   0.062734   0.027019
    14  H   -0.930100   1.745064  -0.082444  -0.000952  -0.000465   0.001196
    15  S    0.056364  -0.082444  15.757213   0.195425  -0.326004  -0.119910
    16  C   -0.088939  -0.000952   0.195425   5.876770   0.198973   0.228248
    17  C    0.062734  -0.000465  -0.326004   0.198973   6.680340   0.022244
    18  H    0.027019   0.001196  -0.119910   0.228248   0.022244   1.256893
    19  H   -0.017164   0.000323   0.007232  -0.060110  -0.121961  -0.058748
    20  H    0.016789   0.000156   0.000238  -0.000235  -0.000105   0.000003
    21  H   -0.017710   0.001361  -0.000342   0.000112   0.001114  -0.000034
    22  H   -0.032521   0.000590  -0.000139   0.001537  -0.005088   0.000022
              19         20         21         22
     1  C    0.000467   0.069153   0.018304  -0.005622
     2  C    0.001364  -0.030765  -0.003422   0.030356
     3  C    0.000486   0.033416  -0.000699  -0.084698
     4  C   -0.000248   0.033451   0.254972   0.315467
     5  C    0.000511   0.029568  -0.010128  -0.009130
     6  H    0.000028  -0.031731   0.006850   0.005589
     7  S    0.000327  -0.008851   0.009932   0.005161
     8  H    0.000013   0.001049   0.000509   0.000753
     9  C    0.028736  -0.011116  -0.008355   0.024802
    10  S   -0.007978  -0.020844   0.011146   0.020870
    11  C    0.199341  -0.006034   0.003616   0.014327
    12  C   -0.018445  -0.000886   0.002902   0.003584
    13  C   -0.017164   0.016789  -0.017710  -0.032521
    14  H    0.000323   0.000156   0.001361   0.000590
    15  S    0.007232   0.000238  -0.000342  -0.000139
    16  C   -0.060110  -0.000235   0.000112   0.001537
    17  C   -0.121961  -0.000105   0.001114  -0.005088
    18  H   -0.058748   0.000003  -0.000034   0.000022
    19  H    1.377662   0.000286   0.000454  -0.000309
    20  H    0.000286   1.477437  -0.149854  -0.157251
    21  H    0.000454  -0.149854   0.843971  -0.109269
    22  H   -0.000309  -0.157251  -0.109269   0.835811
 Mulliken charges:
               1
     1  C    0.481662
     2  C   -0.513114
     3  C    0.425747
     4  C    0.559916
     5  C   -0.316922
     6  H   -0.528741
     7  S    0.548027
     8  H   -0.371338
     9  C   -0.087297
    10  S    0.564302
    11  C   -0.634236
    12  C   -0.435671
    13  C    0.411022
    14  H   -0.512569
    15  S    0.621916
    16  C   -0.042152
    17  C    0.466855
    18  H   -0.350996
    19  H   -0.332265
    20  H   -0.243876
    21  H    0.144570
    22  H    0.145158
 Sum of Mulliken charges =  -0.00000
 Mulliken charges with hydrogens summed into heavy atoms:
               1
     1  C   -0.047079
     2  C   -0.513114
     3  C    0.425747
     4  C    0.605768
     5  C   -0.688259
     7  S    0.548027
     9  C   -0.087297
    10  S    0.564302
    11  C   -0.634236
    12  C   -0.435671
    13  C   -0.101547
    15  S    0.621916
    16  C   -0.393147
    17  C    0.134591
 Electronic spatial extent (au):  <R**2>=           4441.9681
 Charge=             -0.0000 electrons
 Dipole moment (field-independent basis, Debye):
    X=             -1.1493    Y=              1.2524    Z=              1.3629  Tot=              2.1788
 Quadrupole moment (field-independent basis, Debye-Ang):
   XX=            -88.7781   YY=            -98.0236   ZZ=           -112.3704
   XY=              1.5855   XZ=              3.2304   YZ=              0.9997
 Traceless Quadrupole moment (field-independent basis, Debye-Ang):
   XX=             10.9459   YY=              1.7005   ZZ=            -12.6464
   XY=              1.5855   XZ=              3.2304   YZ=              0.9997
 Octapole moment (field-independent basis, Debye-Ang**2):
  XXX=            -33.1831  YYY=              5.0218  ZZZ=              3.3933  XYY=             -8.9812
  XXY=             15.1915  XXZ=             31.6478  XZZ=              3.2169  YZZ=              2.6179
  YYZ=              4.2944  XYZ=             -1.4749
 Hexadecapole moment (field-independent basis, Debye-Ang**3):
 XXXX=          -4350.0809 YYYY=          -1172.7302 ZZZZ=           -205.3343 XXXY=             84.3686
 XXXZ=            112.2982 YYYX=             19.8929 YYYZ=              2.3495 ZZZX=             11.7845
 ZZZY=              2.2129 XXYY=           -941.2001 XXZZ=           -924.7920 YYZZ=           -245.9283
 XXYZ=             19.3322 YYXZ=              5.8888 ZZXY=            -11.6679
 N-N= 1.107822127781D+03 E-N=-6.034009163845D+03  KE= 1.612248072017D+03
 Calling FoFJK, ICntrl=      2127 FMM=F ISym2X=0 I1Cent= 0 IOpClX= 0 NMat=1 NMatS=1 NMatT=0.
 ***** Axes restored to original set *****
 -------------------------------------------------------------------
 Center     Atomic                   Forces (Hartrees/Bohr)
 Number     Number              X              Y              Z
 -------------------------------------------------------------------
      1        6           0.017927758   -0.077796603    0.012713987
      2        6           0.027437777   -0.060445387    0.005451165
      3        6          -0.061463728    0.023944753    0.007522480
      4        6           0.008958586    0.013478608    0.000614605
      5        6           0.011955895    0.067046938   -0.017334105
      6        1           0.001243486    0.000427665   -0.000469674
      7       16          -0.005925175    0.030469450   -0.006378554
      8        1           0.004983014   -0.003155257    0.000478176
      9        6           0.059141893   -0.040980068    0.008727646
     10       16          -0.011181575   -0.020108057   -0.000382824
     11        6           0.008147132   -0.042055379    0.034707356
     12        6          -0.020605144    0.053693355   -0.004668730
     13        6          -0.041585508    0.059056674   -0.017257503
     14        1          -0.004648717   -0.000525874   -0.004548829
     15       16           0.010297711    0.014642593   -0.016224809
     16        6          -0.054000915    0.048868209   -0.027274113
     17        6           0.045489047   -0.048202055    0.043540154
     18        1          -0.000609314   -0.007366058   -0.005239444
     19        1           0.003080995   -0.008072456   -0.008029082
     20        1           0.000946682   -0.004278144    0.000102118
     21        1           0.002360713    0.002552837    0.000126368
     22        1          -0.001950613   -0.001195745   -0.006176388
 -------------------------------------------------------------------
 Cartesian Forces:  Max     0.077796603 RMS     0.028216367

 GradGradGradGradGradGradGradGradGradGradGradGradGradGradGradGradGradGrad
 Berny optimization.
 FormGI is forming the generalized inverse of G from B-inverse, IUseBI=4.
 Internal  Forces:  Max     0.083528511 RMS     0.016683752
 Search for a local minimum.
 Step number   1 out of a maximum of  127
 All quantities printed in internal units (Hartrees-Bohrs-Radians)
 Mixed Optimization -- RFO/linear search
 Second derivative matrix not updated -- first step.
 ITU=  0
     Eigenvalues ---    0.00935   0.00982   0.01057   0.01215   0.01241
     Eigenvalues ---    0.01277   0.01298   0.01419   0.01457   0.01497
     Eigenvalues ---    0.01498   0.01592   0.01597   0.01769   0.02202
     Eigenvalues ---    0.02653   0.07307   0.07353   0.15077   0.15686
     Eigenvalues ---    0.15738   0.15997   0.16000   0.16000   0.16000
     Eigenvalues ---    0.16000   0.17997   0.22443   0.22545   0.23319
     Eigenvalues ---    0.23980   0.24718   0.24978   0.24995   0.25000
     Eigenvalues ---    0.26147   0.26564   0.28459   0.30920   0.31335
     Eigenvalues ---    0.31535   0.33757   0.33818   0.34533   0.34817
     Eigenvalues ---    0.34935   0.35292   0.35845   0.35877   0.36006
     Eigenvalues ---    0.36092   0.36185   0.36304   0.37598   0.38204
     Eigenvalues ---    0.38438   0.39458   0.39763   0.407101000.00000
     Eigenvalues --- 1000.000001000.000001000.000001000.000001000.00000
     Eigenvalues --- 1000.000001000.000001000.000001000.000001000.00000
     Eigenvalues --- 1000.000001000.000001000.000001000.000001000.00000
     Eigenvalues --- 1000.000001000.000001000.000001000.000001000.00000
     Eigenvalues --- 1000.000001000.000001000.000001000.000001000.00000
     Eigenvalues --- 1000.000001000.000001000.000001000.000001000.00000
     Eigenvalues --- 1000.000001000.000001000.000001000.000001000.00000
     Eigenvalues --- 1000.000001000.000001000.000001000.000001000.00000
     Eigenvalues --- 1000.000001000.000001000.000001000.000001000.00000
     Eigenvalues --- 1000.000001000.000001000.000001000.000001000.00000
     Eigenvalues --- 1000.000001000.000001000.000001000.000001000.00000
     Eigenvalues --- 1000.000001000.00000
 RFO step:  Lambda=-7.89569593D-02 EMin= 9.35106172D-03
 Linear search not attempted -- first point.
 Maximum step size (   0.300) exceeded in Quadratic search.
    -- Step size scaled by   0.733
 Iteration  1 RMS(Cart)=  0.06171390 RMS(Int)=  0.00129664
 Iteration  2 RMS(Cart)=  0.00201219 RMS(Int)=  0.00038160
 Iteration  3 RMS(Cart)=  0.00000200 RMS(Int)=  0.00038160
 Iteration  4 RMS(Cart)=  0.00000000 RMS(Int)=  0.00038160
 Iteration  1 RMS(Cart)=  0.00000638 RMS(Int)=  0.00000287
 Iteration  2 RMS(Cart)=  0.00000347 RMS(Int)=  0.00000321
 Iteration  3 RMS(Cart)=  0.00000189 RMS(Int)=  0.00000363
 Iteration  4 RMS(Cart)=  0.00000103 RMS(Int)=  0.00000390
 Iteration  5 RMS(Cart)=  0.00000056 RMS(Int)=  0.00000406
 Variable       Old X    -DE/DX   Delta X   Delta X   Delta X     New X
                                 (Linear)    (Quad)   (Total)
    R1        2.71917  -0.01281   0.00000  -0.02163  -0.02156   2.69761
    R2        2.71391  -0.07305   0.00000  -0.11277  -0.11280   2.60111
    R3        2.03793  -0.00075   0.00000  -0.00125  -0.00125   2.03668
    R4        2.75906  -0.07633   0.00000  -0.12498  -0.12489   2.63417
    R5        2.81042   0.01321   0.00000   0.02324   0.02324   2.83367
    R6        3.39578  -0.02833   0.00000  -0.05813  -0.05814   3.33764
    R7        2.74954  -0.00757   0.00000  -0.01220  -0.01220   2.73733
    R8        2.06439  -0.00319   0.00000  -0.00551  -0.00551   2.05888
    R9        2.05781   0.00076   0.00000   0.00130   0.00130   2.05911
   R10        2.07638  -0.00550   0.00000  -0.00966  -0.00966   2.06672
   R11        3.28671  -0.02260   0.00000  -0.04084  -0.04094   3.24577
   R12        2.04073  -0.00253   0.00000  -0.00422  -0.00422   2.03651
   R13        3.38286  -0.01831   0.00000  -0.03495  -0.03537   3.34749
   R14        2.76721  -0.08353   0.00000  -0.13796  -0.13814   2.62907
   R15        3.27018  -0.00430   0.00000  -0.00675  -0.00673   3.26345
   R16        2.72320  -0.05532   0.00000  -0.08906  -0.08829   2.63491
   R17        2.69358   0.00223   0.00000   0.00106   0.00144   2.69502
   R18        2.70628  -0.00950   0.00000  -0.01677  -0.01649   2.68979
   R19        3.27323  -0.00293   0.00000  -0.00378  -0.00387   3.26936
   R20        2.03938  -0.00124   0.00000  -0.00207  -0.00207   2.03731
   R21        3.33390  -0.01726   0.00000  -0.03160  -0.03204   3.30186
   R22        2.73233  -0.08084   0.00000  -0.12737  -0.12745   2.60488
   R23        2.04325  -0.00356   0.00000  -0.00597  -0.00597   2.03728
   R24        2.05203  -0.00602   0.00000  -0.01022  -0.01022   2.04182
    A1        1.97020   0.00888   0.00000   0.01635   0.01639   1.98659
    A2        2.17330  -0.00564   0.00000  -0.01186  -0.01188   2.16143
    A3        2.13967  -0.00324   0.00000  -0.00449  -0.00451   2.13516
    A4        1.97187  -0.00254   0.00000  -0.00914  -0.00898   1.96289
    A5        2.09905   0.00927   0.00000   0.02239   0.02231   2.12136
    A6        2.21227  -0.00673   0.00000  -0.01325  -0.01333   2.19893
    A7        1.90440   0.00509   0.00000   0.01309   0.01318   1.91757
    A8        2.31891  -0.00920   0.00000  -0.02142  -0.02146   2.29745
    A9        2.05972   0.00411   0.00000   0.00826   0.00822   2.06794
   A10        1.94548  -0.00498   0.00000  -0.01489  -0.01485   1.93064
   A11        1.93409   0.00378   0.00000   0.01120   0.01120   1.94530
   A12        1.93331   0.00287   0.00000   0.00880   0.00880   1.94211
   A13        1.87410   0.00063   0.00000   0.00196   0.00200   1.87610
   A14        1.86607   0.00161   0.00000   0.00568   0.00571   1.87179
   A15        1.90848  -0.00411   0.00000  -0.01337  -0.01340   1.89507
   A16        1.95339  -0.00353   0.00000  -0.00964  -0.00976   1.94363
   A17        2.17580   0.00714   0.00000   0.02129   0.02136   2.19716
   A18        2.15384  -0.00361   0.00000  -0.01166  -0.01160   2.14225
   A19        1.62490  -0.00791   0.00000  -0.01066  -0.01087   1.61403
   A20        2.12890   0.00114   0.00000   0.00258   0.00255   2.13145
   A21        2.24068  -0.00663   0.00000  -0.01476  -0.01479   2.22589
   A22        1.91292   0.00558   0.00000   0.01270   0.01266   1.92558
   A23        1.61932  -0.00617   0.00000  -0.00964  -0.00955   1.60977
   A24        1.96091  -0.01218   0.00000  -0.02344  -0.02408   1.93683
   A25        2.23851   0.00904   0.00000   0.03455   0.03325   2.27177
   A26        1.96625   0.00728   0.00000   0.01549   0.01580   1.98205
   A27        1.96666   0.00935   0.00000   0.01910   0.01920   1.98587
   A28        1.96598  -0.01467   0.00000  -0.02804  -0.02864   1.93734
   A29        2.23741   0.00951   0.00000   0.03552   0.03428   2.27170
   A30        1.96425   0.00345   0.00000   0.00138   0.00185   1.96610
   A31        2.15992  -0.00488   0.00000  -0.00879  -0.00929   2.15063
   A32        2.14719   0.00211   0.00000   0.01263   0.01210   2.15929
   A33        1.59360   0.00074   0.00000   0.00426   0.00434   1.59794
   A34        1.96019  -0.00008   0.00000  -0.00137  -0.00156   1.95863
   A35        2.13721  -0.00356   0.00000  -0.00782  -0.00843   2.12879
   A36        2.16871   0.00490   0.00000   0.01863   0.01812   2.18683
   A37        1.93844   0.00673   0.00000   0.00961   0.00998   1.94842
   A38        2.16669  -0.00028   0.00000   0.00982   0.00872   2.17541
   A39        2.14140  -0.00416   0.00000  -0.00279  -0.00393   2.13747
    D1        0.00683  -0.00037   0.00000  -0.00468  -0.00467   0.00216
    D2       -3.13456  -0.00005   0.00000  -0.00194  -0.00191  -3.13647
    D3       -3.13952  -0.00037   0.00000  -0.00394  -0.00397   3.13970
    D4        0.00227  -0.00005   0.00000  -0.00121  -0.00120   0.00107
    D5       -0.00671  -0.00025   0.00000  -0.00258  -0.00261  -0.00932
    D6       -3.13020  -0.00036   0.00000  -0.00239  -0.00243  -3.13263
    D7        3.13954  -0.00024   0.00000  -0.00328  -0.00328   3.13626
    D8        0.01605  -0.00035   0.00000  -0.00308  -0.00310   0.01295
    D9       -0.00388   0.00089   0.00000   0.00962   0.00963   0.00575
   D10        3.11762   0.00129   0.00000   0.00596   0.00594   3.12356
   D11        3.13750   0.00054   0.00000   0.00668   0.00672  -3.13896
   D12       -0.02418   0.00094   0.00000   0.00302   0.00304  -0.02115
   D13        0.03777  -0.00021   0.00000  -0.00101  -0.00102   0.03675
   D14       -2.04840  -0.00023   0.00000  -0.00114  -0.00112  -2.04951
   D15        2.11332   0.00047   0.00000   0.00223   0.00220   2.11552
   D16       -3.10360   0.00016   0.00000   0.00213   0.00213  -3.10147
   D17        1.09342   0.00014   0.00000   0.00200   0.00204   1.09546
   D18       -1.02805   0.00084   0.00000   0.00537   0.00536  -1.02269
   D19        0.00006  -0.00082   0.00000  -0.00933  -0.00940  -0.00934
   D20       -3.12486  -0.00097   0.00000  -0.00588  -0.00586  -3.13071
   D21       -0.17484  -0.00203   0.00000   0.00000  -0.00000  -0.17484
   D22        2.92267   0.00105   0.00000   0.01683   0.01690   2.93956
   D23        2.94525  -0.00161   0.00000  -0.00392  -0.00394   2.94130
   D24       -0.24043   0.00147   0.00000   0.01291   0.01296  -0.22747
   D25        0.00376   0.00065   0.00000   0.00697   0.00688   0.01064
   D26        3.12751   0.00089   0.00000   0.00718   0.00711   3.13462
   D27        3.13736   0.00144   0.00000   0.00976   0.00989  -3.13594
   D28        0.03245  -0.00086   0.00000  -0.00364  -0.00380   0.02865
   D29       -3.13867  -0.00249   0.00000  -0.01440  -0.01420   3.13032
   D30       -0.15765   0.00239   0.00000   0.02212   0.02217  -0.13548
   D31       -0.03677   0.00023   0.00000   0.00064   0.00095  -0.03582
   D32        2.94424   0.00511   0.00000   0.03716   0.03731   2.98156
   D33       -0.02051   0.00171   0.00000   0.00665   0.00659  -0.01392
   D34       -2.61623  -0.00826   0.00000  -0.05202  -0.05219  -2.66842
   D35        0.00253  -0.00144   0.00000  -0.00677  -0.00660  -0.00407
   D36       -2.68907  -0.01191   0.00000  -0.06584  -0.06438  -2.75345
   D37        2.68657   0.00865   0.00000   0.05102   0.05007   2.73664
   D38       -0.00504  -0.00182   0.00000  -0.00805  -0.00771  -0.01275
   D39        2.61410   0.00668   0.00000   0.05602   0.05702   2.67112
   D40       -0.24566  -0.00137   0.00000  -0.00587  -0.00541  -0.25107
   D41        0.01972   0.00158   0.00000   0.00698   0.00683   0.02655
   D42       -2.84004  -0.00647   0.00000  -0.05491  -0.05560  -2.89564
   D43        0.02269   0.00090   0.00000   0.00400   0.00382   0.02651
   D44       -2.95968  -0.00319   0.00000  -0.02994  -0.03047  -2.99015
   D45        2.62819   0.00569   0.00000   0.05310   0.05412   2.68231
   D46       -0.35418   0.00160   0.00000   0.01915   0.01983  -0.33435
   D47       -0.00847   0.00157   0.00000   0.00582   0.00568  -0.00280
   D48       -2.61415  -0.00918   0.00000  -0.05495  -0.05488  -2.66902
   D49        0.01980  -0.00055   0.00000  -0.00166  -0.00169   0.01810
   D50        2.97152   0.00700   0.00000   0.05237   0.05192   3.02344
   D51       -0.02601  -0.00031   0.00000  -0.00242  -0.00217  -0.02818
   D52        2.83853   0.00830   0.00000   0.06077   0.06101   2.89955
   D53       -2.97371  -0.00692   0.00000  -0.05415  -0.05441  -3.02811
   D54       -0.10916   0.00169   0.00000   0.00903   0.00878  -0.10039
         Item               Value     Threshold  Converged?
 Maximum Force            0.083525     0.000450     NO 
 RMS     Force            0.016753     0.000300     NO 
 Maximum Displacement     0.218148     0.001800     NO 
 RMS     Displacement     0.061892     0.001200     NO 
 Predicted change in Energy=-4.163004D-02
 GradGradGradGradGradGradGradGradGradGradGradGradGradGradGradGradGradGrad

                          Input orientation:                          
 ---------------------------------------------------------------------
 Center     Atomic      Atomic             Coordinates (Angstroms)
 Number     Number       Type             X           Y           Z
 ---------------------------------------------------------------------
      1          6           0       -4.209482   -1.412392   -0.225543
      2          6           0       -2.897895   -0.998596   -0.608052
      3          6           0       -1.983413   -2.050596   -0.598285
      4          6           0       -2.597993    0.426368   -0.965927
      5          6           0       -4.304195   -2.752264    0.075095
      6          1           0       -5.055967   -0.747671   -0.169074
      7         16           0       -2.792557   -3.544885   -0.116768
      8          1           0       -5.199700   -3.270175    0.377126
      9          6           0       -0.573705   -2.103399   -0.927209
     10         16           0        0.264322   -0.748233   -1.701251
     11          6           0        1.764334   -1.603537   -1.728685
     12          6           0        1.629702   -2.865792   -1.151830
     13          6           0        0.315705   -3.144479   -0.680926
     14          1           0        0.062624   -4.010394   -0.090645
     15         16           0        3.159387   -3.467058   -0.611751
     16          6           0        3.975545   -2.024965   -1.166008
     17          6           0        3.103321   -1.112700   -1.720181
     18          1           0        5.018054   -1.843962   -0.959439
     19          1           0        3.382870   -0.087360   -1.915054
     20          1           0       -3.486633    1.046085   -0.850552
     21          1           0       -2.267873    0.516527   -2.000430
     22          1           0       -1.824453    0.844479   -0.315608
 ---------------------------------------------------------------------
                    Distance matrix (angstroms):
                    1          2          3          4          5
     1  C    0.000000
     2  C    1.427515   0.000000
     3  C    2.345555   1.393943   0.000000
     4  C    2.554624   1.499513   2.578414   0.000000
     5  C    1.376448   2.349408   2.516308   3.754803   0.000000
     6  H    1.077766   2.216515   3.364881   2.838130   2.154802
     7  S    2.562623   2.595388   1.766202   4.065682   1.717588
     8  H    2.189772   3.380673   3.575375   4.715623   1.077676
     9  C    3.766789   2.593127   1.448535   3.240209   3.916911
    10  S    4.757494   3.355203   2.822233   3.180132   5.295554
    11  C    6.162991   4.833028   3.939959   4.871572   6.434302
    12  C    6.088223   4.927601   3.745071   5.361556   6.060476
    13  C    4.866706   3.864887   2.547421   4.617555   4.697752
    14  H    5.001870   4.254798   2.878328   5.246890   4.547468
    15  S    7.659703   6.540947   5.334317   6.959284   7.529126
    16  C    8.261622   6.972010   5.985996   7.018580   8.403773
    17  C    7.469997   6.104461   5.292747   5.953370   7.796312
    18  H    9.266730   7.968712   7.013820   7.947239   9.423354
    19  H    7.890118   6.479708   5.863887   6.077456   8.375760
    20  H    2.637661   2.141528   3.451485   1.089515   3.994081
    21  H    3.262024   2.152033   2.938886   1.089635   4.374860
    22  H    3.284805   2.152842   2.913183   1.093662   4.386152
                    6          7          8          9         10
     6  H    0.000000
     7  S    3.598634   0.000000
     8  H    2.584960   2.472597   0.000000
     9  C    4.743779   2.767309   4.945956   0.000000
    10  S    5.536519   4.435804   6.366740   1.771413   0.000000
    11  C    7.048504   5.208874   7.463907   2.521638   1.726944
    12  C    7.081696   4.592265   7.010133   2.342371   2.578795
    13  C    5.904367   3.184320   5.617381   1.391243   2.604937
    14  H    6.070543   2.892998   5.334678   2.177472   3.643683
    15  S    8.665049   5.972998   8.419679   3.986861   4.118303
    16  C    9.175706   7.015574   9.387063   4.556189   3.961023
    17  C    8.313433   6.576309   8.831397   3.889835   2.862361
    18  H   10.164272   8.037965  10.403028   5.597867   4.934458
    19  H    8.642825   7.302342   9.436361   4.549147   3.194965
    20  H    2.478868   4.700764   4.803321   4.290719   4.244165
    21  H    3.567287   4.507609   5.346728   3.299396   2.846250
    22  H    3.605426   4.499253   5.366801   3.260124   2.969802
                   11         12         13         14         15
    11  C    0.000000
    12  C    1.394337   0.000000
    13  C    2.360260   1.423378   0.000000
    14  H    3.372233   2.211778   1.078096   0.000000
    15  S    2.581942   1.730070   2.862755   3.186959   0.000000
    16  C    2.320272   2.492022   3.857855   4.517664   1.747268
    17  C    1.426142   2.359642   3.602635   4.505315   2.602837
    18  H    3.352050   3.544303   4.886819   5.477638   2.491981
    19  H    2.225575   3.372802   4.502949   5.453687   3.629174
    20  H    5.946787   6.447514   5.661041   6.224361   8.037106
    21  H    4.563684   5.229846   4.671074   5.437969   6.874047
    22  H    4.568257   5.137759   4.541534   5.213585   6.596645
                   16         17         18         19         20
    16  C    0.000000
    17  C    1.378445   0.000000
    18  H    1.078080   2.186246   0.000000
    19  H    2.160242   1.080483   2.583153   0.000000
    20  H    8.075578   6.988856   8.982980   7.043290   0.000000
    21  H    6.792327   5.619844   7.729185   5.683560   1.757279
    22  H    6.526628   5.485101   7.379847   5.526551   1.757741
                   21         22
    21  H    0.000000
    22  H    1.772794   0.000000
 Stoichiometry    C11H8S3
 Framework group  C1[X(C11H8S3)]
 Deg. of freedom    60
 Full point group                 C1      NOp   1
 Largest Abelian subgroup         C1      NOp   1
 Largest concise Abelian subgroup C1      NOp   1
                         Standard orientation:                         
 ---------------------------------------------------------------------
 Center     Atomic      Atomic             Coordinates (Angstroms)
 Number     Number       Type             X           Y           Z
 ---------------------------------------------------------------------
      1          6           0       -4.011176    0.314612    0.223833
      2          6           0       -2.691796    0.857976    0.181517
      3          6           0       -1.718552   -0.120943   -0.012373
      4          6           0       -2.443538    2.328419    0.338690
      5          6           0       -4.054700   -1.052399    0.068917
      6          1           0       -4.899984    0.907135    0.367068
      7         16           0       -2.481945   -1.707897   -0.147577
      8          1           0       -4.945187   -1.659332    0.061742
      9          6           0       -0.278079   -0.034312   -0.138020
     10         16           0        0.560273    1.515848   -0.317121
     11          6           0        2.104755    0.747796   -0.400825
     12          6           0        1.981481   -0.635617   -0.277740
     13          6           0        0.639560   -1.079643   -0.110133
     14          1           0        0.371193   -2.094847    0.134059
     15         16           0        3.466409   -1.345440    0.255443
     16          6           0        4.249436    0.215703    0.306904
     17          6           0        3.396454    1.238691   -0.048101
     18          1           0        5.242982    0.343108    0.705515
     19          1           0        3.630220    2.277959    0.132781
     20          1           0       -3.378584    2.858456    0.516989
     21          1           0       -1.991245    2.754223   -0.556535
     22          1           0       -1.788254    2.531415    1.190448
 ---------------------------------------------------------------------
 Rotational constants (GHZ):           1.2369368           0.2870298           0.2363344
 Standard basis: Aug-CC-pVDZ (5D, 7F)
 There are   434 symmetry adapted cartesian basis functions of A   symmetry.
 There are   406 symmetry adapted basis functions of A   symmetry.
   406 basis functions,   804 primitive gaussians,   434 cartesian basis functions
    61 alpha electrons       61 beta electrons
       nuclear repulsion energy      1124.8159428146 Hartrees.
 NAtoms=   22 NActive=   22 NUniq=   22 SFac= 1.00D+00 NAtFMM=   60 NAOKFM=F Big=F
 Integral buffers will be    131072 words long.
 Raffenetti 1 integral format.
 Two-electron integral symmetry is turned on.
 One-electron integrals computed using PRISM.
 NBasis=   406 RedAO= T EigKep=  3.10D-06  NBF=   406
 NBsUse=   406 1.00D-06 EigRej= -1.00D+00 NBFU=   406
 Initial guess from the checkpoint file:  "/tmp/pbs.4762177[165].pbs/Gau-598351.chk"
 B after Tr=    -0.000000   -0.000000   -0.000000
         Rot=    0.999992   -0.000568   -0.000618    0.003858 Ang=  -0.45 deg.
 ExpMin= 2.97D-02 ExpMax= 1.11D+05 ExpMxC= 1.07D+03 IAcc=3 IRadAn=         5 AccDes= 0.00D+00
 Harris functional with IExCor=  205 and IRadAn=       5 diagonalized for initial guess.
 HarFok:  IExCor=  205 AccDes= 0.00D+00 IRadAn=         5 IDoV= 1 UseB2=F ITyADJ=14
 ICtDFT=  3500011 ScaDFX=  1.000000  1.000000  1.000000  1.000000
 FoFCou: FMM=F IPFlag=           0 FMFlag=      100000 FMFlg1=           0
         NFxFlg=           0 DoJE=T BraDBF=F KetDBF=T FulRan=T
         wScrn=  0.000000 ICntrl=       500 IOpCl=  0 I1Cent=   200000004 NGrid=           0
         NMat0=    1 NMatS0=      1 NMatT0=    0 NMatD0=    1 NMtDS0=    0 NMtDT0=    0
 Petite list used in FoFCou.
 Requested convergence on RMS density matrix=1.00D-08 within 128 cycles.
 Requested convergence on MAX density matrix=1.00D-06.
 Requested convergence on             energy=1.00D-06.
 No special actions if energy rises.
 SCF Done:  E(RHF) =  -1613.79462477     A.U. after   16 cycles
            NFock= 16  Conv=0.41D-08     -V/T= 2.0003
 Calling FoFJK, ICntrl=      2127 FMM=F ISym2X=0 I1Cent= 0 IOpClX= 0 NMat=1 NMatS=1 NMatT=0.
 ***** Axes restored to original set *****
 -------------------------------------------------------------------
 Center     Atomic                   Forces (Hartrees/Bohr)
 Number     Number              X              Y              Z
 -------------------------------------------------------------------
      1        6          -0.002917665   -0.030356986    0.007804955
      2        6           0.019877107   -0.019691630   -0.000234454
      3        6          -0.034103870    0.006686753    0.003336681
      4        6           0.001987506    0.007258764    0.000664534
      5        6           0.000527955    0.028917305   -0.006894299
      6        1           0.000322882    0.001649558   -0.000467380
      7       16           0.002936243    0.006456734   -0.002578942
      8        1           0.002845573   -0.002555450    0.000610407
      9        6           0.032800207   -0.015523801    0.002208478
     10       16          -0.007723304   -0.004994245   -0.006059156
     11        6          -0.001141995   -0.018967856    0.020659330
     12        6          -0.000179483    0.028745309    0.001064573
     13        6          -0.022273389    0.021009600   -0.004993472
     14        1          -0.001900337   -0.001801727   -0.003956750
     15       16           0.009241219   -0.003252767   -0.006602702
     16        6          -0.022864629    0.021505912   -0.008794736
     17        6           0.021868642   -0.014380422    0.017641354
     18        1           0.000424046   -0.005589357   -0.003196280
     19        1           0.000838963   -0.003475304   -0.007932246
     20        1          -0.000114885   -0.001700099    0.000041905
     21        1           0.000429520    0.000927042    0.000603938
     22        1          -0.000880309   -0.000867334   -0.002925738
 -------------------------------------------------------------------
 Cartesian Forces:  Max     0.034103870 RMS     0.012542328

 GradGradGradGradGradGradGradGradGradGradGradGradGradGradGradGradGradGrad
 Berny optimization.
 Using GEDIIS/GDIIS optimizer.
 FormGI is forming the generalized inverse of G from B-inverse, IUseBI=4.
 Internal  Forces:  Max     0.030821010 RMS     0.006298374
 Search for a local minimum.
 Step number   2 out of a maximum of  127
 All quantities printed in internal units (Hartrees-Bohrs-Radians)
 Mixed Optimization -- RFO/linear search
 Update second derivatives using D2CorX and points    1    2
 DE= -4.10D-02 DEPred=-4.16D-02 R= 9.84D-01
 TightC=F SS=  1.41D+00  RLast= 3.54D-01 DXNew= 5.0454D-01 1.0624D+00
 Trust test= 9.84D-01 RLast= 3.54D-01 DXMaxT set to 5.05D-01
 ITU=  1  0
 Use linear search instead of GDIIS.
     Eigenvalues ---    0.00935   0.00981   0.01051   0.01211   0.01240
     Eigenvalues ---    0.01274   0.01292   0.01382   0.01461   0.01483
     Eigenvalues ---    0.01500   0.01589   0.01592   0.01712   0.02050
     Eigenvalues ---    0.02367   0.07230   0.07390   0.15455   0.15777
     Eigenvalues ---    0.15832   0.15961   0.15999   0.16000   0.16000
     Eigenvalues ---    0.16019   0.18708   0.22461   0.22561   0.23409
     Eigenvalues ---    0.24278   0.24607   0.24835   0.24996   0.25091
     Eigenvalues ---    0.26257   0.26702   0.28529   0.30680   0.31056
     Eigenvalues ---    0.31454   0.33666   0.33810   0.34534   0.34755
     Eigenvalues ---    0.34943   0.35296   0.35408   0.35845   0.36006
     Eigenvalues ---    0.36072   0.36094   0.36200   0.36812   0.38179
     Eigenvalues ---    0.38907   0.39587   0.40487   0.458841000.00000
     Eigenvalues --- 1000.000001000.000001000.000001000.000001000.00000
     Eigenvalues --- 1000.000001000.000001000.000001000.000001000.00000
     Eigenvalues --- 1000.000001000.000001000.000001000.000001000.00000
     Eigenvalues --- 1000.000001000.000001000.000001000.000001000.00000
     Eigenvalues --- 1000.000001000.000001000.000001000.000001000.00000
     Eigenvalues --- 1000.000001000.000001000.000001000.000001000.00000
     Eigenvalues --- 1000.000001000.000001000.000001000.000001000.00000
     Eigenvalues --- 1000.000001000.000001000.000001000.000001000.00000
     Eigenvalues --- 1000.000001000.000001000.000001000.000001000.00000
     Eigenvalues --- 1000.000001000.000001000.000001000.000001000.00000
     Eigenvalues --- 1000.000001000.000001000.000001000.000001000.00000
     Eigenvalues --- 1000.000001000.00000
 RFO step:  Lambda=-9.22688644D-03 EMin= 9.35071160D-03
 Quartic linear search produced a step of  0.48532.
 Iteration  1 RMS(Cart)=  0.10201434 RMS(Int)=  0.00681106
 Iteration  2 RMS(Cart)=  0.00884690 RMS(Int)=  0.00225658
 Iteration  3 RMS(Cart)=  0.00004110 RMS(Int)=  0.00225629
 Iteration  4 RMS(Cart)=  0.00000006 RMS(Int)=  0.00225629
 Iteration  1 RMS(Cart)=  0.00003596 RMS(Int)=  0.00001689
 Iteration  2 RMS(Cart)=  0.00001965 RMS(Int)=  0.00001886
 Iteration  3 RMS(Cart)=  0.00001074 RMS(Int)=  0.00002131
 Iteration  4 RMS(Cart)=  0.00000587 RMS(Int)=  0.00002293
 Iteration  5 RMS(Cart)=  0.00000321 RMS(Int)=  0.00002388
 Iteration  6 RMS(Cart)=  0.00000175 RMS(Int)=  0.00002441
 Iteration  7 RMS(Cart)=  0.00000096 RMS(Int)=  0.00002471
 Variable       Old X    -DE/DX   Delta X   Delta X   Delta X     New X
                                 (Linear)    (Quad)   (Total)
    R1        2.69761   0.00374  -0.01046   0.02966   0.01922   2.71683
    R2        2.60111  -0.02645  -0.05475  -0.00659  -0.06138   2.53973
    R3        2.03668   0.00074  -0.00060   0.00392   0.00332   2.04000
    R4        2.63417  -0.02494  -0.06061   0.00378  -0.05678   2.57739
    R5        2.83367   0.00601   0.01128   0.00629   0.01758   2.85124
    R6        3.33764  -0.00966  -0.02822   0.00093  -0.02726   3.31037
    R7        2.73733   0.00872  -0.00592   0.04290   0.03698   2.77432
    R8        2.05888  -0.00087  -0.00267   0.00090  -0.00177   2.05712
    R9        2.05911  -0.00037   0.00063  -0.00256  -0.00193   2.05718
   R10        2.06672  -0.00269  -0.00469  -0.00343  -0.00812   2.05860
   R11        3.24577  -0.00292  -0.01987   0.02142   0.00150   3.24727
   R12        2.03651  -0.00097  -0.00205  -0.00043  -0.00247   2.03404
   R13        3.34749  -0.00551  -0.01717   0.01228  -0.00748   3.34001
   R14        2.62907  -0.03082  -0.06704  -0.00563  -0.07429   2.55478
   R15        3.26345   0.00323  -0.00327   0.01827   0.01567   3.27912
   R16        2.63491  -0.02133  -0.04285  -0.02075  -0.05908   2.57584
   R17        2.69502   0.00528   0.00070   0.01332   0.01558   2.71060
   R18        2.68979   0.00258  -0.00800   0.01807   0.01143   2.70123
   R19        3.26936   0.00391  -0.00188   0.01980   0.01776   3.28711
   R20        2.03731  -0.00027  -0.00100   0.00059  -0.00042   2.03689
   R21        3.30186  -0.00488  -0.01555   0.01211  -0.00549   3.29637
   R22        2.60488  -0.02841  -0.06185  -0.00088  -0.06340   2.54149
   R23        2.03728  -0.00114  -0.00290   0.00028  -0.00262   2.03466
   R24        2.04182  -0.00165  -0.00496   0.00161  -0.00334   2.03847
    A1        1.98659   0.00174   0.00795  -0.00724   0.00067   1.98726
    A2        2.16143  -0.00248  -0.00576  -0.00637  -0.01212   2.14930
    A3        2.13516   0.00074  -0.00219   0.01363   0.01146   2.14662
    A4        1.96289  -0.00155  -0.00436  -0.00201  -0.00633   1.95656
    A5        2.12136  -0.00056   0.01083  -0.02264  -0.01186   2.10950
    A6        2.19893   0.00212  -0.00647   0.02463   0.01811   2.21705
    A7        1.91757   0.00299   0.00639   0.00627   0.01273   1.93031
    A8        2.29745  -0.00101  -0.01042   0.01293   0.00248   2.29993
    A9        2.06794  -0.00196   0.00399  -0.01917  -0.01521   2.05272
   A10        1.93064  -0.00230  -0.00721  -0.00404  -0.01121   1.91942
   A11        1.94530   0.00141   0.00544  -0.00062   0.00481   1.95011
   A12        1.94211   0.00116   0.00427   0.00142   0.00570   1.94781
   A13        1.87610   0.00026   0.00097  -0.00141  -0.00042   1.87568
   A14        1.87179   0.00098   0.00277   0.00402   0.00682   1.87861
   A15        1.89507  -0.00155  -0.00651   0.00078  -0.00575   1.88932
   A16        1.94363  -0.00015  -0.00474   0.00723   0.00237   1.94600
   A17        2.19716   0.00383   0.01037   0.01137   0.02176   2.21892
   A18        2.14225  -0.00368  -0.00563  -0.01840  -0.02400   2.11825
   A19        1.61403  -0.00303  -0.00527  -0.00423  -0.00957   1.60446
   A20        2.13145   0.00315   0.00124   0.01439   0.01550   2.14695
   A21        2.22589  -0.00559  -0.00718  -0.01941  -0.02669   2.19921
   A22        1.92558   0.00249   0.00614   0.00571   0.01134   1.93692
   A23        1.60977  -0.00320  -0.00463  -0.01305  -0.01567   1.59411
   A24        1.93683  -0.00292  -0.01168   0.01428   0.00019   1.93702
   A25        2.27177   0.00446   0.01614   0.04434   0.04997   2.32173
   A26        1.98205   0.00145   0.00767  -0.00283   0.00409   1.98614
   A27        1.98587   0.00117   0.00932  -0.00719   0.00099   1.98685
   A28        1.93734  -0.00273  -0.01390   0.02092   0.00413   1.94147
   A29        2.27170   0.00454   0.01664   0.04310   0.04903   2.32073
   A30        1.96610   0.00250   0.00090   0.00099   0.00369   1.96979
   A31        2.15063  -0.00163  -0.00451   0.01009   0.00231   2.15294
   A32        2.15929  -0.00043   0.00587  -0.00170   0.00086   2.16015
   A33        1.59794  -0.00280   0.00211  -0.02567  -0.02062   1.57732
   A34        1.95863   0.00282  -0.00076   0.02213   0.01968   1.97830
   A35        2.12879  -0.00475  -0.00409  -0.02134  -0.03052   2.09826
   A36        2.18683   0.00270   0.00879   0.01603   0.01966   2.20649
   A37        1.94842   0.00127   0.00484  -0.01370  -0.00706   1.94136
   A38        2.17541  -0.00055   0.00423   0.00794   0.00551   2.18092
   A39        2.13747   0.00059  -0.00191   0.02984   0.02142   2.15889
    D1        0.00216  -0.00027  -0.00227  -0.01104  -0.01331  -0.01114
    D2       -3.13647  -0.00000  -0.00093  -0.00288  -0.00391  -3.14038
    D3        3.13970  -0.00024  -0.00192  -0.00620  -0.00819   3.13151
    D4        0.00107   0.00003  -0.00058   0.00196   0.00121   0.00227
    D5       -0.00932   0.00004  -0.00127   0.00825   0.00692  -0.00240
    D6       -3.13263  -0.00029  -0.00118  -0.00396  -0.00530  -3.13793
    D7        3.13626   0.00002  -0.00159   0.00354   0.00187   3.13813
    D8        0.01295  -0.00032  -0.00150  -0.00867  -0.01034   0.00261
    D9        0.00575   0.00040   0.00467   0.00855   0.01326   0.01901
   D10        3.12356   0.00106   0.00288   0.01032   0.01314   3.13670
   D11       -3.13896   0.00011   0.00326  -0.00014   0.00309  -3.13587
   D12       -0.02115   0.00077   0.00147   0.00163   0.00296  -0.01818
   D13        0.03675  -0.00017  -0.00050   0.00360   0.00308   0.03983
   D14       -2.04951   0.00011  -0.00054   0.00847   0.00792  -2.04159
   D15        2.11552   0.00031   0.00107   0.00691   0.00792   2.12344
   D16       -3.10147   0.00015   0.00103   0.01298   0.01404  -3.08742
   D17        1.09546   0.00042   0.00099   0.01785   0.01888   1.11434
   D18       -1.02269   0.00062   0.00260   0.01629   0.01889  -1.00380
   D19       -0.00934  -0.00030  -0.00456  -0.00339  -0.00812  -0.01746
   D20       -3.13071  -0.00087  -0.00284  -0.00533  -0.00823  -3.13894
   D21       -0.17484  -0.00226  -0.00000   0.00000  -0.00000  -0.17485
   D22        2.93956   0.00057   0.00820   0.03561   0.04419   2.98375
   D23        2.94130  -0.00150  -0.00191   0.00222   0.00019   2.94150
   D24       -0.22747   0.00133   0.00629   0.03783   0.04438  -0.18309
   D25        0.01064   0.00014   0.00334  -0.00271   0.00056   0.01120
   D26        3.13462   0.00056   0.00345   0.00941   0.01250  -3.13606
   D27       -3.13594   0.00124   0.00480   0.01351   0.01897  -3.11697
   D28        0.02865  -0.00104  -0.00185  -0.01621  -0.01875   0.00989
   D29        3.13032  -0.00164  -0.00689  -0.01160  -0.01775   3.11257
   D30       -0.13548   0.00217   0.01076   0.06905   0.08044  -0.05505
   D31       -0.03582   0.00094   0.00046   0.02073   0.02207  -0.01375
[...]
 Rotational constants (GHZ):           1.2628124           0.2843869           0.2331379

 **********************************************************************

            Population analysis using the SCF Density.

 **********************************************************************

 Orbital symmetries:
       Occupied  (A) (A) (A) (A) (A) (A) (A) (A) (A) (A) (A) (A)
                 (A) (A) (A) (A) (A) (A) (A) (A) (A) (A) (A) (A)
                 (A) (A) (A) (A) (A) (A) (A) (A) (A) (A) (A) (A)
                 (A) (A) (A) (A) (A) (A) (A) (A) (A) (A) (A) (A)
                 (A) (A) (A) (A) (A) (A) (A) (A) (A) (A) (A) (A)
                 (A)
       Virtual   (A) (A) (A) (A) (A) (A) (A) (A) (A) (A) (A) (A)
                 (A) (A) (A) (A) (A) (A) (A) (A) (A) (A) (A) (A)
                 (A) (A) (A) (A) (A) (A) (A) (A) (A) (A) (A) (A)
                 (A) (A) (A) (A) (A) (A) (A) (A) (A) (A) (A) (A)
                 (A) (A) (A) (A) (A) (A) (A) (A) (A) (A) (A) (A)
                 (A) (A) (A) (A) (A) (A) (A) (A) (A) (A) (A) (A)
                 (A) (A) (A) (A) (A) (A) (A) (A) (A) (A) (A) (A)
                 (A) (A) (A) (A) (A) (A) (A) (A) (A) (A) (A) (A)
                 (A) (A) (A) (A) (A) (A) (A) (A) (A) (A) (A) (A)
                 (A) (A) (A) (A) (A) (A) (A) (A) (A) (A) (A) (A)
                 (A) (A) (A) (A) (A) (A) (A) (A) (A) (A) (A) (A)
                 (A) (A) (A) (A) (A) (A) (A) (A) (A) (A) (A) (A)
                 (A) (A) (A) (A) (A) (A) (A) (A) (A) (A) (A) (A)
                 (A) (A) (A) (A) (A) (A) (A) (A) (A) (A) (A) (A)
                 (A) (A) (A) (A) (A) (A) (A) (A) (A) (A) (A) (A)
                 (A) (A) (A) (A) (A) (A) (A) (A) (A) (A) (A) (A)
                 (A) (A) (A) (A) (A) (A) (A) (A) (A) (A) (A) (A)
                 (A) (A) (A) (A) (A) (A) (A) (A) (A) (A) (A) (A)
                 (A) (A) (A) (A) (A) (A) (A) (A) (A) (A) (A) (A)
                 (A) (A) (A) (A) (A) (A) (A) (A) (A) (A) (A) (A)
                 (A) (A) (A) (A) (A) (A) (A) (A) (A) (A) (A) (A)
                 (A) (A) (A) (A) (A) (A) (A) (A) (A) (A) (A) (A)
                 (A) (A) (A) (A) (A) (A) (A) (A) (A) (A) (A) (A)
                 (A) (A) (A) (A) (A) (A) (A) (A) (A) (A) (A) (A)
                 (A) (A) (A) (A) (A) (A) (A) (A) (A) (A) (A) (A)
                 (A) (A) (A) (A) (A) (A) (A) (A) (A) (A) (A) (A)
                 (A) (A) (A) (A) (A) (A) (A) (A) (A) (A) (A) (A)
                 (A) (A) (A) (A) (A) (A) (A) (A) (A) (A) (A) (A)
                 (A) (A) (A) (A) (A) (A) (A) (A) (A)
 The electronic state is 1-A.
 Alpha  occ. eigenvalues --  -91.99122 -91.99007 -91.98475 -11.29339 -11.28078
 Alpha  occ. eigenvalues --  -11.27722 -11.27290 -11.27212 -11.27101 -11.25830
 Alpha  occ. eigenvalues --  -11.25732 -11.25503 -11.24473 -11.23862  -8.99308
 Alpha  occ. eigenvalues --   -8.99188  -8.98739  -6.67474  -6.67395  -6.67355
 Alpha  occ. eigenvalues --   -6.67277  -6.67184  -6.67070  -6.66911  -6.66817
 Alpha  occ. eigenvalues --   -6.66623  -1.21838  -1.18728  -1.12897  -1.04167
 Alpha  occ. eigenvalues --   -1.02833  -1.01791  -0.95552  -0.94762  -0.92243
 Alpha  occ. eigenvalues --   -0.82348  -0.78016  -0.76689  -0.71614  -0.70492
 Alpha  occ. eigenvalues --   -0.67668  -0.66983  -0.60484  -0.59309  -0.59088
 Alpha  occ. eigenvalues --   -0.56789  -0.56601  -0.55005  -0.53952  -0.52264
 Alpha  occ. eigenvalues --   -0.51974  -0.51697  -0.49654  -0.47153  -0.46826
 Alpha  occ. eigenvalues --   -0.45801  -0.39402  -0.35672  -0.34399  -0.32342
 Alpha  occ. eigenvalues --   -0.27705
 Alpha virt. eigenvalues --    0.03411   0.03460   0.04003   0.04761   0.05024
 Alpha virt. eigenvalues --    0.05912   0.06091   0.06500   0.07442   0.08464
 Alpha virt. eigenvalues --    0.09653   0.10019   0.10345   0.10652   0.11006
 Alpha virt. eigenvalues --    0.12044   0.12224   0.12572   0.12863   0.13192
 Alpha virt. eigenvalues --    0.13278   0.13793   0.14267   0.14611   0.14968
 Alpha virt. eigenvalues --    0.15215   0.15329   0.15710   0.16198   0.16571
 Alpha virt. eigenvalues --    0.17170   0.17383   0.17678   0.18248   0.18697
 Alpha virt. eigenvalues --    0.18936   0.19060   0.19822   0.19992   0.20146
 Alpha virt. eigenvalues --    0.20437   0.21214   0.21266   0.21849   0.22229
 Alpha virt. eigenvalues --    0.22727   0.23041   0.23367   0.24022   0.24425
 Alpha virt. eigenvalues --    0.24881   0.25543   0.25855   0.26278   0.26648
 Alpha virt. eigenvalues --    0.26955   0.27413   0.27627   0.28213   0.28763
 Alpha virt. eigenvalues --    0.29060   0.30115   0.30809   0.31416   0.32119
 Alpha virt. eigenvalues --    0.32591   0.33341   0.33738   0.34132   0.34570
 Alpha virt. eigenvalues --    0.34996   0.35770   0.35961   0.36449   0.36901
 Alpha virt. eigenvalues --    0.37458   0.38404   0.39096   0.39794   0.40049
 Alpha virt. eigenvalues --    0.40579   0.41013   0.41828   0.42277   0.43240
 Alpha virt. eigenvalues --    0.43555   0.43929   0.44194   0.44587   0.45438
 Alpha virt. eigenvalues --    0.45992   0.46198   0.47260   0.47572   0.47952
 Alpha virt. eigenvalues --    0.48144   0.48492   0.49288   0.50060   0.51172
 Alpha virt. eigenvalues --    0.51768   0.52271   0.53400   0.54040   0.55015
 Alpha virt. eigenvalues --    0.55128   0.55765   0.56852   0.57984   0.59082
 Alpha virt. eigenvalues --    0.59598   0.60292   0.61313   0.61651   0.61878
 Alpha virt. eigenvalues --    0.62689   0.63353   0.63425   0.64064   0.64658
 Alpha virt. eigenvalues --    0.65018   0.65802   0.66216   0.66634   0.67207
 Alpha virt. eigenvalues --    0.67463   0.67928   0.68321   0.69079   0.69436
 Alpha virt. eigenvalues --    0.69722   0.70441   0.70719   0.71063   0.72128
 Alpha virt. eigenvalues --    0.72286   0.72614   0.73596   0.74172   0.74304
 Alpha virt. eigenvalues --    0.75051   0.75098   0.76337   0.77239   0.78096
 Alpha virt. eigenvalues --    0.78556   0.78575   0.79062   0.80551   0.81173
 Alpha virt. eigenvalues --    0.81509   0.82134   0.83281   0.83506   0.84336
 Alpha virt. eigenvalues --    0.84738   0.84996   0.85569   0.86812   0.87384
 Alpha virt. eigenvalues --    0.87597   0.88503   0.89306   0.90003   0.90595
 Alpha virt. eigenvalues --    0.91199   0.92653   0.93394   0.93774   0.94699
 Alpha virt. eigenvalues --    0.95565   0.95989   0.97095   0.97360   0.97651
 Alpha virt. eigenvalues --    0.98698   0.99015   0.99571   1.01209   1.02317
 Alpha virt. eigenvalues --    1.02540   1.03935   1.04484   1.05163   1.06475
 Alpha virt. eigenvalues --    1.07471   1.08156   1.08532   1.10039   1.10579
 Alpha virt. eigenvalues --    1.11106   1.11754   1.12573   1.14258   1.16507
 Alpha virt. eigenvalues --    1.17717   1.17837   1.18802   1.20000   1.20863
 Alpha virt. eigenvalues --    1.22229   1.23192   1.23953   1.24764   1.26043
 Alpha virt. eigenvalues --    1.27418   1.28519   1.29349   1.29789   1.29900
 Alpha virt. eigenvalues --    1.31659   1.32081   1.33408   1.33752   1.34509
 Alpha virt. eigenvalues --    1.35505   1.36435   1.37730   1.39730   1.40790
 Alpha virt. eigenvalues --    1.41429   1.42829   1.43768   1.44651   1.47364
 Alpha virt. eigenvalues --    1.48665   1.49673   1.52253   1.52689   1.54261
 Alpha virt. eigenvalues --    1.55409   1.56670   1.57477   1.57676   1.58922
 Alpha virt. eigenvalues --    1.61074   1.61995   1.63006   1.64599   1.65985
 Alpha virt. eigenvalues --    1.66439   1.67686   1.69252   1.69504   1.70577
 Alpha virt. eigenvalues --    1.71102   1.71705   1.72870   1.73408   1.74150
 Alpha virt. eigenvalues --    1.75828   1.77021   1.77595   1.78464   1.80212
 Alpha virt. eigenvalues --    1.81143   1.81913   1.82474   1.83838   1.85235
 Alpha virt. eigenvalues --    1.85825   1.86808   1.87943   1.88939   1.90533
 Alpha virt. eigenvalues --    1.91333   1.92324   1.95142   1.95805   1.96654
 Alpha virt. eigenvalues --    1.97485   1.98595   2.00367   2.01534   2.01937
 Alpha virt. eigenvalues --    2.03336   2.04167   2.07725   2.08188   2.10413
 Alpha virt. eigenvalues --    2.11042   2.12462   2.12975   2.13894   2.15307
 Alpha virt. eigenvalues --    2.17644   2.18917   2.19396   2.20148   2.21627
 Alpha virt. eigenvalues --    2.21835   2.24247   2.25288   2.27733   2.28492
 Alpha virt. eigenvalues --    2.28883   2.31489   2.34078   2.36130   2.36562
 Alpha virt. eigenvalues --    2.36844   2.37266   2.38311   2.40776   2.42222
 Alpha virt. eigenvalues --    2.42666   2.44084   2.46354   2.49152   2.49563
 Alpha virt. eigenvalues --    2.50832   2.53286   2.53456   2.54733   2.57375
 Alpha virt. eigenvalues --    2.58573   2.62566   2.65172   2.68363   2.71560
 Alpha virt. eigenvalues --    2.73040   2.78213   2.81714   2.83325   2.86267
 Alpha virt. eigenvalues --    2.88292   2.92236   2.93683   2.97550   3.01387
 Alpha virt. eigenvalues --    3.02627   3.08270   3.11731   3.14076   3.20957
 Alpha virt. eigenvalues --    3.29395   3.33842   3.38305   3.45170   3.56607
 Alpha virt. eigenvalues --    3.70012   3.78033   3.91717   4.10222   4.21122
          Condensed to atoms (all electrons):
               1          2          3          4          5          6
     1  C   10.820154  -1.726556  -1.152397  -1.047387  -0.085870  -0.615401
     2  C   -1.726556  13.164262  -3.695525   0.406331  -0.125306   0.313892
     3  C   -1.152397  -3.695525  17.406601  -0.911388  -1.384544   0.126848
     4  C   -1.047387   0.406331  -0.911388   6.042642   0.025759   0.090013
     5  C   -0.085870  -0.125306  -1.384544   0.025759   7.392348  -0.042337
     6  H   -0.615401   0.313892   0.126848   0.090013  -0.042337   1.821274
     7  S   -0.657525  -0.004571  -0.508621   0.132994   0.195987  -0.018799
     8  H    0.123703   0.132298  -0.086282   0.027996   0.073556  -0.064737
     9  C    0.050988  -0.878059  -4.120750  -0.011701   0.667486  -0.065797
    10  S   -0.172660   0.202012  -0.714609   0.106791   0.128244   0.010617
    11  C   -0.009100   0.036023  -0.061641  -0.079976   0.047982   0.004024
    12  C   -0.046597   0.005108   0.408892   0.082145  -0.048324  -0.005046
    13  C   -0.046977  -1.311373   0.637094  -0.063190  -0.544812   0.001497
    14  H   -0.020352   0.108976  -0.055243   0.016848   0.016781  -0.001111
    15  S    0.001023  -0.013354  -0.042662  -0.002022   0.002004   0.000050
    16  C   -0.000850  -0.008131   0.025512  -0.004454   0.001078   0.000121
    17  C    0.003869   0.051015  -0.353106  -0.046833   0.004241   0.000349
    18  H    0.000097   0.000345  -0.000583  -0.000366  -0.000013   0.000010
    19  H   -0.000257   0.001898  -0.001898  -0.000518   0.000643  -0.000008
    20  H    0.082777  -0.044079   0.065859  -0.022242   0.033884  -0.032453
    21  H    0.010138  -0.004121  -0.033900   0.339523  -0.005626   0.004291
    22  H   -0.027092   0.028291  -0.067946   0.298997  -0.017131   0.007199
               7          8          9         10         11         12
     1  C   -0.657525   0.123703   0.050988  -0.172660  -0.009100  -0.046597
     2  C   -0.004571   0.132298  -0.878059   0.202012   0.036023   0.005108
     3  C   -0.508621  -0.086282  -4.120750  -0.714609  -0.061641   0.408892
     4  C    0.132994   0.027996  -0.011701   0.106791  -0.079976   0.082145
     5  C    0.195987   0.073556   0.667486   0.128244   0.047982  -0.048324
     6  H   -0.018799  -0.064737  -0.065797   0.010617   0.004024  -0.005046
     7  S   16.581135  -0.120202  -0.197362   0.090375   0.033702  -0.114793
     8  H   -0.120202   1.294869   0.005049   0.002833  -0.000664   0.002148
     9  C   -0.197362   0.005049  18.219387   0.439057  -1.125454  -0.401475
    10  S    0.090375   0.002833   0.439057  17.275218   0.185389  -0.772306
    11  C    0.033702  -0.000664  -1.125454   0.185389  12.621358  -1.586977
    12  C   -0.114793   0.002148  -0.401475  -0.772306  -1.586977  14.982434
    13  C   -0.032817  -0.008241  -7.124303  -1.366466  -0.652571  -4.036170
    14  H    0.007947   0.003431   1.338740   0.050687  -0.217721   0.475600
    15  S    0.016626  -0.000085  -0.527546   0.189004   0.232918  -0.748655
    16  C    0.008704  -0.000011  -0.004210  -0.165684  -0.105588  -1.202474
    17  C    0.003743   0.000116  -0.284191  -0.098838  -3.282433  -0.791872
    18  H    0.000155  -0.000004   0.006497   0.013730   0.150870  -0.109177
    19  H    0.000357   0.000014   0.065389   0.060903   0.627517   0.041997
    20  H   -0.012642   0.000061  -0.000741  -0.053311  -0.009423   0.004869
    21  H    0.010875   0.001323  -0.008382   0.018037   0.009240   0.004645
    22  H    0.013323   0.001156   0.034690   0.025641   0.008258   0.005189
              13         14         15         16         17         18
     1  C   -0.046977  -0.020352   0.001023  -0.000850   0.003869   0.000097
     2  C   -1.311373   0.108976  -0.013354  -0.008131   0.051015   0.000345
     3  C    0.637094  -0.055243  -0.042662   0.025512  -0.353106  -0.000583
     4  C   -0.063190   0.016848  -0.002022  -0.004454  -0.046833  -0.000366
     5  C   -0.544812   0.016781   0.002004   0.001078   0.004241  -0.000013
     6  H    0.001497  -0.001111   0.000050   0.000121   0.000349   0.000010
     7  S   -0.032817   0.007947   0.016626   0.008704   0.003743   0.000155
     8  H   -0.008241   0.003431  -0.000085  -0.000011   0.000116  -0.000004
     9  C   -7.124303   1.338740  -0.527546  -0.004210  -0.284191   0.006497
    10  S   -1.366466   0.050687   0.189004  -0.165684  -0.098838   0.013730
    11  C   -0.652571  -0.217721   0.232918  -0.105588  -3.282433   0.150870
    12  C   -4.036170   0.475600  -0.748655  -1.202474  -0.791872  -0.109177
    13  C   22.296569  -2.037438   0.260793   0.133340  -0.508185   0.025353
    14  H   -2.037438   1.953564  -0.072138   0.014876  -0.043835   0.001924
    15  S    0.260793  -0.072138  16.222355   0.237425  -0.115772  -0.140190
    16  C    0.133340   0.014876   0.237425   7.047196   0.110885   0.188201
    17  C   -0.508185  -0.043835  -0.115772   0.110885  11.508040   0.003589
    18  H    0.025353   0.001924  -0.140190   0.188201   0.003589   1.322898
    19  H   -0.048752  -0.000328  -0.003174  -0.114059  -0.645710  -0.071510
    20  H    0.037408   0.000663   0.000200  -0.000444   0.000968  -0.000014
    21  H   -0.036719   0.001119  -0.000433   0.000688  -0.009178   0.000034
    22  H   -0.041833   0.002284  -0.000930   0.000599  -0.011503   0.000027
              19         20         21         22
     1  C   -0.000257   0.082777   0.010138  -0.027092
     2  C    0.001898  -0.044079  -0.004121   0.028291
     3  C   -0.001898   0.065859  -0.033900  -0.067946
     4  C   -0.000518  -0.022242   0.339523   0.298997
     5  C    0.000643   0.033884  -0.005626  -0.017131
     6  H   -0.000008  -0.032453   0.004291   0.007199
     7  S    0.000357  -0.012642   0.010875   0.013323
     8  H    0.000014   0.000061   0.001323   0.001156
     9  C    0.065389  -0.000741  -0.008382   0.034690
    10  S    0.060903  -0.053311   0.018037   0.025641
    11  C    0.627517  -0.009423   0.009240   0.008258
    12  C    0.041997   0.004869   0.004645   0.005189
    13  C   -0.048752   0.037408  -0.036719  -0.041833
    14  H   -0.000328   0.000663   0.001119   0.002284
    15  S   -0.003174   0.000200  -0.000433  -0.000930
    16  C   -0.114059  -0.000444   0.000688   0.000599
    17  C   -0.645710   0.000968  -0.009178  -0.011503
    18  H   -0.071510  -0.000014   0.000034   0.000027
    19  H    1.417320   0.000399   0.000321   0.000214
    20  H    0.000399   1.569265  -0.179217  -0.205691
    21  H    0.000321  -0.179217   0.805415  -0.112669
    22  H    0.000214  -0.205691  -0.112669   0.876706
 Mulliken charges:
               1
     1  C    0.516271
     2  C   -0.639376
     3  C    0.520289
     4  C    0.620038
     5  C   -0.336030
     6  H   -0.534497
     7  S    0.571410
     8  H   -0.388327
     9  C   -0.077314
    10  S    0.545336
    11  C   -0.825734
    12  C   -0.149163
    13  C    0.467793
    14  H   -0.545272
    15  S    0.504563
    16  C   -0.162719
    17  C    0.504642
    18  H   -0.391871
    19  H   -0.330758
    20  H   -0.236095
    21  H    0.184594
    22  H    0.182222
 Sum of Mulliken charges =  -0.00000
 Mulliken charges with hydrogens summed into heavy atoms:
               1
     1  C   -0.018226
     2  C   -0.639376
     3  C    0.520289
     4  C    0.750758
     5  C   -0.724357
     7  S    0.571410
     9  C   -0.077314
    10  S    0.545336
    11  C   -0.825734
    12  C   -0.149163
    13  C   -0.077480
    15  S    0.504563
    16  C   -0.554590
    17  C    0.173884
 Electronic spatial extent (au):  <R**2>=           4365.1349
 Charge=             -0.0000 electrons
 Dipole moment (field-independent basis, Debye):
    X=             -0.6528    Y=              1.2566    Z=              0.1106  Tot=              1.4203
 Quadrupole moment (field-independent basis, Debye-Ang):
   XX=            -85.8777   YY=            -98.6080   ZZ=           -111.6508
   XY=              2.3678   XZ=             -0.7011   YZ=             -0.2179
 Traceless Quadrupole moment (field-independent basis, Debye-Ang):
   XX=             12.8345   YY=              0.1042   ZZ=            -12.9386
   XY=              2.3678   XZ=             -0.7011   YZ=             -0.2179
 Octapole moment (field-independent basis, Debye-Ang**2):
  XXX=             -3.2740  YYY=              4.6079  ZZZ=              0.4346  XYY=             -8.0328
  XXY=             16.3434  XXZ=             -1.6425  XZZ=             -1.0556  YZZ=              2.4665
  YYZ=             -0.1270  XYZ=             -3.9300
 Hexadecapole moment (field-independent basis, Debye-Ang**3):
 XXXX=          -4156.3299 YYYY=          -1148.4690 ZZZZ=           -157.3550 XXXY=             94.5729
 XXXZ=             -8.4597 YYYX=             27.5393 YYYZ=             -3.5406 ZZZX=              0.4279
 ZZZY=              1.2432 XXYY=           -927.2828 XXZZ=           -924.9354 YYZZ=           -233.7378
 XXYZ=              3.6951 YYXZ=             -2.3261 ZZXY=             -8.2463
 N-N= 1.125330052200D+03 E-N=-6.070739604394D+03  KE= 1.613752035117D+03
 Unable to Open any file for archive entry.
 1\1\GINC-CX3-2-6\FOpt\RHF\Aug-CC-pVDZ\C11H8S3\NS5018\26-Oct-2021\0\\# 
 opt=modredundant hf/aug-cc-pvdz\\pBTTT_-10.pdb\\0,1\C,-4.2527689061,-1
 .4811574918,-0.3407673739\C,-2.9197688357,-1.0096667763,-0.6224295433\
 C,-1.9971332786,-2.0090040036,-0.531956925\C,-2.6667693746,0.439616719
 7,-0.9613134729\C,-4.317426012,-2.7951289021,-0.0536883477\H,-5.115972
 9148,-0.8336210508,-0.356347914\S,-2.7600206608,-3.5302252329,-0.11766
 19835\H,-5.1881741151,-3.3781710493,0.1928049829\C,-0.5433050382,-1.99
 94031161,-0.7421245549\S,0.3016323006,-0.6160001836,-1.4391739183\C,1.
 8224765375,-1.442329646,-1.3320665307\C,1.6667109339,-2.6853384879,-0.
 7954824042\C,0.3173129267,-3.0092109339,-0.453483291\H,0.0136987018,-3
 .9441106413,-0.0128064762\S,3.1902685039,-3.5122317611,-0.680745675\C,
 4.0095682494,-2.1346445274,-1.3709718646\C,3.1779384076,-1.1141828347,
 -1.6678571431\H,5.0757618261,-2.168616906,-1.5173167909\H,3.5013682459
 ,-0.1818676301,-2.1012269837\H,-3.5777050419,1.0159938571,-0.813263929
 6\H,-2.3638829599,0.5613742255,-2.0013885153\H,-1.8918094956,0.8729263
 725,-0.3317313452\\Version=ES64L-G16RevC.01\State=1-A\HF=-1613.8119601
 \RMSD=5.701e-09\RMSF=3.366e-04\Dipole=-0.2332356,0.5025655,-0.0727278\
 Quadrupole=9.1727752,-0.9640731,-8.2087022,0.4962386,-3.3043379,-2.793
 3186\PG=C01 [X(C11H8S3)]\\@
 The archive entry for this job was punched.


 MORNING PEOPLE ARE USUALLY ADMIRED AS EARLY BIRDS.
 RECALL BEN FRANKLIN'S APHORISM THAT THE EARLY BIRD GETS THE WORM.
 I IDENTIFY WITH THE WORM. --  CRAIG JAGGER, MINNEAPOLIS, KS.
 Job cpu time:       0 days  4 hours 12 minutes 36.8 seconds.
 Elapsed time:       0 days  0 hours 31 minutes 48.0 seconds.
 File lengths (MBytes):  RWF=    103 Int=      0 D2E=      0 Chk=     13 Scr=      1
 Normal termination of Gaussian 16 at Tue Oct 26 00:47:21 2021.
