 Entering Gaussian System, Link 0=g16
 Input=pBTTT_10.gjf
 Output=pBTTT_10.log
 Initial command:
 /apps/gaussian/g16-c01-avx/g16/l1.exe "/tmp/pbs.4729010[185].pbs/Gau-1099748.inp" -scrdir="/tmp/pbs.4729010[185].pbs/"
 Entering Link 1 = /apps/gaussian/g16-c01-avx/g16/l1.exe PID=   1099749.
  
 Copyright (c) 1988-2019, Gaussian, Inc.  All Rights Reserved.
  
 This is part of the Gaussian(R) 16 program.  It is based on
 the Gaussian(R) 09 system (copyright 2009, Gaussian, Inc.),
 the Gaussian(R) 03 system (copyright 2003, Gaussian, Inc.),
 the Gaussian(R) 98 system (copyright 1998, Gaussian, Inc.),
 the Gaussian(R) 94 system (copyright 1995, Gaussian, Inc.),
 the Gaussian 92(TM) system (copyright 1992, Gaussian, Inc.),
 the Gaussian 90(TM) system (copyright 1990, Gaussian, Inc.),
 the Gaussian 88(TM) system (copyright 1988, Gaussian, Inc.),
 the Gaussian 86(TM) system (copyright 1986, Carnegie Mellon
 University), and the Gaussian 82(TM) system (copyright 1983,
 Carnegie Mellon University). Gaussian is a federally registered
 trademark of Gaussian, Inc.
  
 This software contains proprietary and confidential information,
 including trade secrets, belonging to Gaussian, Inc.
  
 This software is provided under written license and may be
 used, copied, transmitted, or stored only in accord with that
 written license.
  
 The following legend is applicable only to US Government
 contracts under FAR:
  
                    RESTRICTED RIGHTS LEGEND
  
 Use, reproduction and disclosure by the US Government is
 subject to restrictions as set forth in subparagraphs (a)
 and (c) of the Commercial Computer Software - Restricted
 Rights clause in FAR 52.227-19.
  
 Gaussian, Inc.
 340 Quinnipiac St., Bldg. 40, Wallingford CT 06492
  
  
 ---------------------------------------------------------------
 Warning -- This program may not be used in any manner that
 competes with the business of Gaussian, Inc. or will provide
 assistance to any competitor of Gaussian, Inc.  The licensee
 of this program is prohibited from giving any competitor of
 Gaussian, Inc. access to this program.  By using this program,
 the user acknowledges that Gaussian, Inc. is engaged in the
 business of creating and licensing software in the field of
 computational chemistry and represents and warrants to the
 licensee that it is not a competitor of Gaussian, Inc. and that
 it will not use this program in any manner prohibited above.
 ---------------------------------------------------------------
  

 Cite this work as:
 Gaussian 16, Revision C.01,
 M. J. Frisch, G. W. Trucks, H. B. Schlegel, G. E. Scuseria, 
 M. A. Robb, J. R. Cheeseman, G. Scalmani, V. Barone, 
 G. A. Petersson, H. Nakatsuji, X. Li, M. Caricato, A. V. Marenich, 
 J. Bloino, B. G. Janesko, R. Gomperts, B. Mennucci, H. P. Hratchian, 
 J. V. Ortiz, A. F. Izmaylov, J. L. Sonnenberg, D. Williams-Young, 
 F. Ding, F. Lipparini, F. Egidi, J. Goings, B. Peng, A. Petrone, 
 T. Henderson, D. Ranasinghe, V. G. Zakrzewski, J. Gao, N. Rega, 
 G. Zheng, W. Liang, M. Hada, M. Ehara, K. Toyota, R. Fukuda, 
 J. Hasegawa, M. Ishida, T. Nakajima, Y. Honda, O. Kitao, H. Nakai, 
 T. Vreven, K. Throssell, J. A. Montgomery, Jr., J. E. Peralta, 
 F. Ogliaro, M. J. Bearpark, J. J. Heyd, E. N. Brothers, K. N. Kudin, 
 V. N. Staroverov, T. A. Keith, R. Kobayashi, J. Normand, 
 K. Raghavachari, A. P. Rendell, J. C. Burant, S. S. Iyengar, 
 J. Tomasi, M. Cossi, J. M. Millam, M. Klene, C. Adamo, R. Cammi, 
 J. W. Ochterski, R. L. Martin, K. Morokuma, O. Farkas, 
 J. B. Foresman, and D. J. Fox, Gaussian, Inc., Wallingford CT, 2019.
 
 ******************************************
 Gaussian 16:  ES64L-G16RevC.01  3-Jul-2019
                17-Oct-2021 
 ******************************************
 %mem=10GB
 %nprocshared=8
 Will use up to    8 processors via shared memory.
 -------------------------------------
 # opt=modredundant b3lyp/6-311+g(d,p)
 -------------------------------------
 1/18=120,19=15,26=3,38=1/1,3;
 2/9=110,12=2,17=6,18=5,40=1/2;
 3/5=4,6=6,7=111,11=2,25=1,30=1,71=1,74=-5/1,2,3;
 4//1;
 5/5=2,38=5/2;
 6/7=2,8=2,9=2,10=2,28=1/1;
 7//1,2,3,16;
 1/18=20,19=15,26=3/3(2);
 2/9=110/2;
 99//99;
 2/9=110/2;
 3/5=4,6=6,7=111,11=2,25=1,30=1,71=1,74=-5/1,2,3;
 4/5=5,16=3,69=1/1;
 5/5=2,38=5/2;
 7//1,2,3,16;
 1/18=20,19=15,26=3/3(-5);
 2/9=110/2;
 6/7=2,8=2,9=2,10=2,19=2,28=1/1;
 99/9=1/99;
 ------------
 pBTTT_10.pdb
 ------------
 Symbolic Z-matrix:
 Charge =  0 Multiplicity = 1
 C                    -4.25     -1.36     -0.21 
 C                    -2.93     -0.95     -0.61 
 C                    -1.97     -2.05     -0.62 
 C                    -2.66      0.47     -0.96 
 C                    -4.33     -2.76      0.1 
 H                    -5.1      -0.7      -0.14 
 S                    -2.8      -3.56     -0.11 
 H                    -5.23     -3.27      0.41 
 C                    -0.56     -2.13     -0.97 
 S                     0.427    -0.667    -1.268 
 C                     1.854    -1.592    -1.586 
 C                     1.631    -3.009    -1.449 
 C                     0.281    -3.323    -1.086 
 H                    -0.031    -4.31     -0.782 
 S                     3.077    -3.877    -1.051 
 C                     4.024    -2.388    -1.069 
 C                     3.213    -1.226    -1.356 
 H                     5.045    -2.347    -0.717 
 H                     3.544    -0.213    -1.144 
 H                    -3.55      1.09     -0.83 
 H                    -2.35      0.56     -2. 
 H                    -1.88      0.89     -0.31 
 
 The following ModRedundant input section has been read:
 D       2       3       9      10 F                                           
 

 GradGradGradGradGradGradGradGradGradGradGradGradGradGradGradGradGradGrad
 Berny optimization.
 Initialization pass.
                           ----------------------------
                           !    Initial Parameters    !
                           ! (Angstroms and Degrees)  !
 --------------------------                            --------------------------
 ! Name  Definition              Value          Derivative Info.                !
 --------------------------------------------------------------------------------
 ! R1    R(1,2)                  1.4389         estimate D2E/DX2                !
 ! R2    R(1,5)                  1.4361         estimate D2E/DX2                !
 ! R3    R(1,6)                  1.0784         estimate D2E/DX2                !
 ! R4    R(2,3)                  1.46           estimate D2E/DX2                !
 ! R5    R(2,4)                  1.4872         estimate D2E/DX2                !
 ! R6    R(3,7)                  1.797          estimate D2E/DX2                !
 ! R7    R(3,9)                  1.455          estimate D2E/DX2                !
 ! R8    R(4,20)                 1.0924         estimate D2E/DX2                !
 ! R9    R(4,21)                 1.0889         estimate D2E/DX2                !
 ! R10   R(4,22)                 1.0988         estimate D2E/DX2                !
 ! R11   R(5,7)                  1.7393         estimate D2E/DX2                !
 ! R12   R(5,8)                  1.0799         estimate D2E/DX2                !
 ! R13   R(9,10)                 1.7898         estimate D2E/DX2                !
 ! R14   R(9,13)                 1.4642         estimate D2E/DX2                !
 ! R15   R(10,11)                1.7301         estimate D2E/DX2                !
 ! R16   R(11,12)                1.441          estimate D2E/DX2                !
 ! R17   R(11,17)                1.4261         estimate D2E/DX2                !
 ! R18   R(12,13)                1.4328         estimate D2E/DX2                !
 ! R19   R(12,15)                1.7328         estimate D2E/DX2                !
 ! R20   R(13,14)                1.0789         estimate D2E/DX2                !
 ! R21   R(15,16)                1.7647         estimate D2E/DX2                !
 ! R22   R(16,17)                1.4458         estimate D2E/DX2                !
 ! R23   R(16,18)                1.0808         estimate D2E/DX2                !
 ! R24   R(17,19)                1.0866         estimate D2E/DX2                !
 ! A1    A(2,1,5)              112.8843         estimate D2E/DX2                !
 ! A2    A(2,1,6)              124.5209         estimate D2E/DX2                !
 ! A3    A(5,1,6)              122.5942         estimate D2E/DX2                !
 ! A4    A(1,2,3)              112.9799         estimate D2E/DX2                !
 ! A5    A(1,2,4)              120.2665         estimate D2E/DX2                !
 ! A6    A(3,2,4)              126.7536         estimate D2E/DX2                !
 ! A7    A(2,3,7)              109.1138         estimate D2E/DX2                !
 ! A8    A(2,3,9)              132.8639         estimate D2E/DX2                !
 ! A9    A(7,3,9)              118.0132         estimate D2E/DX2                !
 ! A10   A(2,4,20)             111.468          estimate D2E/DX2                !
 ! A11   A(2,4,21)             110.8154         estimate D2E/DX2                !
 ! A12   A(2,4,22)             110.7706         estimate D2E/DX2                !
 ! A13   A(20,4,21)            107.3779         estimate D2E/DX2                !
 ! A14   A(20,4,22)            106.918          estimate D2E/DX2                !
 ! A15   A(21,4,22)            109.3476         estimate D2E/DX2                !
 ! A16   A(1,5,7)              111.9209         estimate D2E/DX2                !
 ! A17   A(1,5,8)              124.6643         estimate D2E/DX2                !
 ! A18   A(7,5,8)              123.4062         estimate D2E/DX2                !
 ! A19   A(3,7,5)               93.0997         estimate D2E/DX2                !
 ! A20   A(3,9,10)             121.9728         estimate D2E/DX2                !
 ! A21   A(3,9,13)             128.3494         estimate D2E/DX2                !
 ! A22   A(10,9,13)            109.6375         estimate D2E/DX2                !
 ! A23   A(9,10,11)             92.7755         estimate D2E/DX2                !
 ! A24   A(10,11,12)           112.3739         estimate D2E/DX2                !
 ! A25   A(10,11,17)           128.2549         estimate D2E/DX2                !
 ! A26   A(12,11,17)           112.6139         estimate D2E/DX2                !
 ! A27   A(11,12,13)           112.6693         estimate D2E/DX2                !
 ! A28   A(11,12,15)           112.6609         estimate D2E/DX2                !
 ! A29   A(13,12,15)           128.1911         estimate D2E/DX2                !
 ! A30   A(9,13,12)            112.5004         estimate D2E/DX2                !
 ! A31   A(9,13,14)            123.8461         estimate D2E/DX2                !
 ! A32   A(12,13,14)           122.9817         estimate D2E/DX2                !
 ! A33   A(12,15,16)            91.3069         estimate D2E/DX2                !
 ! A34   A(15,16,17)           112.2808         estimate D2E/DX2                !
 ! A35   A(15,16,18)           122.3877         estimate D2E/DX2                !
 ! A36   A(17,16,18)           124.3388         estimate D2E/DX2                !
 ! A37   A(11,17,16)           111.1182         estimate D2E/DX2                !
 ! A38   A(11,17,19)           124.1266         estimate D2E/DX2                !
 ! A39   A(16,17,19)           122.6614         estimate D2E/DX2                !
 ! D1    D(5,1,2,3)              0.3915         estimate D2E/DX2                !
 ! D2    D(5,1,2,4)           -179.5973         estimate D2E/DX2                !
 ! D3    D(6,1,2,3)           -179.8811         estimate D2E/DX2                !
 ! D4    D(6,1,2,4)              0.13           estimate D2E/DX2                !
 ! D5    D(2,1,5,7)             -0.3845         estimate D2E/DX2                !
 ! D6    D(2,1,5,8)           -179.3471         estimate D2E/DX2                !
 ! D7    D(6,1,5,7)            179.8822         estimate D2E/DX2                !
 ! D8    D(6,1,5,8)              0.9196         estimate D2E/DX2                !
 ! D9    D(1,2,3,7)             -0.2224         estimate D2E/DX2                !
 ! D10   D(1,2,3,9)            178.6265         estimate D2E/DX2                !
 ! D11   D(4,2,3,7)            179.7656         estimate D2E/DX2                !
 ! D12   D(4,2,3,9)             -1.3855         estimate D2E/DX2                !
 ! D13   D(1,2,4,20)             2.1641         estimate D2E/DX2                !
 ! D14   D(1,2,4,21)          -117.3645         estimate D2E/DX2                !
 ! D15   D(1,2,4,22)           121.0843         estimate D2E/DX2                !
 ! D16   D(3,2,4,20)          -177.8231         estimate D2E/DX2                !
 ! D17   D(3,2,4,21)            62.6483         estimate D2E/DX2                !
 ! D18   D(3,2,4,22)           -58.9029         estimate D2E/DX2                !
 ! D19   D(2,3,7,5)              0.0033         estimate D2E/DX2                !
 ! D20   D(9,3,7,5)           -179.041          estimate D2E/DX2                !
 ! D21   D(2,3,9,10)            10.0078         Frozen                          !
 ! D22   D(2,3,9,13)          -172.5472         estimate D2E/DX2                !
 ! D23   D(7,3,9,10)          -171.2243         estimate D2E/DX2                !
 ! D24   D(7,3,9,13)             6.2207         estimate D2E/DX2                !
 ! D25   D(1,5,7,3)              0.2153         estimate D2E/DX2                !
 ! D26   D(8,5,7,3)            179.1932         estimate D2E/DX2                !
 ! D27   D(3,9,10,11)          179.7824         estimate D2E/DX2                !
 ! D28   D(13,9,10,11)           1.9096         estimate D2E/DX2                !
 ! D29   D(3,9,13,12)         -179.8435         estimate D2E/DX2                !
 ! D30   D(3,9,13,14)           -9.0097         estimate D2E/DX2                !
 ! D31   D(10,9,13,12)          -2.1446         estimate D2E/DX2                !
 ! D32   D(10,9,13,14)         168.6892         estimate D2E/DX2                !
 ! D33   D(9,10,11,12)          -1.2242         estimate D2E/DX2                !
 ! D34   D(9,10,11,17)        -149.8846         estimate D2E/DX2                !
 ! D35   D(10,11,12,13)          0.1811         estimate D2E/DX2                !
 ! D36   D(10,11,12,15)       -154.0417         estimate D2E/DX2                !
 ! D37   D(17,11,12,13)        153.9214         estimate D2E/DX2                !
 ! D38   D(17,11,12,15)         -0.3013         estimate D2E/DX2                !
 ! D39   D(10,11,17,16)        149.757          estimate D2E/DX2                !
 ! D40   D(10,11,17,19)        -14.1133         estimate D2E/DX2                !
 ! D41   D(12,11,17,16)          1.1572         estimate D2E/DX2                !
 ! D42   D(12,11,17,19)       -162.713          estimate D2E/DX2                !
 ! D43   D(11,12,13,9)           1.3019         estimate D2E/DX2                !
 ! D44   D(11,12,13,14)       -169.6234         estimate D2E/DX2                !
 ! D45   D(15,12,13,9)         150.5985         estimate D2E/DX2                !
 ! D46   D(15,12,13,14)        -20.3268         estimate D2E/DX2                !
 ! D47   D(11,12,15,16)         -0.4891         estimate D2E/DX2                !
 ! D48   D(13,12,15,16)       -149.7878         estimate D2E/DX2                !
 ! D49   D(12,15,16,17)          1.153          estimate D2E/DX2                !
 ! D50   D(12,15,16,18)        170.2055         estimate D2E/DX2                !
 ! D51   D(15,16,17,11)         -1.5202         estimate D2E/DX2                !
 ! D52   D(15,16,17,19)        162.6269         estimate D2E/DX2                !
 ! D53   D(18,16,17,11)       -170.3212         estimate D2E/DX2                !
 ! D54   D(18,16,17,19)         -6.1742         estimate D2E/DX2                !
 --------------------------------------------------------------------------------
 Trust Radius=3.00D-01 FncErr=1.00D-07 GrdErr=1.00D-06 EigMax=2.50D+02 EigMin=1.00D-04
 Number of steps in this run=    127 maximum allowed number of steps=    132.
 GradGradGradGradGradGradGradGradGradGradGradGradGradGradGradGradGradGrad

                          Input orientation:                          
 ---------------------------------------------------------------------
 Center     Atomic      Atomic             Coordinates (Angstroms)
 Number     Number       Type             X           Y           Z
 ---------------------------------------------------------------------
      1          6           0       -4.250000   -1.360000   -0.210000
      2          6           0       -2.930000   -0.950000   -0.610000
      3          6           0       -1.970000   -2.050000   -0.620000
      4          6           0       -2.660000    0.470000   -0.960000
      5          6           0       -4.330000   -2.760000    0.100000
      6          1           0       -5.100000   -0.700000   -0.140000
      7         16           0       -2.800000   -3.560000   -0.110000
      8          1           0       -5.230000   -3.270000    0.410000
      9          6           0       -0.560000   -2.130000   -0.970000
     10         16           0        0.427000   -0.667000   -1.268000
     11          6           0        1.854000   -1.592000   -1.586000
     12          6           0        1.631000   -3.009000   -1.449000
     13          6           0        0.281000   -3.323000   -1.086000
     14          1           0       -0.031000   -4.310000   -0.782000
     15         16           0        3.077000   -3.877000   -1.051000
     16          6           0        4.024000   -2.388000   -1.069000
     17          6           0        3.213000   -1.226000   -1.356000
     18          1           0        5.045000   -2.347000   -0.717000
     19          1           0        3.544000   -0.213000   -1.144000
     20          1           0       -3.550000    1.090000   -0.830000
     21          1           0       -2.350000    0.560000   -2.000000
     22          1           0       -1.880000    0.890000   -0.310000
 ---------------------------------------------------------------------
                    Distance matrix (angstroms):
                    1          2          3          4          5
     1  C    0.000000
     2  C    1.438923   0.000000
     3  C    2.417147   1.460034   0.000000
     4  C    2.537617   1.487212   2.634787   0.000000
     5  C    1.436141   2.395871   2.567509   3.787532   0.000000
     6  H    1.078425   2.234346   3.442354   2.827525   2.212261
     7  S    2.636759   2.660639   1.796970   4.121044   1.739253
     8  H    2.234480   3.422397   3.630000   4.740190   1.079907
     9  C    3.845335   2.671872   1.454991   3.342170   3.969219
    10  S    4.844991   3.432565   2.842218   3.304119   5.374116
    11  C    6.261471   4.924571   3.970629   5.001991   6.515265
    12  C    6.232213   5.074064   3.817607   5.545741   6.164002
    13  C    5.015048   4.020973   2.627677   4.801271   4.794256
    14  H    5.179734   4.441102   2.982208   5.458180   4.654227
    15  S    7.792785   6.696705   5.384784   7.198462   7.578663
    16  C    8.381750   7.115943   6.020289   7.270206   8.443593
    17  C    7.551665   6.194283   5.299449   6.125795   7.833897
    18  H    9.360996   8.097140   7.021954   8.207409   9.419590
    19  H    7.933121   6.537660   5.835524   6.244194   8.368669
    20  H    2.622384   2.143455   3.521378   1.092428   4.036806
    21  H    3.240447   2.132745   2.976726   1.088944   4.399182
    22  H    3.269465   2.139650   2.957668   1.098772   4.415099
                    6          7          8          9         10
     6  H    0.000000
     7  S    3.670218   0.000000
     8  H    2.631406   2.501879   0.000000
     9  C    4.831708   2.793224   5.001290   0.000000
    10  S    5.641028   4.485972   6.449259   1.789788   0.000000
    11  C    7.158540   5.264154   7.548692   2.548783   1.730051
    12  C    7.235421   4.661575   7.113180   2.408851   2.639572
    13  C    6.060545   3.240572   5.710687   1.464236   2.666229
    14  H    6.256119   2.946429   5.434341   2.251130   3.703702
    15  S    8.819670   5.960294   8.456312   4.035634   4.168176
    16  C    9.325222   6.990010   9.412857   4.592322   3.992474
    17  C    8.417915   6.569341   8.864589   3.898941   2.842890
    18  H   10.294006   7.961397  10.377749   5.614902   4.944889
    19  H    8.715728   7.246924   9.420363   4.532988   3.152329
    20  H    2.466313   4.764808   4.834211   4.396374   4.369831
    21  H    3.551014   4.555107   5.363898   3.391327   3.122992
    22  H    3.595191   4.548505   5.389480   3.361309   2.943512
                   11         12         13         14         15
    11  C    0.000000
    12  C    1.440967   0.000000
    13  C    2.391796   1.432782   0.000000
    14  H    3.403993   2.213534   1.078855   0.000000
    15  S    2.646352   1.732843   2.850571   3.149526   0.000000
    16  C    2.368503   2.501298   3.858052   4.496607   1.764725
    17  C    1.426092   2.385469   3.614821   4.512656   2.671951
    18  H    3.392295   3.553796   4.876929   5.442736   2.515051
    19  H    2.225557   3.401501   4.508063   5.449503   3.694812
    20  H    6.080121   6.635339   5.849501   6.445593   8.284749
    21  H    4.740898   5.374916   4.778624   5.529755   7.073889
    22  H    4.661680   5.369045   4.798069   5.539096   6.917024
                   16         17         18         19         20
    16  C    0.000000
    17  C    1.445799   0.000000
    18  H    1.080753   2.240800   0.000000
    19  H    2.228598   1.086588   2.643726   0.000000
    20  H    8.337810   7.167894   9.257417   7.219504   0.000000
    21  H    7.084161   5.878052   8.048774   6.005789   1.757783
    22  H    6.795482   5.613397   7.655027   5.597494   1.760483
                   21         22
    21  H    0.000000
    22  H    1.784909   0.000000
 Stoichiometry    C11H8S3
 Framework group  C1[X(C11H8S3)]
 Deg. of freedom    60
 Full point group                 C1      NOp   1
 Largest Abelian subgroup         C1      NOp   1
 Largest concise Abelian subgroup C1      NOp   1
                         Standard orientation:                         
 ---------------------------------------------------------------------
 Center     Atomic      Atomic             Coordinates (Angstroms)
 Number     Number       Type             X           Y           Z
 ---------------------------------------------------------------------
      1          6           0       -4.096634    0.264188    0.130607
      2          6           0       -2.792980    0.862372    0.015888
      3          6           0       -1.716070   -0.122403   -0.030837
      4          6           0       -2.649440    2.341493   -0.042402
      5          6           0       -4.050259   -1.170252    0.182885
      6          1           0       -5.020963    0.817665    0.178340
      7         16           0       -2.421384   -1.771388    0.080894
      8          1           0       -4.916655   -1.810455    0.258367
      9          6           0       -0.272167   -0.004446   -0.165852
     10         16           0        0.564272    1.573965   -0.054810
     11          6           0        2.121508    0.860925   -0.299080
     12          6           0        2.052859   -0.571464   -0.440276
     13          6           0        0.713272   -1.071683   -0.349978
     14          1           0        0.482955   -2.122604   -0.269688
     15         16           0        3.524394   -1.359465    0.024892
     16          6           0        4.280232    0.188839    0.406624
     17          6           0        3.382920    1.303119    0.197952
     18          1           0        5.231452    0.258999    0.914839
     19          1           0        3.558496    2.285763    0.627206
     20          1           0       -3.616504    2.841007    0.050737
     21          1           0       -2.213602    2.650892   -0.991147
     22          1           0       -2.021128    2.704816    0.782534
 ---------------------------------------------------------------------
 Rotational constants (GHZ):           1.1864689           0.2809356           0.2295466
 Standard basis: 6-311+G(d,p) (5D, 7F)
 There are   394 symmetry adapted cartesian basis functions of A   symmetry.
 There are   380 symmetry adapted basis functions of A   symmetry.
   380 basis functions,   610 primitive gaussians,   394 cartesian basis functions
    61 alpha electrons       61 beta electrons
       nuclear repulsion energy      1107.9181937521 Hartrees.
 NAtoms=   22 NActive=   22 NUniq=   22 SFac= 1.00D+00 NAtFMM=   60 NAOKFM=F Big=F
 Integral buffers will be    131072 words long.
 Raffenetti 2 integral format.
 Two-electron integral symmetry is turned on.
 One-electron integrals computed using PRISM.
 NBasis=   380 RedAO= T EigKep=  2.11D-06  NBF=   380
 NBsUse=   378 1.00D-06 EigRej=  8.75D-07 NBFU=   378
 ExpMin= 4.05D-02 ExpMax= 9.34D+04 ExpMxC= 3.17D+03 IAcc=3 IRadAn=         5 AccDes= 0.00D+00
 Harris functional with IExCor=  402 and IRadAn=       5 diagonalized for initial guess.
 HarFok:  IExCor=  402 AccDes= 0.00D+00 IRadAn=         5 IDoV= 1 UseB2=F ITyADJ=14
 ICtDFT=  3500011 ScaDFX=  1.000000  1.000000  1.000000  1.000000
 FoFCou: FMM=F IPFlag=           0 FMFlag=      100000 FMFlg1=           0
         NFxFlg=           0 DoJE=T BraDBF=F KetDBF=T FulRan=T
         wScrn=  0.000000 ICntrl=       500 IOpCl=  0 I1Cent=   200000004 NGrid=           0
         NMat0=    1 NMatS0=      1 NMatT0=    0 NMatD0=    1 NMtDS0=    0 NMtDT0=    0
 Petite list used in FoFCou.
 Requested convergence on RMS density matrix=1.00D-08 within 128 cycles.
 Requested convergence on MAX density matrix=1.00D-06.
 Requested convergence on             energy=1.00D-06.
 No special actions if energy rises.
 SCF Done:  E(RB3LYP) =  -1618.67770062     A.U. after   17 cycles
            NFock= 17  Conv=0.35D-08     -V/T= 2.0028

 **********************************************************************

            Population analysis using the SCF Density.

 **********************************************************************

 Orbital symmetries:
       Occupied  (A) (A) (A) (A) (A) (A) (A) (A) (A) (A) (A) (A)
                 (A) (A) (A) (A) (A) (A) (A) (A) (A) (A) (A) (A)
                 (A) (A) (A) (A) (A) (A) (A) (A) (A) (A) (A) (A)
                 (A) (A) (A) (A) (A) (A) (A) (A) (A) (A) (A) (A)
                 (A) (A) (A) (A) (A) (A) (A) (A) (A) (A) (A) (A)
                 (A)
       Virtual   (A) (A) (A) (A) (A) (A) (A) (A) (A) (A) (A) (A)
                 (A) (A) (A) (A) (A) (A) (A) (A) (A) (A) (A) (A)
                 (A) (A) (A) (A) (A) (A) (A) (A) (A) (A) (A) (A)
                 (A) (A) (A) (A) (A) (A) (A) (A) (A) (A) (A) (A)
                 (A) (A) (A) (A) (A) (A) (A) (A) (A) (A) (A) (A)
                 (A) (A) (A) (A) (A) (A) (A) (A) (A) (A) (A) (A)
                 (A) (A) (A) (A) (A) (A) (A) (A) (A) (A) (A) (A)
                 (A) (A) (A) (A) (A) (A) (A) (A) (A) (A) (A) (A)
                 (A) (A) (A) (A) (A) (A) (A) (A) (A) (A) (A) (A)
                 (A) (A) (A) (A) (A) (A) (A) (A) (A) (A) (A) (A)
                 (A) (A) (A) (A) (A) (A) (A) (A) (A) (A) (A) (A)
                 (A) (A) (A) (A) (A) (A) (A) (A) (A) (A) (A) (A)
                 (A) (A) (A) (A) (A) (A) (A) (A) (A) (A) (A) (A)
                 (A) (A) (A) (A) (A) (A) (A) (A) (A) (A) (A) (A)
                 (A) (A) (A) (A) (A) (A) (A) (A) (A) (A) (A) (A)
                 (A) (A) (A) (A) (A) (A) (A) (A) (A) (A) (A) (A)
                 (A) (A) (A) (A) (A) (A) (A) (A) (A) (A) (A) (A)
                 (A) (A) (A) (A) (A) (A) (A) (A) (A) (A) (A) (A)
                 (A) (A) (A) (A) (A) (A) (A) (A) (A) (A) (A) (A)
                 (A) (A) (A) (A) (A) (A) (A) (A) (A) (A) (A) (A)
                 (A) (A) (A) (A) (A) (A) (A) (A) (A) (A) (A) (A)
                 (A) (A) (A) (A) (A) (A) (A) (A) (A) (A) (A) (A)
                 (A) (A) (A) (A) (A) (A) (A) (A) (A) (A) (A) (A)
                 (A) (A) (A) (A) (A) (A) (A) (A) (A) (A) (A) (A)
                 (A) (A) (A) (A) (A) (A) (A) (A) (A) (A) (A) (A)
                 (A) (A) (A) (A) (A) (A) (A) (A) (A) (A) (A) (A)
                 (A) (A) (A) (A) (A)
 The electronic state is 1-A.
 Alpha  occ. eigenvalues --  -88.89016 -88.88849 -88.88846 -10.23969 -10.23155
 Alpha  occ. eigenvalues --  -10.22030 -10.21929 -10.21791 -10.21560 -10.20637
 Alpha  occ. eigenvalues --  -10.20278 -10.20232 -10.19219 -10.17867  -7.97541
 Alpha  occ. eigenvalues --   -7.97391  -7.97335  -5.93854  -5.93717  -5.93640
 Alpha  occ. eigenvalues --   -5.93496  -5.93350  -5.93267  -5.93093  -5.92927
 Alpha  occ. eigenvalues --   -5.92915  -0.90630  -0.87741  -0.83648  -0.78064
 Alpha  occ. eigenvalues --   -0.77336  -0.74911  -0.71168  -0.69699  -0.67463
 Alpha  occ. eigenvalues --   -0.61211  -0.57871  -0.56887  -0.53209  -0.52099
 Alpha  occ. eigenvalues --   -0.49486  -0.49127  -0.44598  -0.43808  -0.43645
 Alpha  occ. eigenvalues --   -0.41819  -0.41179  -0.39942  -0.39530  -0.38954
 Alpha  occ. eigenvalues --   -0.37896  -0.37402  -0.36872  -0.35137  -0.33921
 Alpha  occ. eigenvalues --   -0.33648  -0.29514  -0.26086  -0.25696  -0.23630
 Alpha  occ. eigenvalues --   -0.19426
 Alpha virt. eigenvalues --   -0.07532  -0.03430  -0.01238  -0.00662  -0.00118
 Alpha virt. eigenvalues --    0.00268   0.00494   0.01106   0.01439   0.02236
 Alpha virt. eigenvalues --    0.02783   0.03048   0.03519   0.03886   0.04688
 Alpha virt. eigenvalues --    0.05008   0.05338   0.05462   0.05815   0.06553
 Alpha virt. eigenvalues --    0.06792   0.07077   0.07498   0.07801   0.08094
 Alpha virt. eigenvalues --    0.08864   0.09605   0.10298   0.10588   0.11055
 Alpha virt. eigenvalues --    0.11397   0.11746   0.11900   0.12682   0.13223
 Alpha virt. eigenvalues --    0.13908   0.14386   0.14919   0.15502   0.15660
 Alpha virt. eigenvalues --    0.15928   0.16172   0.16501   0.16852   0.16908
 Alpha virt. eigenvalues --    0.17731   0.18108   0.18718   0.18821   0.19102
 Alpha virt. eigenvalues --    0.19337   0.19545   0.19881   0.20090   0.20743
 Alpha virt. eigenvalues --    0.21014   0.21362   0.21711   0.22048   0.22337
 Alpha virt. eigenvalues --    0.23305   0.23493   0.23590   0.23887   0.24328
 Alpha virt. eigenvalues --    0.24784   0.25133   0.25447   0.26502   0.27315
 Alpha virt. eigenvalues --    0.27664   0.28787   0.29105   0.29219   0.29804
 Alpha virt. eigenvalues --    0.30575   0.31984   0.32203   0.33038   0.33591
 Alpha virt. eigenvalues --    0.34024   0.34317   0.35614   0.36154   0.36623
 Alpha virt. eigenvalues --    0.37223   0.39214   0.41162   0.41589   0.43163
 Alpha virt. eigenvalues --    0.43908   0.45059   0.45677   0.47127   0.48057
 Alpha virt. eigenvalues --    0.51654   0.52627   0.54670   0.55364   0.55694
 Alpha virt. eigenvalues --    0.55886   0.56329   0.56999   0.57291   0.58045
 Alpha virt. eigenvalues --    0.59238   0.60605   0.61104   0.61412   0.61849
 Alpha virt. eigenvalues --    0.62754   0.63207   0.64239   0.65282   0.66655
 Alpha virt. eigenvalues --    0.66908   0.67915   0.69115   0.69522   0.70017
 Alpha virt. eigenvalues --    0.70337   0.71078   0.71719   0.72565   0.73378
 Alpha virt. eigenvalues --    0.74283   0.75028   0.75908   0.76183   0.76865
 Alpha virt. eigenvalues --    0.77729   0.78660   0.78896   0.80470   0.81443
 Alpha virt. eigenvalues --    0.81934   0.82486   0.83494   0.84679   0.85944
 Alpha virt. eigenvalues --    0.86425   0.88361   0.88969   0.89506   0.91467
 Alpha virt. eigenvalues --    0.91881   0.92073   0.93162   0.94899   0.95455
 Alpha virt. eigenvalues --    0.96027   0.96736   0.97868   1.00001   1.00654
 Alpha virt. eigenvalues --    1.01555   1.03216   1.03829   1.04799   1.05735
 Alpha virt. eigenvalues --    1.07334   1.09633   1.10718   1.14666   1.17060
 Alpha virt. eigenvalues --    1.17983   1.21472   1.25299   1.29259   1.32881
 Alpha virt. eigenvalues --    1.33681   1.34708   1.36259   1.39800   1.40986
 Alpha virt. eigenvalues --    1.42038   1.45688   1.47239   1.49281   1.51185
 Alpha virt. eigenvalues --    1.52755   1.53192   1.54784   1.55808   1.56376
 Alpha virt. eigenvalues --    1.57591   1.59175   1.61536   1.62278   1.64006
 Alpha virt. eigenvalues --    1.64559   1.64766   1.65523   1.67325   1.69241
 Alpha virt. eigenvalues --    1.69872   1.72441   1.73298   1.73699   1.74265
 Alpha virt. eigenvalues --    1.76126   1.77486   1.79866   1.80941   1.81430
 Alpha virt. eigenvalues --    1.82088   1.84262   1.85779   1.86645   1.89612
 Alpha virt. eigenvalues --    1.90980   1.93491   1.94713   1.95430   1.95940
 Alpha virt. eigenvalues --    1.98323   1.99056   2.00318   2.02506   2.03426
 Alpha virt. eigenvalues --    2.06290   2.06787   2.08225   2.09044   2.09985
 Alpha virt. eigenvalues --    2.11989   2.12293   2.13974   2.14723   2.15889
 Alpha virt. eigenvalues --    2.17869   2.20890   2.27946   2.31178   2.35087
 Alpha virt. eigenvalues --    2.35937   2.36434   2.39161   2.43648   2.44881
 Alpha virt. eigenvalues --    2.46926   2.50585   2.51518   2.55208   2.56849
 Alpha virt. eigenvalues --    2.60137   2.60978   2.65120   2.67728   2.68951
 Alpha virt. eigenvalues --    2.69839   2.70470   2.72004   2.72445   2.73675
 Alpha virt. eigenvalues --    2.75150   2.76294   2.80621   2.82466   2.82849
 Alpha virt. eigenvalues --    2.85916   2.91879   2.92596   2.95830   2.97551
 Alpha virt. eigenvalues --    2.98623   2.99944   3.03091   3.03349   3.05005
 Alpha virt. eigenvalues --    3.13308   3.16017   3.21345   3.26016   3.27115
 Alpha virt. eigenvalues --    3.31214   3.36603   3.39353   3.40413   3.47368
 Alpha virt. eigenvalues --    3.57039   3.65205   3.80124   3.81795   3.91952
 Alpha virt. eigenvalues --    3.94720   4.04783   4.10894   4.31184   4.33706
 Alpha virt. eigenvalues --    4.51378   7.94795   7.97832   7.98394  17.27776
 Alpha virt. eigenvalues --   17.28747  17.29928  17.42706  17.45837  17.46809
 Alpha virt. eigenvalues --   17.49302  17.52010  17.54608  23.47569  23.60935
 Alpha virt. eigenvalues --   23.72806  23.77405  23.81856  23.86155  23.88146
 Alpha virt. eigenvalues --   23.94467  23.95882  23.96140  23.98715 189.10854
 Alpha virt. eigenvalues --  189.14590 189.15660
          Condensed to atoms (all electrons):
               1          2          3          4          5          6
     1  C    7.379827   0.079747  -0.809884  -0.052840   0.300464   0.365110
     2  C    0.079747   8.305146   0.342550  -1.709000   0.051857  -0.050770
     3  C   -0.809884   0.342550   7.355656  -0.142812  -0.035604   0.015338
     4  C   -0.052840  -1.709000  -0.142812   7.546244  -0.273526   0.008305
     5  C    0.300464   0.051857  -0.035604  -0.273526   5.740507  -0.006494
     6  H    0.365110  -0.050770   0.015338   0.008305  -0.006494   0.530848
     7  S   -0.627544  -0.453483  -0.829318   0.628199   0.003749   0.013665
     8  H    0.011876  -0.013542   0.001615   0.004964   0.368193  -0.004333
     9  C   -0.427528   0.539907  -0.070849  -0.261970   0.188836  -0.003671
    10  S   -0.165935   0.257597   0.302599  -0.223522   0.092039   0.000998
    11  C   -0.076890  -0.502379  -0.185301   0.164903  -0.036993   0.000070
    12  C    0.064640   0.392551  -0.049152  -0.112674  -0.028404   0.000087
    13  C   -0.078319  -1.428744  -0.598748   0.260507  -0.214290  -0.000087
    14  H   -0.004455   0.007623   0.009390  -0.000067   0.005644   0.000000
    15  S    0.006461   0.018565  -0.015462  -0.004141  -0.002516  -0.000007
    16  C   -0.002374   0.000115  -0.021613  -0.000793   0.000158   0.000002
    17  C    0.009732  -0.020718   0.152764   0.023927  -0.001524  -0.000003
    18  H    0.000003   0.000000   0.000069  -0.000002  -0.000001  -0.000000
    19  H   -0.000012  -0.000144  -0.000875   0.000250   0.000004  -0.000000
    20  H    0.061007  -0.081534  -0.024465   0.401389   0.015484   0.002466
    21  H   -0.000114   0.005888  -0.009871   0.375041   0.000616   0.000026
    22  H   -0.051330  -0.001481   0.058790   0.338401  -0.002960   0.000119
               7          8          9         10         11         12
     1  C   -0.627544   0.011876  -0.427528  -0.165935  -0.076890   0.064640
     2  C   -0.453483  -0.013542   0.539907   0.257597  -0.502379   0.392551
     3  C   -0.829318   0.001615  -0.070849   0.302599  -0.185301  -0.049152
     4  C    0.628199   0.004964  -0.261970  -0.223522   0.164903  -0.112674
     5  C    0.003749   0.368193   0.188836   0.092039  -0.036993  -0.028404
     6  H    0.013665  -0.004333  -0.003671   0.000998   0.000070   0.000087
     7  S   17.766992  -0.012464   0.098226   0.005842   0.228025  -0.480085
     8  H   -0.012464   0.481738  -0.005675  -0.000726  -0.000064   0.000398
     9  C    0.098226  -0.005675   8.860829   0.374941  -1.507171   0.500713
    10  S    0.005842  -0.000726   0.374941  17.862386  -0.982966   1.569596
    11  C    0.228025  -0.000064  -1.507171  -0.982966  13.912536  -5.350049
    12  C   -0.480085   0.000398   0.500713   1.569596  -5.350049  17.091331
    13  C    0.230606   0.002482  -2.431418  -2.540468   1.726137  -6.576089
    14  H    0.023366  -0.000002   0.141165   0.013092  -0.055848  -0.034985
    15  S   -0.042332   0.000013  -0.194226   0.189822   0.797186  -0.500040
    16  C    0.002107  -0.000001   0.042309   0.023440   0.697847  -0.219078
    17  C    0.037811  -0.000006   0.130245  -0.182004  -3.019234  -0.309601
    18  H    0.000012   0.000000  -0.001781   0.000415  -0.020085   0.003774
    19  H    0.000047   0.000000   0.002043   0.028540   0.011894  -0.041157
    20  H   -0.002341  -0.000034  -0.004197   0.001470  -0.000491   0.000909
    21  H    0.001379   0.000006  -0.016853   0.016302  -0.004026   0.000446
    22  H    0.004219   0.000005  -0.020324   0.014360   0.012176  -0.008215
              13         14         15         16         17         18
     1  C   -0.078319  -0.004455   0.006461  -0.002374   0.009732   0.000003
     2  C   -1.428744   0.007623   0.018565   0.000115  -0.020718   0.000000
     3  C   -0.598748   0.009390  -0.015462  -0.021613   0.152764   0.000069
     4  C    0.260507  -0.000067  -0.004141  -0.000793   0.023927  -0.000002
     5  C   -0.214290   0.005644  -0.002516   0.000158  -0.001524  -0.000001
     6  H   -0.000087   0.000000  -0.000007   0.000002  -0.000003  -0.000000
     7  S    0.230606   0.023366  -0.042332   0.002107   0.037811   0.000012
     8  H    0.002482  -0.000002   0.000013  -0.000001  -0.000006   0.000000
     9  C   -2.431418   0.141165  -0.194226   0.042309   0.130245  -0.001781
    10  S   -2.540468   0.013092   0.189822   0.023440  -0.182004   0.000415
    11  C    1.726137  -0.055848   0.797186   0.697847  -3.019234  -0.020085
    12  C   -6.576089  -0.034985  -0.500040  -0.219078  -0.309601   0.003774
    13  C   16.751685   0.232968  -0.314366  -0.417471   0.908338   0.016595
    14  H    0.232968   0.521296   0.006900  -0.000649  -0.007843  -0.000002
    15  S   -0.314366   0.006900  16.644203   0.384640  -0.827594  -0.021277
    16  C   -0.417471  -0.000649   0.384640   5.588692  -0.199551   0.367939
    17  C    0.908338  -0.007843  -0.827594  -0.199551   9.080275   0.009499
    18  H    0.016595  -0.000002  -0.021277   0.367939   0.009499   0.474294
    19  H    0.003084   0.000014   0.002929   0.006650   0.335042  -0.003766
    20  H   -0.000976  -0.000000   0.000010   0.000006  -0.000018   0.000000
    21  H   -0.015376   0.000001  -0.000001   0.000089  -0.001145   0.000000
    22  H    0.001778   0.000012  -0.000213  -0.000126   0.002885  -0.000000
              19         20         21         22
     1  C   -0.000012   0.061007  -0.000114  -0.051330
     2  C   -0.000144  -0.081534   0.005888  -0.001481
     3  C   -0.000875  -0.024465  -0.009871   0.058790
     4  C    0.000250   0.401389   0.375041   0.338401
     5  C    0.000004   0.015484   0.000616  -0.002960
     6  H   -0.000000   0.002466   0.000026   0.000119
     7  S    0.000047  -0.002341   0.001379   0.004219
     8  H    0.000000  -0.000034   0.000006   0.000005
     9  C    0.002043  -0.004197  -0.016853  -0.020324
    10  S    0.028540   0.001470   0.016302   0.014360
    11  C    0.011894  -0.000491  -0.004026   0.012176
    12  C   -0.041157   0.000909   0.000446  -0.008215
    13  C    0.003084  -0.000976  -0.015376   0.001778
    14  H    0.000014  -0.000000   0.000001   0.000012
    15  S    0.002929   0.000010  -0.000001  -0.000213
    16  C    0.006650   0.000006   0.000089  -0.000126
    17  C    0.335042  -0.000018  -0.001145   0.002885
    18  H   -0.003766   0.000000   0.000000  -0.000000
    19  H    0.517360   0.000000  -0.000001  -0.000002
    20  H    0.000000   0.537002  -0.023463  -0.026388
    21  H   -0.000001  -0.023463   0.523989  -0.031244
    22  H   -0.000002  -0.026388  -0.031244   0.546215
 Mulliken charges:
               1
     1  C    0.018357
     2  C    0.260249
     3  C    0.555182
     4  C   -0.970783
     5  C   -0.165241
     6  H    0.128330
     7  S   -0.596678
     8  H    0.165554
     9  C    0.066449
    10  S   -0.657819
    11  C    0.190722
    12  C    0.085085
    13  C    0.482173
    14  H    0.142380
    15  S   -0.128554
    16  C   -0.252339
    17  C   -0.121277
    18  H    0.174314
    19  H    0.138101
    20  H    0.144163
    21  H    0.178311
    22  H    0.163322
 Sum of Mulliken charges =  -0.00000
 Mulliken charges with hydrogens summed into heavy atoms:
               1
     1  C    0.146687
     2  C    0.260249
     3  C    0.555182
     4  C   -0.484988
     5  C    0.000312
     7  S   -0.596678
     9  C    0.066449
    10  S   -0.657819
    11  C    0.190722
    12  C    0.085085
    13  C    0.624553
    15  S   -0.128554
    16  C   -0.078025
    17  C    0.016824
 Electronic spatial extent (au):  <R**2>=           4442.4231
 Charge=             -0.0000 electrons
 Dipole moment (field-independent basis, Debye):
    X=             -0.9017    Y=              0.7665    Z=              1.0677  Tot=              1.5939
 Quadrupole moment (field-independent basis, Debye-Ang):
   XX=            -90.1120   YY=            -97.2190   ZZ=           -109.9664
   XY=              0.2231   XZ=              4.0948   YZ=              1.1247
 Traceless Quadrupole moment (field-independent basis, Debye-Ang):
   XX=              8.9872   YY=              1.8801   ZZ=            -10.8672
   XY=              0.2231   XZ=              4.0948   YZ=              1.1247
 Octapole moment (field-independent basis, Debye-Ang**2):
  XXX=            -25.6671  YYY=              0.1189  ZZZ=              1.7518  XYY=             -8.9982
  XXY=              7.1640  XXZ=             29.1618  XZZ=              4.8046  YZZ=              2.3153
  YYZ=              4.2754  XYZ=              5.2559
 Hexadecapole moment (field-independent basis, Debye-Ang**3):
 XXXX=          -4398.0938 YYYY=          -1190.7945 ZZZZ=           -180.8758 XXXY=             36.4820
 XXXZ=            109.2428 YYYX=             14.5980 YYYZ=              8.3229 ZZZX=              9.7221
 ZZZY=             -0.9844 XXYY=           -944.6564 XXZZ=           -905.9700 YYZZ=           -241.5698
 XXYZ=              7.3408 YYXZ=              9.3831 ZZXY=             -6.6609
 N-N= 1.107918193752D+03 E-N=-6.039070436458D+03  KE= 1.614169720903D+03
 Calling FoFJK, ICntrl=      2127 FMM=F ISym2X=0 I1Cent= 0 IOpClX= 0 NMat=1 NMatS=1 NMatT=0.
 ***** Axes restored to original set *****
 -------------------------------------------------------------------
 Center     Atomic                   Forces (Hartrees/Bohr)
 Number     Number              X              Y              Z
 -------------------------------------------------------------------
      1        6           0.022765227   -0.057613040    0.007347017
      2        6           0.008800616   -0.041658466    0.007320521
      3        6          -0.032383109    0.017108445    0.001640834
      4        6           0.007078996    0.006365454    0.002182879
      5        6           0.006550753    0.051538226   -0.013407904
      6        1          -0.000690173    0.001843250   -0.000238689
      7       16          -0.004092245    0.019196004   -0.003288369
      8        1           0.003451839   -0.004519470    0.000650194
      9        6           0.026618887   -0.035344127   -0.003339099
     10       16          -0.012159798   -0.007731989   -0.006617790
     11        6           0.014835741   -0.029700635    0.015436546
     12        6          -0.025697121    0.030743613    0.014357597
     13        6          -0.016441328    0.048601708   -0.000801324
     14        1          -0.004818438   -0.001047106   -0.003333021
     15       16           0.012836998    0.010991433   -0.007481381
     16        6          -0.036630903    0.045581548   -0.007958224
     17        6           0.023284896   -0.047705974    0.017544479
     18        1           0.000811902   -0.005090675   -0.005279281
     19        1           0.002748582   -0.003284304   -0.008067508
     20        1          -0.000615870   -0.002238328    0.000361392
     21        1           0.004066917    0.002991325   -0.002458400
     22        1          -0.000322368    0.000973107   -0.004570468
 -------------------------------------------------------------------
 Cartesian Forces:  Max     0.057613040 RMS     0.019731989

 GradGradGradGradGradGradGradGradGradGradGradGradGradGradGradGradGradGrad
 Berny optimization.
 FormGI is forming the generalized inverse of G from B-inverse, IUseBI=4.
 Internal  Forces:  Max     0.058127600 RMS     0.011954320
 Search for a local minimum.
 Step number   1 out of a maximum of  127
 All quantities printed in internal units (Hartrees-Bohrs-Radians)
 Mixed Optimization -- RFO/linear search
 Second derivative matrix not updated -- first step.
 ITU=  0
     Eigenvalues ---    0.00935   0.00982   0.01059   0.01215   0.01241
     Eigenvalues ---    0.01275   0.01297   0.01418   0.01457   0.01493
     Eigenvalues ---    0.01498   0.01592   0.01593   0.01765   0.02198
     Eigenvalues ---    0.02652   0.07307   0.07353   0.15080   0.15687
     Eigenvalues ---    0.15736   0.15997   0.16000   0.16000   0.16000
     Eigenvalues ---    0.16000   0.17987   0.22443   0.22545   0.23319
     Eigenvalues ---    0.23978   0.24718   0.24978   0.24995   0.25000
     Eigenvalues ---    0.26147   0.26587   0.28421   0.30920   0.31272
     Eigenvalues ---    0.31572   0.33757   0.33818   0.34533   0.34826
     Eigenvalues ---    0.34935   0.35210   0.35877   0.35904   0.36006
     Eigenvalues ---    0.36133   0.36185   0.36311   0.37598   0.38208
     Eigenvalues ---    0.38438   0.39458   0.39677   0.406181000.00000
     Eigenvalues --- 1000.000001000.000001000.000001000.000001000.00000
     Eigenvalues --- 1000.000001000.000001000.000001000.000001000.00000
     Eigenvalues --- 1000.000001000.000001000.000001000.000001000.00000
     Eigenvalues --- 1000.000001000.000001000.000001000.000001000.00000
     Eigenvalues --- 1000.000001000.000001000.000001000.000001000.00000
     Eigenvalues --- 1000.000001000.000001000.000001000.000001000.00000
     Eigenvalues --- 1000.000001000.000001000.000001000.000001000.00000
     Eigenvalues --- 1000.000001000.000001000.000001000.000001000.00000
     Eigenvalues --- 1000.000001000.000001000.000001000.000001000.00000
     Eigenvalues --- 1000.000001000.000001000.000001000.000001000.00000
     Eigenvalues --- 1000.000001000.000001000.000001000.000001000.00000
     Eigenvalues --- 1000.000001000.00000
 RFO step:  Lambda=-4.73647747D-02 EMin= 9.35106172D-03
 Linear search not attempted -- first point.
 Maximum step size (   0.300) exceeded in Quadratic search.
    -- Step size scaled by   0.923
 Iteration  1 RMS(Cart)=  0.08266841 RMS(Int)=  0.00298860
 Iteration  2 RMS(Cart)=  0.00461876 RMS(Int)=  0.00083733
 Iteration  3 RMS(Cart)=  0.00000910 RMS(Int)=  0.00083730
 Iteration  4 RMS(Cart)=  0.00000001 RMS(Int)=  0.00083730
 Iteration  1 RMS(Cart)=  0.00001868 RMS(Int)=  0.00000826
 Iteration  2 RMS(Cart)=  0.00001019 RMS(Int)=  0.00000923
 Iteration  3 RMS(Cart)=  0.00000556 RMS(Int)=  0.00001042
 Iteration  4 RMS(Cart)=  0.00000303 RMS(Int)=  0.00001121
 Iteration  5 RMS(Cart)=  0.00000165 RMS(Int)=  0.00001167
 Iteration  6 RMS(Cart)=  0.00000090 RMS(Int)=  0.00001193
 Variable       Old X    -DE/DX   Delta X   Delta X   Delta X     New X
                                 (Linear)    (Quad)   (Total)
    R1        2.71917  -0.01567   0.00000  -0.03483  -0.03474   2.68443
    R2        2.71391  -0.05216   0.00000  -0.10884  -0.10886   2.60506
    R3        2.03793   0.00166   0.00000   0.00374   0.00374   2.04166
    R4        2.75906  -0.05248   0.00000  -0.11645  -0.11636   2.64271
    R5        2.81042   0.01063   0.00000   0.02550   0.02550   2.83592
    R6        3.39578  -0.01887   0.00000  -0.05290  -0.05293   3.34285
    R7        2.74954  -0.01556   0.00000  -0.03393  -0.03393   2.71561
    R8        2.06439  -0.00073   0.00000  -0.00171  -0.00171   2.06269
    R9        2.05781   0.00375   0.00000   0.00873   0.00873   2.06654
   R10        2.07638  -0.00256   0.00000  -0.00613  -0.00613   2.07025
   R11        3.28671  -0.01523   0.00000  -0.03732  -0.03742   3.24929
   R12        2.04073  -0.00056   0.00000  -0.00126  -0.00126   2.03947
   R13        3.38221  -0.00978   0.00000  -0.02315  -0.02408   3.35813
   R14        2.76700  -0.05799   0.00000  -0.12938  -0.12993   2.63708
   R15        3.26932   0.00076   0.00000   0.00304   0.00325   3.27258
   R16        2.72303  -0.03144   0.00000  -0.07081  -0.06907   2.65397
   R17        2.69492  -0.00309   0.00000  -0.00924  -0.00856   2.68636
   R18        2.70757  -0.01366   0.00000  -0.03109  -0.03058   2.67699
   R19        3.27460   0.00159   0.00000   0.00598   0.00588   3.28048
   R20        2.03874   0.00141   0.00000   0.00319   0.00319   2.04193
   R21        3.33485  -0.01160   0.00000  -0.02782  -0.02870   3.30615
   R22        2.73216  -0.05813   0.00000  -0.12362  -0.12388   2.60828
   R23        2.04233  -0.00115   0.00000  -0.00260  -0.00260   2.03972
   R24        2.05335  -0.00380   0.00000  -0.00878  -0.00878   2.04458
    A1        1.97020   0.00815   0.00000   0.02118   0.02126   1.99146
    A2        2.17330  -0.00518   0.00000  -0.01553  -0.01557   2.15773
    A3        2.13967  -0.00296   0.00000  -0.00564  -0.00568   2.13399
    A4        1.97187  -0.00228   0.00000  -0.01145  -0.01127   1.96060
    A5        2.09905   0.00977   0.00000   0.03252   0.03243   2.13147
    A6        2.21227  -0.00750   0.00000  -0.02107  -0.02116   2.19111
    A7        1.90440   0.00400   0.00000   0.01453   0.01459   1.91898
    A8        2.31891  -0.00796   0.00000  -0.02584  -0.02588   2.29303
    A9        2.05972   0.00396   0.00000   0.01117   0.01112   2.07084
   A10        1.94548  -0.00412   0.00000  -0.01737  -0.01729   1.92819
   A11        1.93409   0.00386   0.00000   0.01667   0.01666   1.95075
   A12        1.93331   0.00395   0.00000   0.01712   0.01711   1.95042
   A13        1.87410   0.00045   0.00000   0.00285   0.00292   1.87702
   A14        1.86607   0.00045   0.00000   0.00301   0.00308   1.86916
   A15        1.90848  -0.00491   0.00000  -0.02364  -0.02372   1.88475
   A16        1.95339  -0.00248   0.00000  -0.00989  -0.01000   1.94339
   A17        2.17580   0.00703   0.00000   0.03074   0.03079   2.20659
   A18        2.15384  -0.00455   0.00000  -0.02079  -0.02074   2.13311
   A19        1.62490  -0.00739   0.00000  -0.01434  -0.01458   1.61032
   A20        2.12883  -0.00141   0.00000  -0.00422  -0.00420   2.12463
   A21        2.24012  -0.00346   0.00000  -0.01062  -0.01060   2.22952
   A22        1.91354   0.00495   0.00000   0.01549   0.01530   1.92884
   A23        1.61924  -0.00546   0.00000  -0.01292  -0.01234   1.60689
   A24        1.96129  -0.01094   0.00000  -0.02762  -0.02876   1.93253
   A25        2.23847   0.00829   0.00000   0.04975   0.04657   2.28504
   A26        1.96548   0.00631   0.00000   0.01986   0.02014   1.98562
   A27        1.96645   0.00835   0.00000   0.02485   0.02480   1.99125
   A28        1.96630  -0.01363   0.00000  -0.03488  -0.03604   1.93027
   A29        2.23736   0.00896   0.00000   0.05158   0.04857   2.28593
   A30        1.96350   0.00313   0.00000   0.00045   0.00122   1.96472
   A31        2.16152  -0.00445   0.00000  -0.01029  -0.01133   2.15019
   A32        2.14644   0.00187   0.00000   0.01787   0.01679   2.16322
   A33        1.59361   0.00054   0.00000   0.00372   0.00439   1.59799
   A34        1.95967   0.00111   0.00000   0.00178   0.00140   1.96107
   A35        2.13607  -0.00447   0.00000  -0.01395  -0.01533   2.12074
   A36        2.17012   0.00440   0.00000   0.02645   0.02525   2.19537
   A37        1.93938   0.00566   0.00000   0.00936   0.00990   1.94928
   A38        2.16642  -0.00008   0.00000   0.01683   0.01434   2.18076
   A39        2.14085  -0.00366   0.00000  -0.00037  -0.00296   2.13789
    D1        0.00683  -0.00014   0.00000  -0.00502  -0.00504   0.00179
    D2       -3.13456  -0.00014   0.00000  -0.00489  -0.00490  -3.13946
    D3       -3.13952  -0.00006   0.00000  -0.00245  -0.00250   3.14117
    D4        0.00227  -0.00006   0.00000  -0.00233  -0.00236  -0.00009
    D5       -0.00671   0.00015   0.00000   0.00154   0.00150  -0.00521
    D6       -3.13020  -0.00020   0.00000  -0.00224  -0.00230  -3.13249
    D7        3.13954   0.00008   0.00000  -0.00094  -0.00097   3.13857
    D8        0.01605  -0.00027   0.00000  -0.00472  -0.00477   0.01128
    D9       -0.00388   0.00013   0.00000   0.00620   0.00622   0.00233
   D10        3.11762   0.00036   0.00000  -0.00243  -0.00243   3.11519
   D11        3.13750   0.00013   0.00000   0.00607   0.00608  -3.13961
   D12       -0.02418   0.00036   0.00000  -0.00256  -0.00257  -0.02675
   D13        0.03777  -0.00022   0.00000  -0.00343  -0.00344   0.03433
   D14       -2.04840  -0.00064   0.00000  -0.00669  -0.00664  -2.05503
   D15        2.11332   0.00027   0.00000   0.00033   0.00026   2.11358
   D16       -3.10360  -0.00022   0.00000  -0.00329  -0.00328  -3.10688
   D17        1.09342  -0.00064   0.00000  -0.00655  -0.00648   1.08694
   D18       -1.02805   0.00027   0.00000   0.00047   0.00042  -1.02763
   D19        0.00006  -0.00000   0.00000  -0.00442  -0.00452  -0.00446
   D20       -3.12486  -0.00003   0.00000   0.00324   0.00337  -3.12148
   D21        0.17467  -0.00187   0.00000   0.00000  -0.00000   0.17467
   D22       -3.01152   0.00042   0.00000   0.02083   0.02098  -2.99054
   D23       -2.98843  -0.00164   0.00000  -0.00926  -0.00928  -2.99771
   D24        0.10857   0.00064   0.00000   0.01157   0.01170   0.12028
   D25        0.00376  -0.00008   0.00000   0.00173   0.00173   0.00549
   D26        3.12751   0.00040   0.00000   0.00608   0.00597   3.13348
   D27        3.13779   0.00087   0.00000   0.00981   0.00982  -3.13557
   D28        0.03333  -0.00086   0.00000  -0.00701  -0.00738   0.02595
   D29       -3.13886  -0.00160   0.00000  -0.01490  -0.01459   3.12973
   D30       -0.15725   0.00240   0.00000   0.04124   0.04125  -0.11600
   D31       -0.03743   0.00035   0.00000   0.00353   0.00413  -0.03330
   D32        2.94418   0.00435   0.00000   0.05967   0.05998   3.00416
   D33       -0.02137   0.00146   0.00000   0.00973   0.00958  -0.01179
   D34       -2.61598  -0.00727   0.00000  -0.08206  -0.08258  -2.69856
   D35        0.00316  -0.00116   0.00000  -0.00861  -0.00831  -0.00515
   D36       -2.68853  -0.01053   0.00000  -0.09977  -0.09666  -2.78520
   D37        2.68644   0.00784   0.00000   0.08102   0.07885   2.76529
   D38       -0.00526  -0.00153   0.00000  -0.01013  -0.00950  -0.01476
   D39        2.61375   0.00580   0.00000   0.09098   0.09304   2.70679
   D40       -0.24632  -0.00089   0.00000  -0.00575  -0.00483  -0.25115
   D41        0.02020   0.00139   0.00000   0.01097   0.01058   0.03078
   D42       -2.83988  -0.00529   0.00000  -0.08577  -0.08728  -2.92716
   D43        0.02272   0.00057   0.00000   0.00319   0.00276   0.02548
   D44       -2.96049  -0.00271   0.00000  -0.04943  -0.05059  -3.01107
   D45        2.62844   0.00454   0.00000   0.08254   0.08464   2.71308
   D46       -0.35477   0.00125   0.00000   0.02992   0.03130  -0.32347
   D47       -0.00854   0.00123   0.00000   0.00552   0.00525  -0.00329
   D48       -2.61429  -0.00818   0.00000  -0.08864  -0.08865  -2.70294
   D49        0.02012  -0.00034   0.00000   0.00096   0.00087   0.02099
   D50        2.97065   0.00589   0.00000   0.08198   0.08084   3.05148
   D51       -0.02653  -0.00043   0.00000  -0.00667  -0.00619  -0.03273
   D52        2.83837   0.00679   0.00000   0.09162   0.09208   2.93045
   D53       -2.97267  -0.00564   0.00000  -0.08427  -0.08486  -3.05753
   D54       -0.10776   0.00157   0.00000   0.01403   0.01341  -0.09435
         Item               Value     Threshold  Converged?
 Maximum Force            0.058141     0.000450     NO 
 RMS     Force            0.012003     0.000300     NO 
 Maximum Displacement     0.386348     0.001800     NO 
 RMS     Displacement     0.083115     0.001200     NO 
 Predicted change in Energy=-2.774725D-02
 GradGradGradGradGradGradGradGradGradGradGradGradGradGradGradGradGradGrad

                          Input orientation:                          
 ---------------------------------------------------------------------
 Center     Atomic      Atomic             Coordinates (Angstroms)
 Number     Number       Type             X           Y           Z
 ---------------------------------------------------------------------
      1          6           0       -4.210813   -1.408575   -0.246612
      2          6           0       -2.897569   -1.003348   -0.605939
      3          6           0       -1.988315   -2.065592   -0.581712
      4          6           0       -2.570402    0.417001   -0.963271
      5          6           0       -4.324197   -2.749531    0.052291
      6          1           0       -5.054550   -0.735029   -0.205231
      7         16           0       -2.814402   -3.556498   -0.108426
      8          1           0       -5.225954   -3.267975    0.340060
      9          6           0       -0.587058   -2.123952   -0.895003
     10         16           0        0.371457   -0.652876   -1.168994
     11          6           0        1.809749   -1.570109   -1.467389
     12          6           0        1.556493   -2.945935   -1.343480
     13          6           0        0.217159   -3.259116   -1.004570
     14          1           0       -0.125668   -4.253259   -0.756128
     15         16           0        3.033251   -3.816497   -1.069895
     16          6           0        3.970407   -2.340321   -1.129332
     17          6           0        3.181142   -1.224712   -1.323108
     18          1           0        5.029565   -2.335771   -0.921446
     19          1           0        3.556725   -0.217963   -1.196628
     20          1           0       -3.455715    1.048337   -0.868059
     21          1           0       -2.212606    0.504058   -1.992973
     22          1           0       -1.803700    0.835664   -0.302157
 ---------------------------------------------------------------------
                    Distance matrix (angstroms):
                    1          2          3          4          5
     1  C    0.000000
     2  C    1.420540   0.000000
     3  C    2.341679   1.398461   0.000000
     4  C    2.556810   1.500705   2.578309   0.000000
     5  C    1.378536   2.348976   2.515169   3.759533   0.000000
     6  H    1.080402   2.210232   3.363619   2.841265   2.158229
     7  S    2.565664   2.602500   1.768960   4.071730   1.719449
     8  H    2.198195   3.383020   3.574591   4.725428   1.079241
     9  C    3.750170   2.584139   1.437038   3.224090   3.905755
    10  S    4.734878   3.335625   2.812328   3.137116   5.285515
    11  C    6.145206   4.818937   3.931312   4.836162   6.428511
    12  C    6.068641   4.914904   3.731079   5.337149   6.047252
    13  C    4.858595   3.866385   2.543113   4.613680   4.690474
    14  H    5.004023   4.274098   2.878500   5.275506   4.532371
    15  S    7.678043   6.580554   5.340423   7.023874   7.518627
    16  C    8.281286   7.016447   5.990136   7.100182   8.388333
    17  C    7.472192   6.124873   5.289615   5.992075   7.781189
    18  H    9.311266   8.044523   7.031291   8.083254   9.413406
    19  H    7.915475   6.528680   5.877016   6.164359   8.371234
    20  H    2.644388   2.142346   3.454245   1.091526   4.003137
    21  H    3.271204   2.159933   2.940249   1.093565   4.384947
    22  H    3.291487   2.161203   2.920534   1.095528   4.396835
                    6          7          8          9         10
     6  H    0.000000
     7  S    3.603931   0.000000
     8  H    2.596639   2.469812   0.000000
     9  C    4.728993   2.762599   4.934930   0.000000
    10  S    5.511546   4.439090   6.359796   1.777044   0.000000
    11  C    7.029153   5.212992   7.459942   2.525678   1.731773
    12  C    7.063257   4.582888   6.995684   2.339144   2.587059
    13  C    5.899227   3.175196   5.606745   1.395482   2.615977
    14  H    6.080732   2.852067   5.308986   2.183144   3.657916
    15  S    8.698023   5.931869   8.396626   4.000242   4.135634
    16  C    9.213076   6.968139   9.359098   4.568612   3.975108
    17  C    8.325626   6.546695   8.810239   3.897594   2.871424
    18  H   10.235463   7.979911  10.374781   5.620678   4.958970
    19  H    8.683564   7.274699   9.423345   4.571073   3.214940
    20  H    2.485157   4.710926   4.819112   4.277071   4.199040
    21  H    3.578827   4.516834   5.362046   3.279387   2.948698
    22  H    3.611716   4.511112   5.381832   3.254383   2.774611
                   11         12         13         14         15
    11  C    0.000000
    12  C    1.404418   0.000000
    13  C    2.367127   1.416600   0.000000
    14  H    3.383936   2.209919   1.080543   0.000000
    15  S    2.588671   1.735956   2.871465   3.204369   0.000000
    16  C    2.318610   2.497921   3.866086   4.536126   1.749540
    17  C    1.421561   2.366962   3.609080   4.519796   2.608321
    18  H    3.354327   3.551428   4.900890   5.502773   2.489951
    19  H    2.225654   3.385901   4.520862   5.480663   3.638617
    20  H    5.911054   6.426699   5.662402   6.261682   8.112584
    21  H    4.556067   5.150767   4.587176   5.340147   6.858446
    22  H    4.494721   5.164856   4.620009   5.377640   6.754859
                   16         17         18         19         20
    16  C    0.000000
    17  C    1.380243   0.000000
    18  H    1.079376   2.193730   0.000000
    19  H    2.163345   1.081944   2.594242   0.000000
    20  H    8.166918   7.030056   9.135371   7.133427   0.000000
    21  H    6.860468   5.703498   7.852505   5.868617   1.762666
    22  H    6.641642   5.489639   7.558772   5.535735   1.759155
                   21         22
    21  H    0.000000
    22  H    1.770883   0.000000
 Stoichiometry    C11H8S3
 Framework group  C1[X(C11H8S3)]
 Deg. of freedom    60
 Full point group                 C1      NOp   1
 Largest Abelian subgroup         C1      NOp   1
 Largest concise Abelian subgroup C1      NOp   1
                         Standard orientation:                         
 ---------------------------------------------------------------------
 Center     Atomic      Atomic             Coordinates (Angstroms)
 Number     Number       Type             X           Y           Z
 ---------------------------------------------------------------------
      1          6           0       -4.019306    0.280873    0.083201
      2          6           0       -2.719265    0.846575   -0.005165
      3          6           0       -1.715402   -0.127028   -0.012238
      4          6           0       -2.497386    2.328904   -0.079915
      5          6           0       -4.030965   -1.096194    0.145753
      6          1           0       -4.926768    0.866875    0.102729
      7         16           0       -2.437140   -1.738866    0.089207
      8          1           0       -4.904043   -1.727510    0.208496
      9          6           0       -0.286301   -0.017279   -0.115693
     10         16           0        0.541002    1.551600   -0.005809
     11          6           0        2.094577    0.818506   -0.224930
     12          6           0        1.972459   -0.574081   -0.359765
     13          6           0        0.639833   -1.048015   -0.280706
     14          1           0        0.372607   -2.094457   -0.247191
     15         16           0        3.481594   -1.356385   -0.007552
     16          6           0        4.258267    0.178961    0.309280
     17          6           0        3.389988    1.243753    0.177451
     18          1           0        5.273159    0.233391    0.672714
     19          1           0        3.637399    2.240890    0.516729
     20          1           0       -3.448677    2.860864   -0.020806
     21          1           0       -2.014571    2.619991   -1.016954
     22          1           0       -1.875397    2.688517    0.747121
 ---------------------------------------------------------------------
 Rotational constants (GHZ):           1.2350388           0.2883298           0.2354772
 Standard basis: 6-311+G(d,p) (5D, 7F)
 There are   394 symmetry adapted cartesian basis functions of A   symmetry.
 There are   380 symmetry adapted basis functions of A   symmetry.
   380 basis functions,   610 primitive gaussians,   394 cartesian basis functions
    61 alpha electrons       61 beta electrons
       nuclear repulsion energy      1124.4250442727 Hartrees.
 NAtoms=   22 NActive=   22 NUniq=   22 SFac= 1.00D+00 NAtFMM=   60 NAOKFM=F Big=F
 Integral buffers will be    131072 words long.
 Raffenetti 2 integral format.
 Two-electron integral symmetry is turned on.
 One-electron integrals computed using PRISM.
 NBasis=   380 RedAO= T EigKep=  1.44D-06  NBF=   380
 NBsUse=   378 1.00D-06 EigRej=  6.30D-07 NBFU=   378
 Initial guess from the checkpoint file:  "/tmp/pbs.4729010[185].pbs/Gau-1099749.chk"
 B after Tr=    -0.000000    0.000000    0.000000
         Rot=    0.999987    0.000383   -0.000406    0.005006 Ang=   0.58 deg.
 ExpMin= 4.05D-02 ExpMax= 9.34D+04 ExpMxC= 3.17D+03 IAcc=3 IRadAn=         5 AccDes= 0.00D+00
 Harris functional with IExCor=  402 and IRadAn=       5 diagonalized for initial guess.
 HarFok:  IExCor=  402 AccDes= 0.00D+00 IRadAn=         5 IDoV= 1 UseB2=F ITyADJ=14
 ICtDFT=  3500011 ScaDFX=  1.000000  1.000000  1.000000  1.000000
 FoFCou: FMM=F IPFlag=           0 FMFlag=      100000 FMFlg1=           0
         NFxFlg=           0 DoJE=T BraDBF=F KetDBF=T FulRan=T
         wScrn=  0.000000 ICntrl=       500 IOpCl=  0 I1Cent=   200000004 NGrid=           0
         NMat0=    1 NMatS0=      1 NMatT0=    0 NMatD0=    1 NMtDS0=    0 NMtDT0=    0
 Petite list used in FoFCou.
 Requested convergence on RMS density matrix=1.00D-08 within 128 cycles.
 Requested convergence on MAX density matrix=1.00D-06.
 Requested convergence on             energy=1.00D-06.
 No special actions if energy rises.
 SCF Done:  E(RB3LYP) =  -1618.70606316     A.U. after   15 cycles
            NFock= 15  Conv=0.52D-08     -V/T= 2.0023
 Calling FoFJK, ICntrl=      2127 FMM=F ISym2X=0 I1Cent= 0 IOpClX= 0 NMat=1 NMatS=1 NMatT=0.
 ***** Axes restored to original set *****
 -------------------------------------------------------------------
 Center     Atomic                   Forces (Hartrees/Bohr)
 Number     Number              X              Y              Z
 -------------------------------------------------------------------
      1        6          -0.001928958   -0.014326187    0.003958799
      2        6           0.007502255   -0.006592023    0.001090509
      3        6          -0.015327218    0.001618569    0.000391563
      4        6           0.000056375    0.002769020    0.000684384
      5        6          -0.002376937    0.015952721   -0.003806172
      6        1          -0.000432747    0.001794172   -0.000302867
      7       16           0.003078815    0.001008335   -0.000577847
      8        1           0.001945451   -0.002748703    0.000583905
      9        6           0.013934812   -0.009432119   -0.002776116
     10       16          -0.005335424    0.001505846   -0.006010951
     11        6           0.002705676   -0.010130648    0.010296438
     12        6          -0.001758341    0.011674580    0.009973575
     13        6          -0.006456846    0.011688324   -0.000104415
     14        1          -0.001745828   -0.000781536   -0.003258400
     15       16           0.007805660   -0.003910121   -0.005366708
     16        6          -0.010721668    0.013516184   -0.000033686
     17        6           0.008085790   -0.010083673    0.005793750
     18        1           0.000525135   -0.003835995   -0.003079920
     19        1           0.000464612    0.000285736   -0.006082859
     20        1          -0.000654120   -0.000565106   -0.000035045
     21        1           0.001141519    0.000543462    0.000130533
     22        1          -0.000508012    0.000049161   -0.001468470
 -------------------------------------------------------------------
 Cartesian Forces:  Max     0.015952721 RMS     0.006212176

 GradGradGradGradGradGradGradGradGradGradGradGradGradGradGradGradGradGrad
 Berny optimization.
 Using GEDIIS/GDIIS optimizer.
 FormGI is forming the generalized inverse of G from B-inverse, IUseBI=4.
 Internal  Forces:  Max     0.012735463 RMS     0.003118596
 Search for a local minimum.
 Step number   2 out of a maximum of  127
 All quantities printed in internal units (Hartrees-Bohrs-Radians)
 Mixed Optimization -- RFO/linear search
 Update second derivatives using D2CorX and points    1    2
 DE= -2.84D-02 DEPred=-2.77D-02 R= 1.02D+00
 TightC=F SS=  1.41D+00  RLast= 4.19D-01 DXNew= 5.0454D-01 1.2563D+00
 Trust test= 1.02D+00 RLast= 4.19D-01 DXMaxT set to 5.05D-01
 ITU=  1  0
 Use linear search instead of GDIIS.
     Eigenvalues ---    0.00935   0.00982   0.01051   0.01210   0.01240
     Eigenvalues ---    0.01273   0.01289   0.01365   0.01463   0.01473
     Eigenvalues ---    0.01500   0.01580   0.01592   0.01683   0.01971
     Eigenvalues ---    0.02209   0.07169   0.07366   0.15624   0.15664
     Eigenvalues ---    0.15884   0.15960   0.16000   0.16000   0.16000
     Eigenvalues ---    0.16027   0.19238   0.22476   0.22562   0.23433
     Eigenvalues ---    0.24285   0.24699   0.24877   0.24993   0.25211
     Eigenvalues ---    0.26228   0.26691   0.28382   0.30414   0.30980
     Eigenvalues ---    0.31445   0.33679   0.33810   0.34523   0.34613
     Eigenvalues ---    0.34938   0.35213   0.35623   0.35904   0.36006
     Eigenvalues ---    0.36124   0.36135   0.36219   0.36780   0.38214
     Eigenvalues ---    0.39041   0.39567   0.40477   0.430751000.00000
     Eigenvalues --- 1000.000001000.000001000.000001000.000001000.00000
     Eigenvalues --- 1000.000001000.000001000.000001000.000001000.00000
     Eigenvalues --- 1000.000001000.000001000.000001000.000001000.00000
     Eigenvalues --- 1000.000001000.000001000.000001000.000001000.00000
     Eigenvalues --- 1000.000001000.000001000.000001000.000001000.00000
     Eigenvalues --- 1000.000001000.000001000.000001000.000001000.00000
     Eigenvalues --- 1000.000001000.000001000.000001000.000001000.00000
     Eigenvalues --- 1000.000001000.000001000.000001000.000001000.00000
     Eigenvalues --- 1000.000001000.000001000.000001000.000001000.00000
     Eigenvalues --- 1000.000001000.000001000.000001000.000001000.00000
     Eigenvalues --- 1000.000001000.000001000.000001000.000001000.00000
     Eigenvalues --- 1000.000001000.00000
 RFO step:  Lambda=-7.44188757D-03 EMin= 9.34995949D-03
 Quartic linear search produced a step of  0.29318.
 Iteration  1 RMS(Cart)=  0.09338177 RMS(Int)=  0.00615035
 Iteration  2 RMS(Cart)=  0.00770891 RMS(Int)=  0.00223579
 Iteration  3 RMS(Cart)=  0.00003464 RMS(Int)=  0.00223559
 Iteration  4 RMS(Cart)=  0.00000005 RMS(Int)=  0.00223559
 Iteration  1 RMS(Cart)=  0.00003811 RMS(Int)=  0.00001749
 Iteration  2 RMS(Cart)=  0.00002079 RMS(Int)=  0.00001953
 Iteration  3 RMS(Cart)=  0.00001134 RMS(Int)=  0.00002207
 Iteration  4 RMS(Cart)=  0.00000619 RMS(Int)=  0.00002374
 Iteration  5 RMS(Cart)=  0.00000338 RMS(Int)=  0.00002471
 Iteration  6 RMS(Cart)=  0.00000184 RMS(Int)=  0.00002526
 Iteration  7 RMS(Cart)=  0.00000100 RMS(Int)=  0.00002557
 Iteration  8 RMS(Cart)=  0.00000055 RMS(Int)=  0.00002574
 Variable       Old X    -DE/DX   Delta X   Delta X   Delta X     New X
                                 (Linear)    (Quad)   (Total)
    R1        2.68443   0.00282  -0.01018   0.01961   0.00945   2.69389
    R2        2.60506  -0.01176  -0.03191  -0.00258  -0.03449   2.57057
    R3        2.04166   0.00144   0.00110   0.00376   0.00485   2.04652
    R4        2.64271  -0.00699  -0.03411   0.01411  -0.01998   2.62273
    R5        2.83592   0.00282   0.00748   0.00204   0.00952   2.84544
    R6        3.34285  -0.00387  -0.01552   0.00078  -0.01476   3.32809
    R7        2.71561   0.00744  -0.00995   0.03542   0.02547   2.74108
    R8        2.06269   0.00020  -0.00050   0.00127   0.00077   2.06346
    R9        2.06654   0.00029   0.00256  -0.00178   0.00078   2.06732
   R10        2.07025  -0.00122  -0.00180  -0.00249  -0.00428   2.06596
   R11        3.24929   0.00104  -0.01097   0.01625   0.00525   3.25453
   R12        2.03947  -0.00015  -0.00037  -0.00011  -0.00048   2.03899
   R13        3.35813  -0.00085  -0.00706   0.01304   0.00339   3.36152
   R14        2.63708  -0.01274  -0.03809   0.00216  -0.03759   2.59948
   R15        3.27258   0.00471   0.00095   0.01523   0.01691   3.28949
   R16        2.65397  -0.00753  -0.02025  -0.01330  -0.02893   2.62503
   R17        2.68636   0.00151  -0.00251   0.00423   0.00329   2.68965
   R18        2.67699   0.00037  -0.00897   0.00765   0.00001   2.67699
   R19        3.28048   0.00487   0.00172   0.01571   0.01730   3.29778
   R20        2.04193   0.00052   0.00094   0.00077   0.00171   2.04364
   R21        3.30615  -0.00213  -0.00841   0.00801  -0.00250   3.30365
   R22        2.60828  -0.01227  -0.03632   0.00309  -0.03395   2.57433
   R23        2.03972  -0.00009  -0.00076   0.00051  -0.00025   2.03947
   R24        2.04458  -0.00028  -0.00257   0.00184  -0.00074   2.04384
    A1        1.99146   0.00058   0.00623  -0.00572   0.00054   1.99200
    A2        2.15773  -0.00150  -0.00457  -0.00436  -0.00894   2.14879
    A3        2.13399   0.00092  -0.00167   0.01008   0.00840   2.14239
    A4        1.96060  -0.00038  -0.00330   0.00215  -0.00111   1.95949
    A5        2.13147  -0.00167   0.00951  -0.01958  -0.01010   2.12137
    A6        2.19111   0.00205  -0.00620   0.01743   0.01120   2.20231
    A7        1.91898   0.00040   0.00428  -0.00203   0.00225   1.92123
    A8        2.29303   0.00199  -0.00759   0.01825   0.01066   2.30369
    A9        2.07084  -0.00238   0.00326  -0.01617  -0.01291   2.05793
   A10        1.92819  -0.00131  -0.00507  -0.00263  -0.00766   1.92053
   A11        1.95075   0.00085   0.00488  -0.00054   0.00434   1.95509
   A12        1.95042   0.00109   0.00502   0.00140   0.00642   1.95684
   A13        1.87702   0.00032   0.00086   0.00136   0.00225   1.87927
   A14        1.86916   0.00029   0.00090   0.00163   0.00257   1.87172
   A15        1.88475  -0.00128  -0.00696  -0.00110  -0.00809   1.87667
   A16        1.94339   0.00029  -0.00293   0.00414   0.00114   1.94453
   A17        2.20659   0.00332   0.00903   0.01400   0.02299   2.22959
   A18        2.13311  -0.00360  -0.00608  -0.01793  -0.02404   2.10906
   A19        1.61032  -0.00089  -0.00427   0.00155  -0.00281   1.60751
   A20        2.12463   0.00304  -0.00123   0.01528   0.01418   2.13881
   A21        2.22952  -0.00311  -0.00311  -0.01278  -0.01576   2.21375
   A22        1.92884   0.00010   0.00449  -0.00219   0.00179   1.93063
   A23        1.60689  -0.00123  -0.00362  -0.00634  -0.00791   1.59899
   A24        1.93253  -0.00194  -0.00843   0.00790  -0.00292   1.92961
   A25        2.28504   0.00354   0.01365   0.04487   0.04777   2.33281
   A26        1.98562   0.00056   0.00591  -0.00036   0.00476   1.99038
   A27        1.99125   0.00015   0.00727  -0.00380   0.00241   1.99367
   A28        1.93027  -0.00142  -0.01056   0.01404   0.00081   1.93108
   A29        2.28593   0.00339   0.01424   0.04205   0.04544   2.33137
   A30        1.96472   0.00294   0.00036   0.00504   0.00708   1.97180
   A31        2.15019  -0.00186  -0.00332   0.00263  -0.00392   2.14627
   A32        2.16322  -0.00080   0.00492   0.00017   0.00186   2.16509
   A33        1.59799  -0.00224   0.00129  -0.01873  -0.01460   1.58339
   A34        1.96107   0.00249   0.00041   0.01596   0.01493   1.97600
   A35        2.12074  -0.00457  -0.00449  -0.02080  -0.02987   2.09087
   A36        2.19537   0.00253   0.00740   0.01779   0.02049   2.21586
   A37        1.94928   0.00063   0.00290  -0.01012  -0.00553   1.94375
   A38        2.18076  -0.00057   0.00420   0.00730   0.00493   2.18568
   A39        2.13789   0.00072  -0.00087   0.02275   0.01536   2.15324
    D1        0.00179   0.00001  -0.00148   0.00128  -0.00025   0.00154
    D2       -3.13946  -0.00006  -0.00144  -0.00346  -0.00489   3.13883
    D3        3.14117   0.00003  -0.00073   0.00202   0.00118  -3.14084
    D4       -0.00009  -0.00004  -0.00069  -0.00272  -0.00346  -0.00355
    D5       -0.00521   0.00020   0.00044   0.00780   0.00821   0.00300
    D6       -3.13249  -0.00024  -0.00067  -0.00861  -0.00948   3.14121
    D7        3.13857   0.00019  -0.00028   0.00709   0.00681  -3.13781
    D8        0.01128  -0.00025  -0.00140  -0.00933  -0.01088   0.00040
    D9        0.00233  -0.00020   0.00182  -0.00941  -0.00754  -0.00521
   D10        3.11519   0.00015  -0.00071  -0.00734  -0.00812   3.10707
   D11       -3.13961  -0.00013   0.00178  -0.00449  -0.00265   3.14093
   D12       -0.02675   0.00023  -0.00075  -0.00242  -0.00323  -0.02997
   D13        0.03433  -0.00025  -0.00101  -0.01186  -0.01287   0.02146
   D14       -2.05503  -0.00033  -0.00195  -0.01145  -0.01339  -2.06842
   D15        2.11358  -0.00005   0.00008  -0.01065  -0.01060   2.10298
   D16       -3.10688  -0.00034  -0.00096  -0.01724  -0.01819  -3.12507
   D17        1.08694  -0.00042  -0.00190  -0.01684  -0.01870   1.06823
   D18       -1.02763  -0.00014   0.00012  -0.01603  -0.01592  -1.04355
   D19       -0.00446   0.00027  -0.00132   0.01175   0.01032   0.00586
   D20       -3.12148  -0.00011   0.00099   0.00937   0.01040  -3.11108
   D21        0.17467  -0.00140  -0.00000   0.00000   0.00000   0.17467
   D22       -2.99054   0.00017   0.00615   0.01802   0.02457  -2.96596
   D23       -2.99771  -0.00098  -0.00272   0.00247  -0.00037  -2.99808
   D24        0.12028   0.00060   0.00343   0.02049   0.02420   0.14448
   D25        0.00549  -0.00026   0.00051  -0.01110  -0.01055  -0.00505
   D26        3.13348   0.00021   0.00175   0.00481   0.00617   3.13965
   D27       -3.13557   0.00043   0.00288  -0.00105   0.00195  -3.13362
   D28        0.02595  -0.00085  -0.00216  -0.01608  -0.01881   0.00715
   D29        3.12973  -0.00068  -0.00428   0.00206  -0.00161   3.12812
   D30       -0.11600   0.00215   0.01209   0.08259   0.09495  -0.02105
   D31       -0.03330   0.00079   0.00121   0.01865   0.02069  -0.01261
   D32        3.00416   0.00362   0.01758   0.09917   0.11725   3.12141
   D33       -0.01179   0.00068   0.00281   0.00907   0.01198   0.00020
   D34       -2.69856  -0.00494  -0.02421  -0.12978  -0.15661  -2.85517
   D35       -0.00515  -0.00028  -0.00244  -0.00002  -0.00232  -0.00747
   D36       -2.78520  -0.00588  -0.02834  -0.12824  -0.15048  -2.93568
[...]
     15         16           0        3.523143   -1.354545   -0.126658
     16          6           0        4.315122    0.199129    0.019949
     17          6           0        3.439233    1.241966    0.120129
     18          1           0        5.393590    0.239534    0.024344
     19          1           0        3.746489    2.273910    0.217591
     20          1           0       -3.471542    2.826996   -0.393600
     21          1           0       -1.848113    2.577824   -1.038901
     22          1           0       -2.090093    2.753029    0.698633
 ---------------------------------------------------------------------
 Rotational constants (GHZ):           1.2513797           0.2838218           0.2323444

 **********************************************************************

            Population analysis using the SCF Density.

 **********************************************************************

 Orbital symmetries:
       Occupied  (A) (A) (A) (A) (A) (A) (A) (A) (A) (A) (A) (A)
                 (A) (A) (A) (A) (A) (A) (A) (A) (A) (A) (A) (A)
                 (A) (A) (A) (A) (A) (A) (A) (A) (A) (A) (A) (A)
                 (A) (A) (A) (A) (A) (A) (A) (A) (A) (A) (A) (A)
                 (A) (A) (A) (A) (A) (A) (A) (A) (A) (A) (A) (A)
                 (A)
       Virtual   (A) (A) (A) (A) (A) (A) (A) (A) (A) (A) (A) (A)
                 (A) (A) (A) (A) (A) (A) (A) (A) (A) (A) (A) (A)
                 (A) (A) (A) (A) (A) (A) (A) (A) (A) (A) (A) (A)
                 (A) (A) (A) (A) (A) (A) (A) (A) (A) (A) (A) (A)
                 (A) (A) (A) (A) (A) (A) (A) (A) (A) (A) (A) (A)
                 (A) (A) (A) (A) (A) (A) (A) (A) (A) (A) (A) (A)
                 (A) (A) (A) (A) (A) (A) (A) (A) (A) (A) (A) (A)
                 (A) (A) (A) (A) (A) (A) (A) (A) (A) (A) (A) (A)
                 (A) (A) (A) (A) (A) (A) (A) (A) (A) (A) (A) (A)
                 (A) (A) (A) (A) (A) (A) (A) (A) (A) (A) (A) (A)
                 (A) (A) (A) (A) (A) (A) (A) (A) (A) (A) (A) (A)
                 (A) (A) (A) (A) (A) (A) (A) (A) (A) (A) (A) (A)
                 (A) (A) (A) (A) (A) (A) (A) (A) (A) (A) (A) (A)
                 (A) (A) (A) (A) (A) (A) (A) (A) (A) (A) (A) (A)
                 (A) (A) (A) (A) (A) (A) (A) (A) (A) (A) (A) (A)
                 (A) (A) (A) (A) (A) (A) (A) (A) (A) (A) (A) (A)
                 (A) (A) (A) (A) (A) (A) (A) (A) (A) (A) (A) (A)
                 (A) (A) (A) (A) (A) (A) (A) (A) (A) (A) (A) (A)
                 (A) (A) (A) (A) (A) (A) (A) (A) (A) (A) (A) (A)
                 (A) (A) (A) (A) (A) (A) (A) (A) (A) (A) (A) (A)
                 (A) (A) (A) (A) (A) (A) (A) (A) (A) (A) (A) (A)
                 (A) (A) (A) (A) (A) (A) (A) (A) (A) (A) (A) (A)
                 (A) (A) (A) (A) (A) (A) (A) (A) (A) (A) (A) (A)
                 (A) (A) (A) (A) (A) (A) (A) (A) (A) (A) (A) (A)
                 (A) (A) (A) (A) (A) (A) (A) (A) (A) (A) (A) (A)
                 (A) (A) (A) (A) (A) (A) (A) (A) (A) (A) (A) (A)
                 (A) (A) (A) (A)
 The electronic state is 1-A.
 Alpha  occ. eigenvalues --  -88.88432 -88.88387 -88.88064 -10.22690 -10.21855
 Alpha  occ. eigenvalues --  -10.21161 -10.21044 -10.20977 -10.20567 -10.19461
 Alpha  occ. eigenvalues --  -10.19349 -10.19116 -10.18207 -10.17756  -7.97009
 Alpha  occ. eigenvalues --   -7.96961  -7.96698  -5.93333  -5.93275  -5.93000
 Alpha  occ. eigenvalues --   -5.92967  -5.92910  -5.92618  -5.92529  -5.92507
 Alpha  occ. eigenvalues --   -5.92272  -0.91711  -0.89321  -0.84936  -0.77965
 Alpha  occ. eigenvalues --   -0.77274  -0.75802  -0.71423  -0.70485  -0.68296
 Alpha  occ. eigenvalues --   -0.61545  -0.58043  -0.57017  -0.53378  -0.52426
 Alpha  occ. eigenvalues --   -0.50244  -0.49793  -0.44551  -0.43956  -0.43736
 Alpha  occ. eigenvalues --   -0.42022  -0.41677  -0.40285  -0.39527  -0.38789
 Alpha  occ. eigenvalues --   -0.38175  -0.38011  -0.36689  -0.34732  -0.34459
 Alpha  occ. eigenvalues --   -0.33762  -0.29360  -0.26715  -0.25582  -0.23825
 Alpha  occ. eigenvalues --   -0.20378
 Alpha virt. eigenvalues --   -0.06272  -0.01575  -0.00578  -0.00357   0.00224
 Alpha virt. eigenvalues --    0.00452   0.01473   0.01504   0.02080   0.02545
 Alpha virt. eigenvalues --    0.03042   0.03256   0.03746   0.04475   0.04822
 Alpha virt. eigenvalues --    0.05082   0.05465   0.05697   0.06653   0.06780
 Alpha virt. eigenvalues --    0.07249   0.07333   0.07566   0.07929   0.08144
 Alpha virt. eigenvalues --    0.09189   0.09544   0.10427   0.10905   0.11179
 Alpha virt. eigenvalues --    0.11744   0.12027   0.12086   0.12625   0.13381
 Alpha virt. eigenvalues --    0.14569   0.14856   0.14973   0.15444   0.15929
 Alpha virt. eigenvalues --    0.16160   0.16425   0.16596   0.16784   0.17208
 Alpha virt. eigenvalues --    0.17975   0.18741   0.18933   0.19140   0.19268
 Alpha virt. eigenvalues --    0.19782   0.20049   0.20510   0.20600   0.20783
 Alpha virt. eigenvalues --    0.21052   0.21552   0.21804   0.22585   0.22705
 Alpha virt. eigenvalues --    0.23434   0.23490   0.23895   0.24454   0.25157
 Alpha virt. eigenvalues --    0.25729   0.26593   0.27136   0.28045   0.28312
 Alpha virt. eigenvalues --    0.29102   0.30030   0.30896   0.31458   0.31644
 Alpha virt. eigenvalues --    0.32933   0.33542   0.34154   0.34676   0.34955
 Alpha virt. eigenvalues --    0.36120   0.36593   0.37655   0.38698   0.39549
 Alpha virt. eigenvalues --    0.42387   0.42845   0.42990   0.43912   0.45024
 Alpha virt. eigenvalues --    0.46473   0.47072   0.49038   0.50822   0.52292
 Alpha virt. eigenvalues --    0.52428   0.54277   0.55396   0.55702   0.56584
 Alpha virt. eigenvalues --    0.56831   0.57243   0.58161   0.58502   0.59782
 Alpha virt. eigenvalues --    0.61559   0.62017   0.62685   0.63160   0.63562
 Alpha virt. eigenvalues --    0.64934   0.65587   0.65942   0.67108   0.68087
 Alpha virt. eigenvalues --    0.68986   0.70882   0.71850   0.72005   0.72460
 Alpha virt. eigenvalues --    0.73183   0.73695   0.74075   0.75146   0.75591
 Alpha virt. eigenvalues --    0.76904   0.77979   0.78350   0.78989   0.79531
 Alpha virt. eigenvalues --    0.80424   0.82134   0.82505   0.82862   0.83657
 Alpha virt. eigenvalues --    0.84161   0.85498   0.86267   0.87387   0.88114
 Alpha virt. eigenvalues --    0.89975   0.90284   0.90861   0.92029   0.93187
 Alpha virt. eigenvalues --    0.93356   0.94483   0.96289   0.97504   0.97621
 Alpha virt. eigenvalues --    1.00971   1.01565   1.02053   1.03190   1.04603
 Alpha virt. eigenvalues --    1.05394   1.05875   1.07018   1.07497   1.09057
 Alpha virt. eigenvalues --    1.11829   1.12988   1.14542   1.17642   1.18192
 Alpha virt. eigenvalues --    1.19241   1.24513   1.28424   1.32954   1.34026
 Alpha virt. eigenvalues --    1.34789   1.35580   1.36904   1.39975   1.43480
 Alpha virt. eigenvalues --    1.44886   1.46903   1.51736   1.53207   1.54702
 Alpha virt. eigenvalues --    1.55016   1.56804   1.57882   1.58230   1.59499
 Alpha virt. eigenvalues --    1.59829   1.61238   1.63083   1.64956   1.65219
 Alpha virt. eigenvalues --    1.67155   1.69188   1.69522   1.72681   1.73129
 Alpha virt. eigenvalues --    1.73601   1.74410   1.76592   1.76928   1.77641
 Alpha virt. eigenvalues --    1.80385   1.81024   1.81711   1.83338   1.85648
 Alpha virt. eigenvalues --    1.86477   1.88184   1.90407   1.91221   1.95035
 Alpha virt. eigenvalues --    1.95986   1.97281   1.97955   2.00251   2.01604
 Alpha virt. eigenvalues --    2.03433   2.04824   2.05567   2.07211   2.09385
 Alpha virt. eigenvalues --    2.09662   2.10485   2.12004   2.14046   2.15050
 Alpha virt. eigenvalues --    2.15784   2.17592   2.18695   2.19494   2.22352
 Alpha virt. eigenvalues --    2.22624   2.32030   2.35751   2.36410   2.41183
 Alpha virt. eigenvalues --    2.42247   2.43147   2.45834   2.49105   2.52046
 Alpha virt. eigenvalues --    2.53133   2.55300   2.58515   2.62374   2.64197
 Alpha virt. eigenvalues --    2.67002   2.69176   2.70068   2.70296   2.71070
 Alpha virt. eigenvalues --    2.71747   2.72823   2.74840   2.75042   2.76668
 Alpha virt. eigenvalues --    2.77903   2.83125   2.85207   2.87066   2.89453
 Alpha virt. eigenvalues --    2.93181   2.93765   2.98668   3.00472   3.02473
 Alpha virt. eigenvalues --    3.05576   3.06306   3.12128   3.12937   3.21116
 Alpha virt. eigenvalues --    3.21887   3.28384   3.29652   3.34626   3.35698
 Alpha virt. eigenvalues --    3.42507   3.45438   3.47299   3.53281   3.57654
 Alpha virt. eigenvalues --    3.68718   3.78809   3.83043   3.94385   3.97258
 Alpha virt. eigenvalues --    4.06685   4.13420   4.33666   4.37595   4.59798
 Alpha virt. eigenvalues --    7.98603   8.00412   8.01294  17.27751  17.28691
 Alpha virt. eigenvalues --   17.30085  17.45683  17.47929  17.50825  17.53568
 Alpha virt. eigenvalues --   17.57776  17.58466  23.47392  23.63742  23.77447
 Alpha virt. eigenvalues --   23.81168  23.86388  23.95329  24.02265  24.07306
 Alpha virt. eigenvalues --   24.10863  24.15022  24.15987 189.15448 189.17600
 Alpha virt. eigenvalues --  189.18790
          Condensed to atoms (all electrons):
               1          2          3          4          5          6
     1  C    7.694293   0.316562  -0.717587  -0.471527   0.384973   0.365489
     2  C    0.316562   8.336686   0.439364  -1.702584  -0.018358  -0.058967
     3  C   -0.717587   0.439364   7.847542  -0.073071   0.006099   0.022539
     4  C   -0.471527  -1.702584  -0.073071   7.606552  -0.291546   0.001522
     5  C    0.384973  -0.018358   0.006099  -0.291546   5.709499   0.000957
     6  H    0.365489  -0.058967   0.022539   0.001522   0.000957   0.540075
     7  S   -0.773626  -0.465579  -0.826931   0.646490   0.064012   0.012802
     8  H    0.023575  -0.010097   0.002714   0.004091   0.363695  -0.005623
     9  C   -0.542860   0.615648   0.186092  -0.193561   0.192208  -0.003056
    10  S   -0.073009   0.264901   0.262456  -0.235849   0.098705   0.000857
    11  C   -0.091428  -0.415082  -0.611616   0.157684  -0.031789   0.000212
    12  C   -0.030369  -0.647131  -0.190967   0.126391  -0.088850  -0.000374
    13  C   -0.183560  -0.846484  -1.110335   0.291486  -0.249690   0.000317
    14  H   -0.007336  -0.013501   0.001795   0.001154   0.005724   0.000000
    15  S    0.001744  -0.048662  -0.067632  -0.001739  -0.003857  -0.000006
    16  C   -0.004227  -0.021474  -0.057708   0.002236   0.000244   0.000001
    17  C    0.020704   0.069128   0.248822  -0.009877  -0.004484   0.000006
    18  H    0.000002   0.000073   0.000204  -0.000007  -0.000001   0.000000
    19  H   -0.000036  -0.000871  -0.001201   0.000452   0.000002   0.000000
    20  H    0.048975  -0.069645  -0.012933   0.382366   0.018566   0.003009
    21  H   -0.004753   0.008420   0.022107   0.371690  -0.000195  -0.000018
    22  H   -0.024613  -0.003581   0.011114   0.365628  -0.001170   0.000079
               7          8          9         10         11         12
     1  C   -0.773626   0.023575  -0.542860  -0.073009  -0.091428  -0.030369
     2  C   -0.465579  -0.010097   0.615648   0.264901  -0.415082  -0.647131
     3  C   -0.826931   0.002714   0.186092   0.262456  -0.611616  -0.190967
     4  C    0.646490   0.004091  -0.193561  -0.235849   0.157684   0.126391
     5  C    0.064012   0.363695   0.192208   0.098705  -0.031789  -0.088850
     6  H    0.012802  -0.005623  -0.003056   0.000857   0.000212  -0.000374
     7  S   17.761575  -0.019491  -0.030526   0.026579   0.203207   0.005267
     8  H   -0.019491   0.486089  -0.007158  -0.000865  -0.000184   0.000433
     9  C   -0.030526  -0.007158   9.930727   0.468049  -1.948364  -1.917673
    10  S    0.026579  -0.000865   0.468049  17.947409  -0.106317  -0.937847
    11  C    0.203207  -0.000184  -1.948364  -0.106317  14.812956  -3.620233
    12  C    0.005267   0.000433  -1.917673  -0.937847  -3.620233  11.540278
    13  C   -0.017376   0.002942  -0.437758  -0.709049   0.149960   1.142558
    14  H    0.030575  -0.000002   0.073705   0.020447  -0.076399  -0.081261
    15  S   -0.015046   0.000011  -0.795177   0.058976   0.256161  -0.468160
    16  C    0.007594  -0.000001  -0.239050   0.003136   0.945490  -0.795464
    17  C    0.007623  -0.000008   0.302944  -0.490409  -3.903009   1.818842
    18  H   -0.000001   0.000000   0.007771  -0.002640   0.020908   0.027221
    19  H    0.000022   0.000000  -0.012774   0.029923   0.024721  -0.078068
    20  H   -0.002735  -0.000038  -0.006443   0.005264   0.001570  -0.000303
    21  H    0.002900   0.000008  -0.029492   0.016458  -0.006154  -0.007370
    22  H    0.001381   0.000003  -0.004020   0.005367   0.005033  -0.001786
              13         14         15         16         17         18
     1  C   -0.183560  -0.007336   0.001744  -0.004227   0.020704   0.000002
     2  C   -0.846484  -0.013501  -0.048662  -0.021474   0.069128   0.000073
     3  C   -1.110335   0.001795  -0.067632  -0.057708   0.248822   0.000204
     4  C    0.291486   0.001154  -0.001739   0.002236  -0.009877  -0.000007
     5  C   -0.249690   0.005724  -0.003857   0.000244  -0.004484  -0.000001
     6  H    0.000317   0.000000  -0.000006   0.000001   0.000006   0.000000
     7  S   -0.017376   0.030575  -0.015046   0.007594   0.007623  -0.000001
     8  H    0.002942  -0.000002   0.000011  -0.000001  -0.000008   0.000000
     9  C   -0.437758   0.073705  -0.795177  -0.239050   0.302944   0.007771
    10  S   -0.709049   0.020447   0.058976   0.003136  -0.490409  -0.002640
    11  C    0.149960  -0.076399   0.256161   0.945490  -3.903009   0.020908
    12  C    1.142558  -0.081261  -0.468160  -0.795464   1.818842   0.027221
    13  C    8.305624   0.370599   0.014876   0.070890  -0.863657   0.001791
    14  H    0.370599   0.524027   0.011444  -0.002099   0.003286  -0.000004
    15  S    0.014876   0.011444  17.439669   0.408165  -0.362657  -0.038796
    16  C    0.070890  -0.002099   0.408165   5.620159  -0.200736   0.378502
    17  C   -0.863657   0.003286  -0.362657  -0.200736   9.188458  -0.035714
    18  H    0.001791  -0.000004  -0.038796   0.378502  -0.035714   0.478795
    19  H   -0.002721   0.000005   0.011291   0.028059   0.349375  -0.005010
    20  H   -0.001075  -0.000001  -0.000005   0.000011   0.000276   0.000000
    21  H   -0.023249   0.000011  -0.000260  -0.000310   0.002198  -0.000000
    22  H    0.000869   0.000008   0.000088   0.000098  -0.000664  -0.000000
              19         20         21         22
     1  C   -0.000036   0.048975  -0.004753  -0.024613
     2  C   -0.000871  -0.069645   0.008420  -0.003581
     3  C   -0.001201  -0.012933   0.022107   0.011114
     4  C    0.000452   0.382366   0.371690   0.365628
     5  C    0.000002   0.018566  -0.000195  -0.001170
     6  H    0.000000   0.003009  -0.000018   0.000079
     7  S    0.000022  -0.002735   0.002900   0.001381
     8  H    0.000000  -0.000038   0.000008   0.000003
     9  C   -0.012774  -0.006443  -0.029492  -0.004020
    10  S    0.029923   0.005264   0.016458   0.005367
    11  C    0.024721   0.001570  -0.006154   0.005033
    12  C   -0.078068  -0.000303  -0.007370  -0.001786
    13  C   -0.002721  -0.001075  -0.023249   0.000869
    14  H    0.000005  -0.000001   0.000011   0.000008
    15  S    0.011291  -0.000005  -0.000260   0.000088
    16  C    0.028059   0.000011  -0.000310   0.000098
    17  C    0.349375   0.000276   0.002198  -0.000664
    18  H   -0.005010   0.000000  -0.000000  -0.000000
    19  H    0.523389   0.000000  -0.000001   0.000001
    20  H    0.000000   0.533288  -0.020805  -0.023978
    21  H   -0.000001  -0.020805   0.536371  -0.036405
    22  H    0.000001  -0.023978  -0.036405   0.530242
 Mulliken charges:
               1
     1  C    0.068616
     2  C    0.271233
     3  C    0.619133
     4  C   -0.977985
     5  C   -0.154746
     6  H    0.120180
     7  S   -0.618715
     8  H    0.159906
     9  C    0.390768
    10  S   -0.652543
    11  C    0.232673
    12  C    0.204866
    13  C    0.093041
    14  H    0.137824
    15  S   -0.400430
    16  C   -0.143517
    17  C   -0.140447
    18  H    0.166908
    19  H    0.133443
    20  H    0.144636
    21  H    0.168847
    22  H    0.176307
 Sum of Mulliken charges =  -0.00000
 Mulliken charges with hydrogens summed into heavy atoms:
               1
     1  C    0.188796
     2  C    0.271233
     3  C    0.619133
     4  C   -0.488195
     5  C    0.005160
     7  S   -0.618715
     9  C    0.390768
    10  S   -0.652543
    11  C    0.232673
    12  C    0.204866
    13  C    0.230865
    15  S   -0.400430
    16  C    0.023391
    17  C   -0.007004
 Electronic spatial extent (au):  <R**2>=           4377.5506
 Charge=             -0.0000 electrons
 Dipole moment (field-independent basis, Debye):
    X=             -0.5245    Y=              0.9371    Z=             -0.0986  Tot=              1.0784
 Quadrupole moment (field-independent basis, Debye-Ang):
   XX=            -87.7207   YY=            -97.3116   ZZ=           -109.9037
   XY=              1.8717   XZ=              0.5246   YZ=              0.2121
 Traceless Quadrupole moment (field-independent basis, Debye-Ang):
   XX=             10.5913   YY=              1.0004   ZZ=            -11.5917
   XY=              1.8717   XZ=              0.5246   YZ=              0.2121
 Octapole moment (field-independent basis, Debye-Ang**2):
  XXX=              0.0998  YYY=              2.5108  ZZZ=             -0.1787  XYY=             -6.8573
  XXY=             11.4919  XXZ=              0.7831  XZZ=             -0.4214  YZZ=              1.3986
  YYZ=              0.1474  XYZ=              3.5264
 Hexadecapole moment (field-independent basis, Debye-Ang**3):
 XXXX=          -4229.8885 YYYY=          -1152.6075 ZZZZ=           -155.5566 XXXY=             76.0414
 XXXZ=              6.4285 YYYX=             25.5394 YYYZ=              3.5938 ZZZX=             -1.4936
 ZZZY=             -0.8095 XXYY=           -927.9848 XXZZ=           -916.1251 YYZZ=           -233.1443
 XXYZ=             -2.9753 YYXZ=              2.0064 ZZXY=             -7.6265
 N-N= 1.122142205078D+03 E-N=-6.068560084156D+03  KE= 1.615142774187D+03
 Unable to Open any file for archive entry.
 1\1\GINC-CX3-12-18\FOpt\RB3LYP\6-311+G(d,p)\C11H8S3\NS5018\17-Oct-2021
 \0\\# opt=modredundant b3lyp/6-311+g(d,p)\\pBTTT_10.pdb\\0,1\C,-4.2509
 158703,-1.4283217055,-0.332690106\C,-2.9150200556,-1.0082713338,-0.616
 6331271\C,-2.0097416341,-2.0544338966,-0.5342934632\C,-2.5941438741,0.
 4201598838,-0.9686078818\C,-4.3663696877,-2.753505445,-0.0368360691\H,
 -5.095156635,-0.7507916953,-0.3559072217\S,-2.8318005192,-3.5453892216
 ,-0.0857850037\H,-5.2552741368,-3.3145232894,0.2070668798\C,-0.5731830
 541,-2.0957769085,-0.7343213957\S,0.3971450928,-0.616326419,-0.9073098
 845\C,1.8611678247,-1.5431553657,-1.0692818189\C,1.5916533576,-2.90267
 36629,-0.9906165516\C,0.2236990118,-3.2187401575,-0.8065601307\H,-0.16
 71201352,-4.2244978496,-0.7372048368\S,3.0583995125,-3.8303277528,-1.1
 646683763\C,3.9940809103,-2.3616608833,-1.3382896592\C,3.2346822931,-1
 .2288344882,-1.2694111849\H,5.06150123,-2.433748973,-1.4802815365\H,3.
 6404720401,-0.2305183448,-1.3560959285\H,-3.515952783,0.9919706541,-1.
 0905016206\H,-2.029176701,0.4962944404,-1.9015648018\H,-2.0039461868,0
 .9110724143,-0.1882062812\\Version=ES64L-G16RevC.01\State=1-A\HF=-1618
 .7162482\RMSD=4.708e-09\RMSF=2.724e-04\Dipole=-0.1772447,0.3804795,-0.
 0619888\Quadrupole=7.8338874,0.418001,-8.2518884,0.5068069,-2.0574438,
 -1.1045163\PG=C01 [X(C11H8S3)]\\@
 The archive entry for this job was punched.


 GETTING A SIMPLE ANSWER FROM A PROFESSOR IS LIKE
 GETTING A THIMBLE OF WATER FROM A FIRE HYDRANT.
     -- PROF. LEN SHAPIRO, NDSU
 Job cpu time:       0 days  3 hours  4 minutes 20.7 seconds.
 Elapsed time:       0 days  0 hours 23 minutes 28.4 seconds.
 File lengths (MBytes):  RWF=     97 Int=      0 D2E=      0 Chk=     12 Scr=      1
 Normal termination of Gaussian 16 at Sun Oct 17 00:46:35 2021.
