 Entering Gaussian System, Link 0=g16
 Input=pBTTT_-95.gjf
 Output=pBTTT_-95.log
 Initial command:
 /apps/gaussian/g16-c01-avx/g16/l1.exe "/tmp/pbs.4729010[80].pbs/Gau-2633071.inp" -scrdir="/tmp/pbs.4729010[80].pbs/"
 Entering Link 1 = /apps/gaussian/g16-c01-avx/g16/l1.exe PID=   2633072.
  
 Copyright (c) 1988-2019, Gaussian, Inc.  All Rights Reserved.
  
 This is part of the Gaussian(R) 16 program.  It is based on
 the Gaussian(R) 09 system (copyright 2009, Gaussian, Inc.),
 the Gaussian(R) 03 system (copyright 2003, Gaussian, Inc.),
 the Gaussian(R) 98 system (copyright 1998, Gaussian, Inc.),
 the Gaussian(R) 94 system (copyright 1995, Gaussian, Inc.),
 the Gaussian 92(TM) system (copyright 1992, Gaussian, Inc.),
 the Gaussian 90(TM) system (copyright 1990, Gaussian, Inc.),
 the Gaussian 88(TM) system (copyright 1988, Gaussian, Inc.),
 the Gaussian 86(TM) system (copyright 1986, Carnegie Mellon
 University), and the Gaussian 82(TM) system (copyright 1983,
 Carnegie Mellon University). Gaussian is a federally registered
 trademark of Gaussian, Inc.
  
 This software contains proprietary and confidential information,
 including trade secrets, belonging to Gaussian, Inc.
  
 This software is provided under written license and may be
 used, copied, transmitted, or stored only in accord with that
 written license.
  
 The following legend is applicable only to US Government
 contracts under FAR:
  
                    RESTRICTED RIGHTS LEGEND
  
 Use, reproduction and disclosure by the US Government is
 subject to restrictions as set forth in subparagraphs (a)
 and (c) of the Commercial Computer Software - Restricted
 Rights clause in FAR 52.227-19.
  
 Gaussian, Inc.
 340 Quinnipiac St., Bldg. 40, Wallingford CT 06492
  
  
 ---------------------------------------------------------------
 Warning -- This program may not be used in any manner that
 competes with the business of Gaussian, Inc. or will provide
 assistance to any competitor of Gaussian, Inc.  The licensee
 of this program is prohibited from giving any competitor of
 Gaussian, Inc. access to this program.  By using this program,
 the user acknowledges that Gaussian, Inc. is engaged in the
 business of creating and licensing software in the field of
 computational chemistry and represents and warrants to the
 licensee that it is not a competitor of Gaussian, Inc. and that
 it will not use this program in any manner prohibited above.
 ---------------------------------------------------------------
  

 Cite this work as:
 Gaussian 16, Revision C.01,
 M. J. Frisch, G. W. Trucks, H. B. Schlegel, G. E. Scuseria, 
 M. A. Robb, J. R. Cheeseman, G. Scalmani, V. Barone, 
 G. A. Petersson, H. Nakatsuji, X. Li, M. Caricato, A. V. Marenich, 
 J. Bloino, B. G. Janesko, R. Gomperts, B. Mennucci, H. P. Hratchian, 
 J. V. Ortiz, A. F. Izmaylov, J. L. Sonnenberg, D. Williams-Young, 
 F. Ding, F. Lipparini, F. Egidi, J. Goings, B. Peng, A. Petrone, 
 T. Henderson, D. Ranasinghe, V. G. Zakrzewski, J. Gao, N. Rega, 
 G. Zheng, W. Liang, M. Hada, M. Ehara, K. Toyota, R. Fukuda, 
 J. Hasegawa, M. Ishida, T. Nakajima, Y. Honda, O. Kitao, H. Nakai, 
 T. Vreven, K. Throssell, J. A. Montgomery, Jr., J. E. Peralta, 
 F. Ogliaro, M. J. Bearpark, J. J. Heyd, E. N. Brothers, K. N. Kudin, 
 V. N. Staroverov, T. A. Keith, R. Kobayashi, J. Normand, 
 K. Raghavachari, A. P. Rendell, J. C. Burant, S. S. Iyengar, 
 J. Tomasi, M. Cossi, J. M. Millam, M. Klene, C. Adamo, R. Cammi, 
 J. W. Ochterski, R. L. Martin, K. Morokuma, O. Farkas, 
 J. B. Foresman, and D. J. Fox, Gaussian, Inc., Wallingford CT, 2019.
 
 ******************************************
 Gaussian 16:  ES64L-G16RevC.01  3-Jul-2019
                16-Oct-2021 
 ******************************************
 %mem=10GB
 %nprocshared=8
 Will use up to    8 processors via shared memory.
 -------------------------------------
 # opt=modredundant b3lyp/6-311+g(d,p)
 -------------------------------------
 1/18=120,19=15,26=3,38=1/1,3;
 2/9=110,12=2,17=6,18=5,40=1/2;
 3/5=4,6=6,7=111,11=2,25=1,30=1,71=1,74=-5/1,2,3;
 4//1;
 5/5=2,38=5/2;
 6/7=2,8=2,9=2,10=2,28=1/1;
 7//1,2,3,16;
 1/18=20,19=15,26=3/3(2);
 2/9=110/2;
 99//99;
 2/9=110/2;
 3/5=4,6=6,7=111,11=2,25=1,30=1,71=1,74=-5/1,2,3;
 4/5=5,16=3,69=1/1;
 5/5=2,38=5/2;
 7//1,2,3,16;
 1/18=20,19=15,26=3/3(-5);
 2/9=110/2;
 6/7=2,8=2,9=2,10=2,19=2,28=1/1;
 99/9=1/99;
 -------------
 pBTTT_-95.pdb
 -------------
 Symbolic Z-matrix:
 Charge =  0 Multiplicity = 1
 C                    -4.25     -1.36     -0.21 
 C                    -2.93     -0.95     -0.61 
 C                    -1.97     -2.05     -0.62 
 C                    -2.66      0.47     -0.96 
 C                    -4.33     -2.76      0.1 
 H                    -5.1      -0.7      -0.14 
 S                    -2.8      -3.56     -0.11 
 H                    -5.23     -3.27      0.41 
 C                    -0.56     -2.13     -0.97 
 S                    -0.015    -2.624    -2.602 
 C                     1.656    -2.455    -2.187 
 C                     1.842    -2.       -0.832 
 C                     0.602    -1.798    -0.143 
 H                     0.536    -1.308     0.816 
 S                     3.34     -1.16     -0.609 
 C                     3.773    -1.401    -2.303 
 C                     2.746    -2.105    -3.037 
 H                     4.619    -0.907    -2.76 
 H                     2.697    -2.107    -4.122 
 H                    -3.55      1.09     -0.83 
 H                    -2.35      0.56     -2. 
 H                    -1.88      0.89     -0.31 
 
 The following ModRedundant input section has been read:
 D       2       3       9      10 F                                           
 

 GradGradGradGradGradGradGradGradGradGradGradGradGradGradGradGradGradGrad
 Berny optimization.
 Initialization pass.
                           ----------------------------
                           !    Initial Parameters    !
                           ! (Angstroms and Degrees)  !
 --------------------------                            --------------------------
 ! Name  Definition              Value          Derivative Info.                !
 --------------------------------------------------------------------------------
 ! R1    R(1,2)                  1.4389         estimate D2E/DX2                !
 ! R2    R(1,5)                  1.4361         estimate D2E/DX2                !
 ! R3    R(1,6)                  1.0784         estimate D2E/DX2                !
 ! R4    R(2,3)                  1.46           estimate D2E/DX2                !
 ! R5    R(2,4)                  1.4872         estimate D2E/DX2                !
 ! R6    R(3,7)                  1.797          estimate D2E/DX2                !
 ! R7    R(3,9)                  1.455          estimate D2E/DX2                !
 ! R8    R(4,20)                 1.0924         estimate D2E/DX2                !
 ! R9    R(4,21)                 1.0889         estimate D2E/DX2                !
 ! R10   R(4,22)                 1.0988         estimate D2E/DX2                !
 ! R11   R(5,7)                  1.7393         estimate D2E/DX2                !
 ! R12   R(5,8)                  1.0799         estimate D2E/DX2                !
 ! R13   R(9,10)                 1.7901         estimate D2E/DX2                !
 ! R14   R(9,13)                 1.4644         estimate D2E/DX2                !
 ! R15   R(10,11)                1.73           estimate D2E/DX2                !
 ! R16   R(11,12)                1.4414         estimate D2E/DX2                !
 ! R17   R(11,17)                1.4259         estimate D2E/DX2                !
 ! R18   R(12,13)                1.4329         estimate D2E/DX2                !
 ! R19   R(12,15)                1.7319         estimate D2E/DX2                !
 ! R20   R(13,14)                1.079          estimate D2E/DX2                !
 ! R21   R(15,16)                1.765          estimate D2E/DX2                !
 ! R22   R(16,17)                1.4454         estimate D2E/DX2                !
 ! R23   R(16,18)                1.081          estimate D2E/DX2                !
 ! R24   R(17,19)                1.0861         estimate D2E/DX2                !
 ! A1    A(2,1,5)              112.8843         estimate D2E/DX2                !
 ! A2    A(2,1,6)              124.5209         estimate D2E/DX2                !
 ! A3    A(5,1,6)              122.5942         estimate D2E/DX2                !
 ! A4    A(1,2,3)              112.9799         estimate D2E/DX2                !
 ! A5    A(1,2,4)              120.2665         estimate D2E/DX2                !
 ! A6    A(3,2,4)              126.7536         estimate D2E/DX2                !
 ! A7    A(2,3,7)              109.1138         estimate D2E/DX2                !
 ! A8    A(2,3,9)              132.8639         estimate D2E/DX2                !
 ! A9    A(7,3,9)              118.0132         estimate D2E/DX2                !
 ! A10   A(2,4,20)             111.468          estimate D2E/DX2                !
 ! A11   A(2,4,21)             110.8154         estimate D2E/DX2                !
 ! A12   A(2,4,22)             110.7706         estimate D2E/DX2                !
 ! A13   A(20,4,21)            107.3779         estimate D2E/DX2                !
 ! A14   A(20,4,22)            106.918          estimate D2E/DX2                !
 ! A15   A(21,4,22)            109.3476         estimate D2E/DX2                !
 ! A16   A(1,5,7)              111.9209         estimate D2E/DX2                !
 ! A17   A(1,5,8)              124.6643         estimate D2E/DX2                !
 ! A18   A(7,5,8)              123.4062         estimate D2E/DX2                !
 ! A19   A(3,7,5)               93.0997         estimate D2E/DX2                !
 ! A20   A(3,9,10)             121.9727         estimate D2E/DX2                !
 ! A21   A(3,9,13)             128.3643         estimate D2E/DX2                !
 ! A22   A(10,9,13)            109.624          estimate D2E/DX2                !
 ! A23   A(9,10,11)             92.7749         estimate D2E/DX2                !
 ! A24   A(10,11,12)           112.394          estimate D2E/DX2                !
 ! A25   A(10,11,17)           128.2679         estimate D2E/DX2                !
 ! A26   A(12,11,17)           112.5981         estimate D2E/DX2                !
 ! A27   A(11,12,13)           112.6349         estimate D2E/DX2                !
 ! A28   A(11,12,15)           112.6914         estimate D2E/DX2                !
 ! A29   A(13,12,15)           128.188          estimate D2E/DX2                !
 ! A30   A(9,13,12)            112.5308         estimate D2E/DX2                !
 ! A31   A(9,13,14)            123.8061         estimate D2E/DX2                !
 ! A32   A(12,13,14)           122.9805         estimate D2E/DX2                !
 ! A33   A(12,15,16)            91.2828         estimate D2E/DX2                !
 ! A34   A(15,16,17)           112.3085         estimate D2E/DX2                !
 ! A35   A(15,16,18)           122.3669         estimate D2E/DX2                !
 ! A36   A(17,16,18)           124.3304         estimate D2E/DX2                !
 ! A37   A(11,17,16)           111.1003         estimate D2E/DX2                !
 ! A38   A(11,17,19)           124.0959         estimate D2E/DX2                !
 ! A39   A(16,17,19)           122.7015         estimate D2E/DX2                !
 ! D1    D(5,1,2,3)              0.3915         estimate D2E/DX2                !
 ! D2    D(5,1,2,4)           -179.5973         estimate D2E/DX2                !
 ! D3    D(6,1,2,3)           -179.8811         estimate D2E/DX2                !
 ! D4    D(6,1,2,4)              0.13           estimate D2E/DX2                !
 ! D5    D(2,1,5,7)             -0.3845         estimate D2E/DX2                !
 ! D6    D(2,1,5,8)           -179.3471         estimate D2E/DX2                !
 ! D7    D(6,1,5,7)            179.8822         estimate D2E/DX2                !
 ! D8    D(6,1,5,8)              0.9196         estimate D2E/DX2                !
 ! D9    D(1,2,3,7)             -0.2224         estimate D2E/DX2                !
 ! D10   D(1,2,3,9)            178.6265         estimate D2E/DX2                !
 ! D11   D(4,2,3,7)            179.7656         estimate D2E/DX2                !
 ! D12   D(4,2,3,9)             -1.3855         estimate D2E/DX2                !
 ! D13   D(1,2,4,20)             2.1641         estimate D2E/DX2                !
 ! D14   D(1,2,4,21)          -117.3645         estimate D2E/DX2                !
 ! D15   D(1,2,4,22)           121.0843         estimate D2E/DX2                !
 ! D16   D(3,2,4,20)          -177.8231         estimate D2E/DX2                !
 ! D17   D(3,2,4,21)            62.6483         estimate D2E/DX2                !
 ! D18   D(3,2,4,22)           -58.9029         estimate D2E/DX2                !
 ! D19   D(2,3,7,5)              0.0033         estimate D2E/DX2                !
 ! D20   D(9,3,7,5)           -179.041          estimate D2E/DX2                !
 ! D21   D(2,3,9,10)           -94.9943         Frozen                          !
 ! D22   D(2,3,9,13)            82.4875         estimate D2E/DX2                !
 ! D23   D(7,3,9,10)            83.7737         estimate D2E/DX2                !
 ! D24   D(7,3,9,13)           -98.7445         estimate D2E/DX2                !
 ! D25   D(1,5,7,3)              0.2153         estimate D2E/DX2                !
 ! D26   D(8,5,7,3)            179.1932         estimate D2E/DX2                !
 ! D27   D(3,9,10,11)          179.7759         estimate D2E/DX2                !
 ! D28   D(13,9,10,11)           1.8719         estimate D2E/DX2                !
 ! D29   D(3,9,13,12)         -179.8229         estimate D2E/DX2                !
 ! D30   D(3,9,13,14)           -9.0614         estimate D2E/DX2                !
 ! D31   D(10,9,13,12)          -2.0907         estimate D2E/DX2                !
 ! D32   D(10,9,13,14)         168.6708         estimate D2E/DX2                !
 ! D33   D(9,10,11,12)          -1.2126         estimate D2E/DX2                !
 ! D34   D(9,10,11,17)        -149.9054         estimate D2E/DX2                !
 ! D35   D(10,11,12,13)          0.1993         estimate D2E/DX2                !
 ! D36   D(10,11,12,15)       -154.0096         estimate D2E/DX2                !
 ! D37   D(17,11,12,13)        153.9742         estimate D2E/DX2                !
 ! D38   D(17,11,12,15)         -0.2346         estimate D2E/DX2                !
 ! D39   D(10,11,17,16)        149.748          estimate D2E/DX2                !
 ! D40   D(10,11,17,19)        -14.0975         estimate D2E/DX2                !
 ! D41   D(12,11,17,16)          1.1066         estimate D2E/DX2                !
 ! D42   D(12,11,17,19)       -162.7388         estimate D2E/DX2                !
 ! D43   D(11,12,13,9)           1.2551         estimate D2E/DX2                !
 ! D44   D(11,12,13,14)       -169.5945         estimate D2E/DX2                !
 ! D45   D(15,12,13,9)         150.5437         estimate D2E/DX2                !
 ! D46   D(15,12,13,14)        -20.3059         estimate D2E/DX2                !
 ! D47   D(11,12,15,16)         -0.5378         estimate D2E/DX2                !
 ! D48   D(13,12,15,16)       -149.8124         estimate D2E/DX2                !
 ! D49   D(12,15,16,17)          1.1735         estimate D2E/DX2                !
 ! D50   D(12,15,16,18)        170.2168         estimate D2E/DX2                !
 ! D51   D(15,16,17,11)         -1.5065         estimate D2E/DX2                !
 ! D52   D(15,16,17,19)        162.603          estimate D2E/DX2                !
 ! D53   D(18,16,17,11)       -170.2967         estimate D2E/DX2                !
 ! D54   D(18,16,17,19)         -6.1872         estimate D2E/DX2                !
 --------------------------------------------------------------------------------
 Trust Radius=3.00D-01 FncErr=1.00D-07 GrdErr=1.00D-06 EigMax=2.50D+02 EigMin=1.00D-04
 Number of steps in this run=    127 maximum allowed number of steps=    132.
 GradGradGradGradGradGradGradGradGradGradGradGradGradGradGradGradGradGrad

                          Input orientation:                          
 ---------------------------------------------------------------------
 Center     Atomic      Atomic             Coordinates (Angstroms)
 Number     Number       Type             X           Y           Z
 ---------------------------------------------------------------------
      1          6           0       -4.250000   -1.360000   -0.210000
      2          6           0       -2.930000   -0.950000   -0.610000
      3          6           0       -1.970000   -2.050000   -0.620000
      4          6           0       -2.660000    0.470000   -0.960000
      5          6           0       -4.330000   -2.760000    0.100000
      6          1           0       -5.100000   -0.700000   -0.140000
      7         16           0       -2.800000   -3.560000   -0.110000
      8          1           0       -5.230000   -3.270000    0.410000
      9          6           0       -0.560000   -2.130000   -0.970000
     10         16           0       -0.015000   -2.624000   -2.602000
     11          6           0        1.656000   -2.455000   -2.187000
     12          6           0        1.842000   -2.000000   -0.832000
     13          6           0        0.602000   -1.798000   -0.143000
     14          1           0        0.536000   -1.308000    0.816000
     15         16           0        3.340000   -1.160000   -0.609000
     16          6           0        3.773000   -1.401000   -2.303000
     17          6           0        2.746000   -2.105000   -3.037000
     18          1           0        4.619000   -0.907000   -2.760000
     19          1           0        2.697000   -2.107000   -4.122000
     20          1           0       -3.550000    1.090000   -0.830000
     21          1           0       -2.350000    0.560000   -2.000000
     22          1           0       -1.880000    0.890000   -0.310000
 ---------------------------------------------------------------------
                    Distance matrix (angstroms):
                    1          2          3          4          5
     1  C    0.000000
     2  C    1.438923   0.000000
     3  C    2.417147   1.460034   0.000000
     4  C    2.537617   1.487212   2.634787   0.000000
     5  C    1.436141   2.395871   2.567509   3.787532   0.000000
     6  H    1.078425   2.234346   3.442354   2.827525   2.212261
     7  S    2.636759   2.660639   1.796970   4.121044   1.739253
     8  H    2.234480   3.422397   3.630000   4.740190   1.079907
     9  C    3.845335   2.671872   1.454991   3.342170   3.969219
    10  S    5.025394   3.907373   2.842503   4.389194   5.092988
    11  C    6.323637   5.077731   3.970817   5.356212   6.415262
    12  C    6.157024   4.891193   3.818218   5.136661   6.288069
    13  C    4.872190   3.662269   2.627968   4.056101   5.030817
    14  H    4.895015   3.764943   2.982062   4.065695   5.128247
    15  S    7.603111   6.273516   5.384080   6.227367   7.867120
    16  C    8.291614   6.928193   6.019613   6.832846   8.560368
    17  C    7.582280   6.280233   5.299582   6.337933   7.767855
    18  H    9.239419   7.849315   7.021465   7.623645   9.575897
    19  H    8.007656   6.733196   5.835079   6.733248   8.223772
    20  H    2.622384   2.143455   3.521378   1.092428   4.036806
    21  H    3.240447   2.132745   2.976726   1.088944   4.399182
    22  H    3.269465   2.139650   2.957668   1.098772   4.415099
                    6          7          8          9         10
     6  H    0.000000
     7  S    3.670218   0.000000
     8  H    2.631406   2.501879   0.000000
     9  C    4.831708   2.793224   5.001290   0.000000
    10  S    5.968287   3.852582   6.056871   1.790108   0.000000
    11  C    7.274185   5.038937   7.404433   2.548994   1.730037
    12  C    7.096494   4.950055   7.291683   2.409470   2.640213
    13  C    5.806756   3.831362   6.040266   1.464376   2.666392
    14  H    5.748747   4.130118   6.104182   2.250932   3.703806
    15  S    8.465528   6.611248   8.884557   4.035000   4.167898
    16  C    9.159700   7.257745   9.586842   4.591647   3.991751
    17  C    8.480940   6.437583   8.766733   3.899070   2.842834
    18  H   10.068079   8.312790  10.612986   5.614434   4.944392
    19  H    8.867310   6.958762   9.204831   4.532514   3.151608
    20  H    2.466313   4.764808   4.834211   4.396374   5.424943
    21  H    3.551014   4.555107   5.363898   3.391327   3.994056
    22  H    3.595191   4.548505   5.389480   3.361309   4.591262
                   11         12         13         14         15
    11  C    0.000000
    12  C    1.441404   0.000000
    13  C    2.391757   1.432873   0.000000
    14  H    3.404118   2.213686   1.078952   0.000000
    15  S    2.646312   1.731858   2.849709   3.148801   0.000000
    16  C    2.367712   2.500281   3.857259   4.496107   1.764995
    17  C    1.425868   2.385428   3.614723   4.512751   2.672273
    18  H    3.391755   3.552965   4.876357   5.442377   2.515283
    19  H    2.224637   3.400967   4.507432   5.449052   3.694784
    20  H    6.442896   6.214641   5.104078   5.015488   7.251444
    21  H    5.017293   5.048830   4.209859   4.443903   6.104865
    22  H    5.216843   4.741083   3.662452   3.454871   5.616075
                   16         17         18         19         20
    16  C    0.000000
    17  C    1.445372   0.000000
    18  H    1.081019   2.240549   0.000000
    19  H    2.228222   1.086108   2.643696   0.000000
    20  H    7.874080   7.397195   8.628179   7.751328   0.000000
    21  H    6.436494   5.843527   7.162168   6.089990   1.757783
    22  H    6.416942   6.148693   7.174170   6.668004   1.760483
                   21         22
    21  H    0.000000
    22  H    1.784909   0.000000
 Stoichiometry    C11H8S3
 Framework group  C1[X(C11H8S3)]
 Deg. of freedom    60
 Full point group                 C1      NOp   1
 Largest Abelian subgroup         C1      NOp   1
 Largest concise Abelian subgroup C1      NOp   1
                         Standard orientation:                         
 ---------------------------------------------------------------------
 Center     Atomic      Atomic             Coordinates (Angstroms)
 Number     Number       Type             X           Y           Z
 ---------------------------------------------------------------------
      1          6           0        3.986308    0.794885    0.231521
      2          6           0        2.586959    1.068827    0.424592
      3          6           0        1.722331    0.015397   -0.099243
      4          6           0        2.154497    2.322012    1.098614
      5          6           0        4.223716   -0.450944   -0.442309
      6          1           0        4.785822    1.445757    0.547975
      7         16           0        2.740809   -1.276684   -0.821967
      8          1           0        5.201106   -0.846861   -0.675030
      9          6           0        0.278512   -0.163948   -0.114144
     10         16           0       -0.571134   -1.118086    1.139734
     11          6           0       -2.121032   -0.833323    0.425763
     12          6           0       -2.040654    0.001956   -0.746199
     13          6           0       -0.697560    0.398123   -1.049963
     14          1           0       -0.459236    1.149683   -1.786507
     15         16           0       -3.507776    0.870910   -1.049193
     16          6           0       -4.278404    0.140096    0.360505
     17          6           0       -3.389203   -0.749809    1.072188
     18          1           0       -5.233771    0.477254    0.737599
     19          1           0       -3.574931   -1.072466    2.092496
     20          1           0        3.008550    2.952392    1.356711
     21          1           0        1.622591    2.100682    2.022676
     22          1           0        1.506672    2.915683    0.438934
 ---------------------------------------------------------------------
 Rotational constants (GHZ):           1.2040066           0.2573405           0.2473159
 Standard basis: 6-311+G(d,p) (5D, 7F)
 There are   394 symmetry adapted cartesian basis functions of A   symmetry.
 There are   380 symmetry adapted basis functions of A   symmetry.
   380 basis functions,   610 primitive gaussians,   394 cartesian basis functions
    61 alpha electrons       61 beta electrons
       nuclear repulsion energy      1103.8562619661 Hartrees.
 NAtoms=   22 NActive=   22 NUniq=   22 SFac= 1.00D+00 NAtFMM=   60 NAOKFM=F Big=F
 Integral buffers will be    131072 words long.
 Raffenetti 2 integral format.
 Two-electron integral symmetry is turned on.
 One-electron integrals computed using PRISM.
 NBasis=   380 RedAO= T EigKep=  1.47D-06  NBF=   380
 NBsUse=   379 1.00D-06 EigRej=  4.38D-07 NBFU=   379
 ExpMin= 4.05D-02 ExpMax= 9.34D+04 ExpMxC= 3.17D+03 IAcc=3 IRadAn=         5 AccDes= 0.00D+00
 Harris functional with IExCor=  402 and IRadAn=       5 diagonalized for initial guess.
 HarFok:  IExCor=  402 AccDes= 0.00D+00 IRadAn=         5 IDoV= 1 UseB2=F ITyADJ=14
 ICtDFT=  3500011 ScaDFX=  1.000000  1.000000  1.000000  1.000000
 FoFCou: FMM=F IPFlag=           0 FMFlag=      100000 FMFlg1=           0
         NFxFlg=           0 DoJE=T BraDBF=F KetDBF=T FulRan=T
         wScrn=  0.000000 ICntrl=       500 IOpCl=  0 I1Cent=   200000004 NGrid=           0
         NMat0=    1 NMatS0=      1 NMatT0=    0 NMatD0=    1 NMtDS0=    0 NMtDT0=    0
 Petite list used in FoFCou.
 Requested convergence on RMS density matrix=1.00D-08 within 128 cycles.
 Requested convergence on MAX density matrix=1.00D-06.
 Requested convergence on             energy=1.00D-06.
 No special actions if energy rises.
 SCF Done:  E(RB3LYP) =  -1618.67374244     A.U. after   17 cycles
            NFock= 17  Conv=0.74D-08     -V/T= 2.0028

 **********************************************************************

            Population analysis using the SCF Density.

 **********************************************************************

 Orbital symmetries:
       Occupied  (A) (A) (A) (A) (A) (A) (A) (A) (A) (A) (A) (A)
                 (A) (A) (A) (A) (A) (A) (A) (A) (A) (A) (A) (A)
                 (A) (A) (A) (A) (A) (A) (A) (A) (A) (A) (A) (A)
                 (A) (A) (A) (A) (A) (A) (A) (A) (A) (A) (A) (A)
                 (A) (A) (A) (A) (A) (A) (A) (A) (A) (A) (A) (A)
                 (A)
       Virtual   (A) (A) (A) (A) (A) (A) (A) (A) (A) (A) (A) (A)
                 (A) (A) (A) (A) (A) (A) (A) (A) (A) (A) (A) (A)
                 (A) (A) (A) (A) (A) (A) (A) (A) (A) (A) (A) (A)
                 (A) (A) (A) (A) (A) (A) (A) (A) (A) (A) (A) (A)
                 (A) (A) (A) (A) (A) (A) (A) (A) (A) (A) (A) (A)
                 (A) (A) (A) (A) (A) (A) (A) (A) (A) (A) (A) (A)
                 (A) (A) (A) (A) (A) (A) (A) (A) (A) (A) (A) (A)
                 (A) (A) (A) (A) (A) (A) (A) (A) (A) (A) (A) (A)
                 (A) (A) (A) (A) (A) (A) (A) (A) (A) (A) (A) (A)
                 (A) (A) (A) (A) (A) (A) (A) (A) (A) (A) (A) (A)
                 (A) (A) (A) (A) (A) (A) (A) (A) (A) (A) (A) (A)
                 (A) (A) (A) (A) (A) (A) (A) (A) (A) (A) (A) (A)
                 (A) (A) (A) (A) (A) (A) (A) (A) (A) (A) (A) (A)
                 (A) (A) (A) (A) (A) (A) (A) (A) (A) (A) (A) (A)
                 (A) (A) (A) (A) (A) (A) (A) (A) (A) (A) (A) (A)
                 (A) (A) (A) (A) (A) (A) (A) (A) (A) (A) (A) (A)
                 (A) (A) (A) (A) (A) (A) (A) (A) (A) (A) (A) (A)
                 (A) (A) (A) (A) (A) (A) (A) (A) (A) (A) (A) (A)
                 (A) (A) (A) (A) (A) (A) (A) (A) (A) (A) (A) (A)
                 (A) (A) (A) (A) (A) (A) (A) (A) (A) (A) (A) (A)
                 (A) (A) (A) (A) (A) (A) (A) (A) (A) (A) (A) (A)
                 (A) (A) (A) (A) (A) (A) (A) (A) (A) (A) (A) (A)
                 (A) (A) (A) (A) (A) (A) (A) (A) (A) (A) (A) (A)
                 (A) (A) (A) (A) (A) (A) (A) (A) (A) (A) (A) (A)
                 (A) (A) (A) (A) (A) (A) (A) (A) (A) (A) (A) (A)
                 (A) (A) (A) (A) (A) (A) (A) (A) (A) (A) (A) (A)
                 (A) (A) (A) (A) (A) (A)
 The electronic state is 1-A.
 Alpha  occ. eigenvalues --  -88.89177 -88.88690 -88.88526 -10.23331 -10.22314
 Alpha  occ. eigenvalues --  -10.22187 -10.21975 -10.21927 -10.21334 -10.20564
 Alpha  occ. eigenvalues --  -10.20557 -10.20384 -10.18896 -10.17575  -7.97701
 Alpha  occ. eigenvalues --   -7.97218  -7.96989  -5.94011  -5.93654  -5.93531
 Alpha  occ. eigenvalues --   -5.93274  -5.93257  -5.93168  -5.92905  -5.92769
 Alpha  occ. eigenvalues --   -5.92619  -0.90597  -0.87347  -0.83547  -0.77562
 Alpha  occ. eigenvalues --   -0.77383  -0.74730  -0.71067  -0.69610  -0.67125
 Alpha  occ. eigenvalues --   -0.61039  -0.57687  -0.56436  -0.53647  -0.51871
 Alpha  occ. eigenvalues --   -0.49226  -0.49030  -0.44458  -0.43511  -0.43168
 Alpha  occ. eigenvalues --   -0.41847  -0.41216  -0.39767  -0.39609  -0.39282
 Alpha  occ. eigenvalues --   -0.37740  -0.37009  -0.35994  -0.34952  -0.34607
 Alpha  occ. eigenvalues --   -0.32919  -0.29075  -0.25457  -0.24001  -0.23264
 Alpha  occ. eigenvalues --   -0.21466
 Alpha virt. eigenvalues --   -0.06174  -0.04869  -0.01966  -0.01053  -0.00243
 Alpha virt. eigenvalues --    0.00299   0.00594   0.00944   0.01470   0.02415
 Alpha virt. eigenvalues --    0.02513   0.02954   0.03234   0.03976   0.04077
 Alpha virt. eigenvalues --    0.04530   0.04952   0.05671   0.05890   0.06163
 Alpha virt. eigenvalues --    0.06735   0.07551   0.07915   0.07926   0.08291
 Alpha virt. eigenvalues --    0.08774   0.09104   0.09963   0.10554   0.11026
 Alpha virt. eigenvalues --    0.11443   0.11511   0.12016   0.12228   0.12988
 Alpha virt. eigenvalues --    0.13546   0.14059   0.14218   0.14717   0.15144
 Alpha virt. eigenvalues --    0.15491   0.15731   0.16231   0.16659   0.16864
 Alpha virt. eigenvalues --    0.17055   0.17631   0.18360   0.18673   0.18853
 Alpha virt. eigenvalues --    0.19314   0.19485   0.19879   0.20277   0.20534
 Alpha virt. eigenvalues --    0.20938   0.21068   0.21174   0.21712   0.21958
 Alpha virt. eigenvalues --    0.22615   0.22712   0.22818   0.23441   0.23713
 Alpha virt. eigenvalues --    0.24067   0.24809   0.25472   0.25970   0.26350
 Alpha virt. eigenvalues --    0.27779   0.28396   0.28510   0.28814   0.29331
 Alpha virt. eigenvalues --    0.29480   0.30793   0.31475   0.32139   0.32902
 Alpha virt. eigenvalues --    0.34039   0.34231   0.35274   0.36468   0.37196
 Alpha virt. eigenvalues --    0.37526   0.37745   0.39113   0.41032   0.42458
 Alpha virt. eigenvalues --    0.43269   0.43666   0.44628   0.45497   0.47395
 Alpha virt. eigenvalues --    0.49660   0.50846   0.52859   0.53732   0.54098
 Alpha virt. eigenvalues --    0.55504   0.55956   0.56330   0.57406   0.58035
 Alpha virt. eigenvalues --    0.59096   0.59112   0.59803   0.61034   0.61658
 Alpha virt. eigenvalues --    0.62897   0.63572   0.63990   0.64840   0.65722
 Alpha virt. eigenvalues --    0.65853   0.66176   0.67334   0.67679   0.68416
 Alpha virt. eigenvalues --    0.70017   0.70453   0.70774   0.71219   0.72708
 Alpha virt. eigenvalues --    0.73166   0.73922   0.74761   0.74930   0.76224
 Alpha virt. eigenvalues --    0.76735   0.77598   0.78918   0.79405   0.81063
 Alpha virt. eigenvalues --    0.81833   0.82532   0.83153   0.84179   0.84358
 Alpha virt. eigenvalues --    0.85663   0.86704   0.87134   0.89669   0.90091
 Alpha virt. eigenvalues --    0.91572   0.91825   0.92510   0.94034   0.94540
 Alpha virt. eigenvalues --    0.95340   0.96452   0.97024   0.97544   0.99987
 Alpha virt. eigenvalues --    1.00506   1.00885   1.01539   1.03012   1.04960
 Alpha virt. eigenvalues --    1.06101   1.07836   1.08555   1.10771   1.13931
 Alpha virt. eigenvalues --    1.16510   1.18282   1.21558   1.24912   1.27904
 Alpha virt. eigenvalues --    1.33680   1.34944   1.36060   1.36899   1.39758
 Alpha virt. eigenvalues --    1.40429   1.44280   1.45588   1.48344   1.49201
 Alpha virt. eigenvalues --    1.51510   1.52868   1.54297   1.55332   1.56099
 Alpha virt. eigenvalues --    1.57171   1.57505   1.59206   1.60651   1.62321
 Alpha virt. eigenvalues --    1.63139   1.63872   1.65662   1.66572   1.67540
 Alpha virt. eigenvalues --    1.69300   1.69783   1.71619   1.71961   1.73516
 Alpha virt. eigenvalues --    1.75656   1.77305   1.78095   1.79343   1.80693
 Alpha virt. eigenvalues --    1.81026   1.84229   1.85886   1.87207   1.88333
 Alpha virt. eigenvalues --    1.89148   1.90114   1.93598   1.94265   1.94999
 Alpha virt. eigenvalues --    1.96846   1.97653   1.98290   2.00543   2.01499
 Alpha virt. eigenvalues --    2.03446   2.04677   2.06733   2.07025   2.08155
 Alpha virt. eigenvalues --    2.09211   2.11127   2.11533   2.13651   2.14160
 Alpha virt. eigenvalues --    2.16812   2.18182   2.23975   2.26810   2.27160
 Alpha virt. eigenvalues --    2.33034   2.35783   2.37758   2.39612   2.43133
 Alpha virt. eigenvalues --    2.44739   2.46652   2.48848   2.51334   2.54366
 Alpha virt. eigenvalues --    2.55251   2.59965   2.61089   2.64656   2.65851
 Alpha virt. eigenvalues --    2.68914   2.69990   2.71486   2.71750   2.73020
 Alpha virt. eigenvalues --    2.74038   2.75206   2.79107   2.79360   2.83560
 Alpha virt. eigenvalues --    2.84306   2.88203   2.90570   2.93027   2.95592
 Alpha virt. eigenvalues --    2.98007   2.98967   3.00977   3.01421   3.03150
 Alpha virt. eigenvalues --    3.06120   3.08039   3.17762   3.23206   3.23421
 Alpha virt. eigenvalues --    3.26784   3.32854   3.35813   3.39054   3.40921
 Alpha virt. eigenvalues --    3.47379   3.57773   3.65747   3.80398   3.81929
 Alpha virt. eigenvalues --    3.91640   3.96623   4.05044   4.10951   4.30614
 Alpha virt. eigenvalues --    4.33718   4.42871   7.94443   7.96619   7.98061
 Alpha virt. eigenvalues --   17.28702  17.30245  17.31287  17.42391  17.45256
 Alpha virt. eigenvalues --   17.46850  17.48564  17.49859  17.51764  23.49434
 Alpha virt. eigenvalues --   23.62362  23.73646  23.78202  23.82167  23.86015
 Alpha virt. eigenvalues --   23.88609  23.93832  23.95880  23.96095  23.98719
 Alpha virt. eigenvalues --  189.10539 189.13168 189.15201
          Condensed to atoms (all electrons):
               1          2          3          4          5          6
     1  C   11.339269  -6.880009   6.097583  -1.751579  -0.801078   0.336527
     2  C   -6.880009  25.159942 -18.331952   2.501187   2.117214   0.028613
     3  C    6.097583 -18.331952  29.069698  -5.612508  -2.405227  -0.062639
     4  C   -1.751579   2.501187  -5.612508   9.115788   0.406260   0.024102
     5  C   -0.801078   2.117214  -2.405227   0.406260   5.905039   0.008572
     6  H    0.336527   0.028613  -0.062639   0.024102   0.008572   0.530661
     7  S   -1.297950   0.482294  -1.324887   0.575538   0.190940   0.007728
     8  H    0.032873  -0.055054   0.028252  -0.000312   0.368125  -0.004638
     9  C   -0.499691  -0.416809   0.584526  -0.268685   0.154409  -0.002348
    10  S    0.159384  -0.208613   0.519990  -0.036487  -0.015252  -0.000081
    11  C   -0.170293   0.703888  -1.223357   0.216619   0.050353   0.000090
    12  C    0.061880  -0.256019   0.701843  -0.186785  -0.012808   0.000121
    13  C   -0.401457   0.599582  -1.667850   0.383066   0.039741  -0.000263
    14  H    0.005316  -0.019238   0.048803  -0.008152  -0.000129  -0.000000
    15  S   -0.017123   0.078516  -0.068342   0.010620   0.003546   0.000002
    16  C    0.001101  -0.026857   0.022338  -0.015510  -0.000556  -0.000000
    17  C   -0.010678   0.320564  -0.295871   0.076523   0.007644   0.000011
    18  H    0.000003  -0.000012  -0.000028  -0.000024  -0.000001   0.000000
    19  H    0.000026  -0.000986  -0.000037  -0.000342  -0.000014   0.000000
    20  H    0.032715  -0.117570  -0.044860   0.489326   0.011457   0.002070
    21  H   -0.022527   0.040134  -0.013478   0.343639   0.000686   0.000122
    22  H   -0.039263  -0.032937   0.091343   0.314968  -0.005609   0.000126
               7          8          9         10         11         12
     1  C   -1.297950   0.032873  -0.499691   0.159384  -0.170293   0.061880
     2  C    0.482294  -0.055054  -0.416809  -0.208613   0.703888  -0.256019
     3  C   -1.324887   0.028252   0.584526   0.519990  -1.223357   0.701843
     4  C    0.575538  -0.000312  -0.268685  -0.036487   0.216619  -0.186785
     5  C    0.190940   0.368125   0.154409  -0.015252   0.050353  -0.012808
     6  H    0.007728  -0.004638  -0.002348  -0.000081   0.000090   0.000121
     7  S   17.435802  -0.009602  -0.106253   0.102943  -0.048241   0.108723
     8  H   -0.009602   0.485189  -0.008062  -0.000303  -0.000173  -0.000109
     9  C   -0.106253  -0.008062   8.760423   0.285253  -0.814056   0.532299
    10  S    0.102943  -0.000303   0.285253  17.258913  -1.131458   1.356122
    11  C   -0.048241  -0.000173  -0.814056  -1.131458  13.742758  -4.946112
    12  C    0.108723  -0.000109   0.532299   1.356122  -4.946112  13.331435
    13  C    0.200471  -0.000197  -1.622639  -1.932441   1.388247  -3.312568
    14  H   -0.004454   0.000000   0.067076   0.015486  -0.041363   0.035930
    15  S    0.002104  -0.000004  -0.363548   0.199469   0.332628  -0.641006
    16  C    0.000165   0.000000   0.167524   0.009737   0.784926  -0.496886
    17  C   -0.054197  -0.000018  -0.740233  -0.353144  -3.158063  -0.452888
    18  H    0.000008  -0.000000  -0.000578   0.001382   0.006251   0.006361
    19  H    0.000130   0.000000   0.011656   0.018046   0.044032  -0.029910
    20  H    0.001138  -0.000035   0.001249   0.000211  -0.000204   0.000536
    21  H   -0.000579   0.000009   0.006161   0.005572   0.002361  -0.006487
    22  H    0.002966   0.000011  -0.011921  -0.003145  -0.001730   0.016859
              13         14         15         16         17         18
     1  C   -0.401457   0.005316  -0.017123   0.001101  -0.010678   0.000003
     2  C    0.599582  -0.019238   0.078516  -0.026857   0.320564  -0.000012
     3  C   -1.667850   0.048803  -0.068342   0.022338  -0.295871  -0.000028
     4  C    0.383066  -0.008152   0.010620  -0.015510   0.076523  -0.000024
     5  C    0.039741  -0.000129   0.003546  -0.000556   0.007644  -0.000001
     6  H   -0.000263  -0.000000   0.000002  -0.000000   0.000011   0.000000
     7  S    0.200471  -0.004454   0.002104   0.000165  -0.054197   0.000008
     8  H   -0.000197   0.000000  -0.000004   0.000000  -0.000018  -0.000000
     9  C   -1.622639   0.067076  -0.363548   0.167524  -0.740233  -0.000578
    10  S   -1.932441   0.015486   0.199469   0.009737  -0.353144   0.001382
    11  C    1.388247  -0.041363   0.332628   0.784926  -3.158063   0.006251
    12  C   -3.312568   0.035930  -0.641006  -0.496886  -0.452888   0.006361
    13  C   11.411711   0.253822  -0.113498  -0.296979   1.265582   0.007452
    14  H    0.253822   0.514266   0.006909   0.001475  -0.014360  -0.000002
    15  S   -0.113498   0.006909  16.625532   0.393409  -0.285687  -0.020860
    16  C   -0.296979   0.001475   0.393409   5.666946  -0.277544   0.373339
    17  C    1.265582  -0.014360  -0.285687  -0.277544   9.882985  -0.019259
    18  H    0.007452  -0.000002  -0.020860   0.373339  -0.019259   0.474314
    19  H   -0.010050   0.000015   0.003737   0.013149   0.297864  -0.003593
    20  H   -0.005637   0.000006   0.000023  -0.000017   0.000116   0.000000
    21  H    0.001092   0.000025   0.000064   0.000009  -0.000907  -0.000000
    22  H    0.020341  -0.000147   0.000743   0.000350  -0.002228   0.000000
              19         20         21         22
     1  C    0.000026   0.032715  -0.022527  -0.039263
     2  C   -0.000986  -0.117570   0.040134  -0.032937
     3  C   -0.000037  -0.044860  -0.013478   0.091343
     4  C   -0.000342   0.489326   0.343639   0.314968
     5  C   -0.000014   0.011457   0.000686  -0.005609
     6  H    0.000000   0.002070   0.000122   0.000126
     7  S    0.000130   0.001138  -0.000579   0.002966
     8  H    0.000000  -0.000035   0.000009   0.000011
     9  C    0.011656   0.001249   0.006161  -0.011921
    10  S    0.018046   0.000211   0.005572  -0.003145
    11  C    0.044032  -0.000204   0.002361  -0.001730
    12  C   -0.029910   0.000536  -0.006487   0.016859
    13  C   -0.010050  -0.005637   0.001092   0.020341
    14  H    0.000015   0.000006   0.000025  -0.000147
    15  S    0.003737   0.000023   0.000064   0.000743
    16  C    0.013149  -0.000017   0.000009   0.000350
    17  C    0.297864   0.000116  -0.000907  -0.002228
    18  H   -0.003593   0.000000  -0.000000   0.000000
    19  H    0.514433  -0.000000  -0.000000   0.000000
    20  H   -0.000000   0.541493  -0.027320  -0.028375
    21  H   -0.000000  -0.027320   0.535188  -0.027078
    22  H    0.000000  -0.028375  -0.027078   0.547125
 Mulliken charges:
               1
     1  C   -0.175028
     2  C    0.314120
     3  C   -0.113340
     4  C   -0.577253
     5  C   -0.023312
     6  H    0.131224
     7  S   -0.264790
     8  H    0.164047
     9  C    0.284251
    10  S   -0.251584
    11  C    0.262896
    12  C    0.189469
    13  C   -0.207530
    14  H    0.138714
    15  S   -0.147233
    16  C   -0.320119
    17  C   -0.186212
    18  H    0.175246
    19  H    0.141842
    20  H    0.143679
    21  H    0.163313
    22  H    0.157601
 Sum of Mulliken charges =  -0.00000
 Mulliken charges with hydrogens summed into heavy atoms:
               1
     1  C   -0.043804
     2  C    0.314120
     3  C   -0.113340
     4  C   -0.112660
     5  C    0.140735
     7  S   -0.264790
     9  C    0.284251
    10  S   -0.251584
    11  C    0.262896
    12  C    0.189469
    13  C   -0.068816
    15  S   -0.147233
    16  C   -0.144873
    17  C   -0.044371
 Electronic spatial extent (au):  <R**2>=           4435.6310
 Charge=              0.0000 electrons
 Dipole moment (field-independent basis, Debye):
    X=              0.3502    Y=              1.7941    Z=              1.0405  Tot=              2.1033
 Quadrupole moment (field-independent basis, Debye-Ang):
   XX=            -91.0026   YY=           -103.3843   ZZ=           -103.4540
   XY=             -0.0700   XZ=             -3.7256   YZ=             -0.6054
 Traceless Quadrupole moment (field-independent basis, Debye-Ang):
   XX=              8.2777   YY=             -4.1040   ZZ=             -4.1737
   XY=             -0.0700   XZ=             -3.7256   YZ=             -0.6054
 Octapole moment (field-independent basis, Debye-Ang**2):
  XXX=             19.0981  YYY=              9.8885  ZZZ=              6.7039  XYY=             11.9648
  XXY=             15.3957  XXZ=             21.3190  XZZ=            -10.3611  YZZ=              1.1876
  YYZ=              1.2028  XYZ=             15.0605
 Hexadecapole moment (field-independent basis, Debye-Ang**3):
 XXXX=          -4376.7057 YYYY=           -816.5057 ZZZZ=           -580.6199 XXXY=            -97.9143
 XXXZ=           -115.9055 YYYX=             -0.8806 YYYZ=              3.5382 ZZZX=            -14.8532
 ZZZY=            -15.5984 XXYY=           -938.8206 XXZZ=           -927.5310 YYZZ=           -224.9755
 XXYZ=             27.5945 YYXZ=              6.2982 ZZXY=              4.8466
 N-N= 1.103856261966D+03 E-N=-6.031122514814D+03  KE= 1.614161177814D+03
 Calling FoFJK, ICntrl=      2127 FMM=F ISym2X=0 I1Cent= 0 IOpClX= 0 NMat=1 NMatS=1 NMatT=0.
 ***** Axes restored to original set *****
 -------------------------------------------------------------------
 Center     Atomic                   Forces (Hartrees/Bohr)
 Number     Number              X              Y              Z
 -------------------------------------------------------------------
      1        6           0.021942505   -0.056726422    0.007832264
      2        6           0.011944767   -0.045750655    0.006033763
      3        6          -0.045924129    0.019586486    0.006521460
      4        6           0.008710559    0.007285857    0.001791257
      5        6           0.009081537    0.048176998   -0.013527515
      6        1          -0.000799505    0.001893871   -0.000081788
      7       16          -0.006813222    0.020867483   -0.002458814
      8        1           0.002820804   -0.004204289    0.000499653
      9        6           0.053106675    0.019438793    0.028983437
     10       16          -0.006946722   -0.005875537    0.013291467
     11        6           0.015666213    0.025181647    0.018750927
     12        6          -0.034310584    0.000108537   -0.022682984
     13        6          -0.034157117   -0.016205518   -0.041726005
     14        1          -0.004736149   -0.004406946    0.003640175
     15       16           0.011019436   -0.007511635   -0.013958042
     16        6          -0.046000685   -0.025050269   -0.027119444
     17        6           0.033246818    0.032628729    0.032425238
     18        1           0.003398925   -0.003574785    0.005400467
     19        1           0.005506634   -0.006441135    0.003275515
     20        1          -0.000652480   -0.002174664    0.000260295
     21        1           0.004038589    0.002625675   -0.002037227
     22        1          -0.000142871    0.000127780   -0.005114098
 -------------------------------------------------------------------
 Cartesian Forces:  Max     0.056726422 RMS     0.021148372

 GradGradGradGradGradGradGradGradGradGradGradGradGradGradGradGradGradGrad
 Berny optimization.
 FormGI is forming the generalized inverse of G from B-inverse, IUseBI=4.
 Internal  Forces:  Max     0.063500490 RMS     0.012409081
 Search for a local minimum.
 Step number   1 out of a maximum of  127
 All quantities printed in internal units (Hartrees-Bohrs-Radians)
 Mixed Optimization -- RFO/linear search
 Second derivative matrix not updated -- first step.
 ITU=  0
     Eigenvalues ---    0.00935   0.00982   0.01057   0.01215   0.01241
     Eigenvalues ---    0.01276   0.01298   0.01421   0.01457   0.01492
     Eigenvalues ---    0.01498   0.01592   0.01593   0.01769   0.02198
     Eigenvalues ---    0.02651   0.07307   0.07353   0.15077   0.15683
     Eigenvalues ---    0.15735   0.15997   0.16000   0.16000   0.16000
     Eigenvalues ---    0.16000   0.17992   0.22444   0.22545   0.23320
     Eigenvalues ---    0.23978   0.24718   0.24978   0.24995   0.25000
     Eigenvalues ---    0.26147   0.26565   0.28400   0.30920   0.31357
     Eigenvalues ---    0.31574   0.33757   0.33818   0.34533   0.34809
     Eigenvalues ---    0.34935   0.35266   0.35872   0.35877   0.36006
     Eigenvalues ---    0.36121   0.36185   0.36301   0.37598   0.38236
     Eigenvalues ---    0.38438   0.39458   0.39664   0.406461000.00000
     Eigenvalues --- 1000.000001000.000001000.000001000.000001000.00000
     Eigenvalues --- 1000.000001000.000001000.000001000.000001000.00000
     Eigenvalues --- 1000.000001000.000001000.000001000.000001000.00000
     Eigenvalues --- 1000.000001000.000001000.000001000.000001000.00000
     Eigenvalues --- 1000.000001000.000001000.000001000.000001000.00000
     Eigenvalues --- 1000.000001000.000001000.000001000.000001000.00000
     Eigenvalues --- 1000.000001000.000001000.000001000.000001000.00000
     Eigenvalues --- 1000.000001000.000001000.000001000.000001000.00000
     Eigenvalues --- 1000.000001000.000001000.000001000.000001000.00000
     Eigenvalues --- 1000.000001000.000001000.000001000.000001000.00000
     Eigenvalues --- 1000.000001000.000001000.000001000.000001000.00000
     Eigenvalues --- 1000.000001000.00000
 RFO step:  Lambda=-5.03259128D-02 EMin= 9.35106172D-03
 Linear search not attempted -- first point.
 Maximum step size (   0.300) exceeded in Quadratic search.
    -- Step size scaled by   0.892
 Iteration  1 RMS(Cart)=  0.06953910 RMS(Int)=  0.00222153
 Iteration  2 RMS(Cart)=  0.00347632 RMS(Int)=  0.00073648
 Iteration  3 RMS(Cart)=  0.00000556 RMS(Int)=  0.00073647
 Iteration  4 RMS(Cart)=  0.00000001 RMS(Int)=  0.00073647
 Iteration  1 RMS(Cart)=  0.00000940 RMS(Int)=  0.00000362
 Iteration  2 RMS(Cart)=  0.00000513 RMS(Int)=  0.00000405
 Iteration  3 RMS(Cart)=  0.00000280 RMS(Int)=  0.00000457
 Iteration  4 RMS(Cart)=  0.00000152 RMS(Int)=  0.00000492
 Iteration  5 RMS(Cart)=  0.00000083 RMS(Int)=  0.00000512
 Variable       Old X    -DE/DX   Delta X   Delta X   Delta X     New X
                                 (Linear)    (Quad)   (Total)
    R1        2.71917  -0.01459   0.00000  -0.03123  -0.03115   2.68802
    R2        2.71391  -0.05070   0.00000  -0.10126  -0.10129   2.61262
    R3        2.03793   0.00178   0.00000   0.00386   0.00386   2.04179
    R4        2.75906  -0.05886   0.00000  -0.12559  -0.12550   2.63356
    R5        2.81042   0.01088   0.00000   0.02501   0.02501   2.83544
    R6        3.39578  -0.01839   0.00000  -0.04965  -0.04966   3.34612
    R7        2.74954  -0.00460   0.00000  -0.00962  -0.00962   2.73991
    R8        2.06439  -0.00067   0.00000  -0.00151  -0.00151   2.06288
    R9        2.05781   0.00331   0.00000   0.00739   0.00739   2.06520
   R10        2.07638  -0.00308   0.00000  -0.00707  -0.00707   2.06931
   R11        3.28671  -0.01753   0.00000  -0.04113  -0.04123   3.24548
   R12        2.04073  -0.00022   0.00000  -0.00048  -0.00048   2.04025
   R13        3.38281  -0.01014   0.00000  -0.02372  -0.02452   3.35830
   R14        2.76727  -0.06350   0.00000  -0.13632  -0.13681   2.63046
   R15        3.26930  -0.00074   0.00000  -0.00050  -0.00031   3.26899
   R16        2.72386  -0.03145   0.00000  -0.06745  -0.06595   2.65791
   R17        2.69450  -0.00180   0.00000  -0.00627  -0.00566   2.68884
   R18        2.70774  -0.01136   0.00000  -0.02520  -0.02477   2.68297
   R19        3.27274   0.00206   0.00000   0.00690   0.00680   3.27954
   R20        2.03892   0.00152   0.00000   0.00330   0.00330   2.04223
   R21        3.33536  -0.01223   0.00000  -0.02862  -0.02940   3.30596
   R22        2.73136  -0.05825   0.00000  -0.11885  -0.11908   2.61228
   R23        2.04283  -0.00126   0.00000  -0.00274  -0.00274   2.04009
   R24        2.05245  -0.00351   0.00000  -0.00776  -0.00776   2.04468
    A1        1.97020   0.00734   0.00000   0.01827   0.01831   1.98851
    A2        2.17330  -0.00471   0.00000  -0.01353  -0.01356   2.15974
    A3        2.13967  -0.00263   0.00000  -0.00472  -0.00474   2.13493
    A4        1.97187  -0.00155   0.00000  -0.00909  -0.00893   1.96295
    A5        2.09905   0.01274   0.00000   0.04006   0.03998   2.13903
    A6        2.21227  -0.01119   0.00000  -0.03097  -0.03106   2.18121
    A7        1.90440   0.00465   0.00000   0.01511   0.01519   1.91959
    A8        2.31891  -0.01239   0.00000  -0.03749  -0.03753   2.28138
    A9        2.05972   0.00774   0.00000   0.02231   0.02227   2.08199
   A10        1.94548  -0.00364   0.00000  -0.01391  -0.01387   1.93162
   A11        1.93409   0.00335   0.00000   0.01326   0.01327   1.94736
   A12        1.93331   0.00325   0.00000   0.01321   0.01322   1.94653
   A13        1.87410   0.00060   0.00000   0.00366   0.00371   1.87781
   A14        1.86607   0.00097   0.00000   0.00595   0.00599   1.87206
   A15        1.90848  -0.00479   0.00000  -0.02318  -0.02321   1.88527
   A16        1.95339  -0.00314   0.00000  -0.01071  -0.01083   1.94256
   A17        2.17580   0.00675   0.00000   0.02735   0.02740   2.20320
   A18        2.15384  -0.00360   0.00000  -0.01656  -0.01651   2.13734
   A19        1.62490  -0.00730   0.00000  -0.01353  -0.01373   1.61116
   A20        2.12883  -0.00350   0.00000  -0.00992  -0.00993   2.11889
   A21        2.24038  -0.00237   0.00000  -0.00657  -0.00658   2.23380
   A22        1.91330   0.00593   0.00000   0.01718   0.01703   1.93033
   A23        1.61923  -0.00547   0.00000  -0.01253  -0.01195   1.60728
   A24        1.96164  -0.01130   0.00000  -0.02704  -0.02822   1.93343
   A25        2.23870   0.00914   0.00000   0.04965   0.04692   2.28561
   A26        1.96521   0.00595   0.00000   0.01821   0.01831   1.98351
   A27        1.96585   0.00768   0.00000   0.02181   0.02188   1.98773
   A28        1.96684  -0.01355   0.00000  -0.03346  -0.03433   1.93251
   A29        2.23730   0.00942   0.00000   0.04897   0.04637   2.28367
   A30        1.96403   0.00319   0.00000   0.00091   0.00151   1.96554
   A31        2.16082  -0.00586   0.00000  -0.01593  -0.01693   2.14390
   A32        2.14641   0.00327   0.00000   0.02311   0.02214   2.16856
   A33        1.59319   0.00062   0.00000   0.00381   0.00433   1.59752
   A34        1.96015   0.00144   0.00000   0.00261   0.00227   1.96242
   A35        2.13571  -0.00461   0.00000  -0.01374  -0.01495   2.12076
   A36        2.16998   0.00421   0.00000   0.02452   0.02348   2.19345
   A37        1.93907   0.00554   0.00000   0.00877   0.00935   1.94841
   A38        2.16588   0.00000   0.00000   0.01557   0.01348   2.17936
   A39        2.14155  -0.00368   0.00000  -0.00098  -0.00315   2.13839
    D1        0.00683  -0.00048   0.00000  -0.00815  -0.00820  -0.00136
    D2       -3.13456  -0.00043   0.00000  -0.00748  -0.00750   3.14112
    D3       -3.13952  -0.00017   0.00000  -0.00314  -0.00320   3.14047
    D4        0.00227  -0.00012   0.00000  -0.00246  -0.00250  -0.00023
    D5       -0.00671   0.00042   0.00000   0.00548   0.00544  -0.00127
    D6       -3.13020   0.00006   0.00000   0.00097   0.00092  -3.12928
    D7        3.13954   0.00012   0.00000   0.00060   0.00055   3.14009
    D8        0.01605  -0.00024   0.00000  -0.00391  -0.00397   0.01208
    D9       -0.00388   0.00039   0.00000   0.00717   0.00713   0.00325
   D10        3.11762   0.00055   0.00000   0.00352   0.00351   3.12113
   D11        3.13750   0.00034   0.00000   0.00645   0.00642  -3.13926
   D12       -0.02418   0.00050   0.00000   0.00281   0.00280  -0.02138
   D13        0.03777  -0.00019   0.00000  -0.00182  -0.00182   0.03595
   D14       -2.04840  -0.00078   0.00000  -0.00610  -0.00608  -2.05448
   D15        2.11332   0.00079   0.00000   0.00530   0.00527   2.11859
   D16       -3.10360  -0.00014   0.00000  -0.00104  -0.00104  -3.10464
   D17        1.09342  -0.00073   0.00000  -0.00533  -0.00530   1.08812
   D18       -1.02805   0.00085   0.00000   0.00607   0.00605  -1.02200
   D19        0.00006  -0.00010   0.00000  -0.00337  -0.00344  -0.00339
   D20       -3.12486   0.00003   0.00000   0.00044   0.00048  -3.12437
   D21       -1.65796  -0.00095   0.00000   0.00000  -0.00000  -1.65797
   D22        1.43968   0.00117   0.00000   0.02236   0.02242   1.46210
   D23        1.46213  -0.00083   0.00000  -0.00405  -0.00405   1.45807
   D24       -1.72342   0.00129   0.00000   0.01832   0.01837  -1.70504
   D25        0.00376  -0.00017   0.00000  -0.00111  -0.00111   0.00265
   D26        3.12751   0.00031   0.00000   0.00387   0.00375   3.13126
   D27        3.13768   0.00074   0.00000   0.00904   0.00893  -3.13657
   D28        0.03267  -0.00087   0.00000  -0.00915  -0.00953   0.02314
   D29       -3.13850  -0.00147   0.00000  -0.01488  -0.01460   3.13009
   D30       -0.15815   0.00302   0.00000   0.04178   0.04153  -0.11662
   D31       -0.03649   0.00026   0.00000   0.00476   0.00536  -0.03113
   D32        2.94386   0.00475   0.00000   0.06143   0.06148   3.00534
   D33       -0.02116   0.00164   0.00000   0.01234   0.01214  -0.00902
   D34       -2.61634  -0.00721   0.00000  -0.07663  -0.07722  -2.69356
   D35        0.00348  -0.00139   0.00000  -0.01092  -0.01063  -0.00715
   D36       -2.68797  -0.01068   0.00000  -0.09355  -0.09083  -2.77880
   D37        2.68736   0.00811   0.00000   0.07670   0.07471   2.76206
   D38       -0.00410  -0.00118   0.00000  -0.00593  -0.00549  -0.00959
   D39        2.61360   0.00557   0.00000   0.08364   0.08560   2.69919
   D40       -0.24605  -0.00090   0.00000  -0.00353  -0.00261  -0.24865
   D41        0.01931   0.00104   0.00000   0.00590   0.00553   0.02485
   D42       -2.84033  -0.00542   0.00000  -0.08127  -0.08267  -2.92300
   D43        0.02191   0.00077   0.00000   0.00380   0.00341   0.02532
   D44       -2.95998  -0.00270   0.00000  -0.04819  -0.04943  -3.00941
   D45        2.62748   0.00443   0.00000   0.07419   0.07600   2.70348
   D46       -0.35440   0.00095   0.00000   0.02220   0.02315  -0.33126
   D47       -0.00939   0.00103   0.00000   0.00382   0.00366  -0.00572
   D48       -2.61472  -0.00790   0.00000  -0.08033  -0.08033  -2.69505
   D49        0.02048  -0.00032   0.00000  -0.00021  -0.00035   0.02013
   D50        2.97084   0.00591   0.00000   0.07576   0.07472   3.04556
   D51       -0.02629  -0.00025   0.00000  -0.00294  -0.00253  -0.02883
   D52        2.83796   0.00678   0.00000   0.08591   0.08635   2.92431
   D53       -2.97224  -0.00548   0.00000  -0.07567  -0.07624  -3.04848
   D54       -0.10799   0.00155   0.00000   0.01318   0.01264  -0.09534
         Item               Value     Threshold  Converged?
 Maximum Force            0.063499     0.000450     NO 
 RMS     Force            0.012462     0.000300     NO 
 Maximum Displacement     0.228965     0.001800     NO 
 RMS     Displacement     0.069863     0.001200     NO 
 Predicted change in Energy=-2.904927D-02
 GradGradGradGradGradGradGradGradGradGradGradGradGradGradGradGradGradGrad

                          Input orientation:                          
 ---------------------------------------------------------------------
 Center     Atomic      Atomic             Coordinates (Angstroms)
 Number     Number       Type             X           Y           Z
 ---------------------------------------------------------------------
      1          6           0       -4.204991   -1.405884   -0.189224
      2          6           0       -2.906209   -0.994806   -0.598502
      3          6           0       -1.992355   -2.046943   -0.606359
      4          6           0       -2.588534    0.423126   -0.972530
      5          6           0       -4.297980   -2.751737    0.113177
      6          1           0       -5.051031   -0.737745   -0.117000
      7         16           0       -2.789741   -3.544875   -0.100667
      8          1           0       -5.187336   -3.274184    0.432151
      9          6           0       -0.589842   -2.078713   -0.972632
     10         16           0       -0.069748   -2.547401   -2.606045
     11          6           0        1.599523   -2.338384   -2.203162
     12          6           0        1.741608   -1.913924   -0.869782
     13          6           0        0.509244   -1.750691   -0.183949
     14          1           0        0.414837   -1.321347    0.803300
     15         16           0        3.284415   -1.157120   -0.627285
     16          6           0        3.729275   -1.421327   -2.298459
     17          6           0        2.725912   -2.040673   -3.019976
     18          1           0        4.646348   -1.025082   -2.707648
     19          1           0        2.741529   -2.106243   -4.099873
     20          1           0       -3.465964    1.060452   -0.847699
     21          1           0       -2.268700    0.501858   -2.014567
     22          1           0       -1.794259    0.836642   -0.342268
 ---------------------------------------------------------------------
                    Distance matrix (angstroms):
                    1          2          3          4          5
     1  C    0.000000
     2  C    1.422438   0.000000
     3  C    2.341093   1.393622   0.000000
     4  C    2.563548   1.500449   2.567245   0.000000
     5  C    1.382539   2.351664   2.516024   3.765730   0.000000
     6  H    1.080467   2.213185   3.362881   2.853672   2.162460
     7  S    2.566332   2.600818   1.770692   4.067636   1.717435
     8  H    2.200375   3.385462   3.576665   4.732547   1.079652
     9  C    3.759752   2.584643   1.449899   3.202182   3.922019
    10  S    4.923853   3.806086   2.818798   4.223350   5.031290
    11  C    6.214329   4.968073   3.941611   5.165289   6.349553
    12  C    6.006938   4.745584   3.745606   4.921635   6.176145
    13  C    4.726832   3.522575   2.554250   3.865691   4.919328
    14  H    4.725998   3.619533   2.882395   3.900896   4.973221
    15  S    7.506330   6.192818   5.351311   6.091626   7.783560
    16  C    8.209854   6.863047   5.999304   6.713777   8.486625
    17  C    7.513556   6.219176   5.299776   6.205294   7.723815
    18  H    9.210520   7.841589   7.037897   7.579674   9.536215
    19  H    8.002364   6.737346   5.883690   6.677391   8.229286
    20  H    2.657549   2.144647   3.447560   1.091627   4.018498
    21  H    3.274230   2.156771   2.925029   1.092855   4.385334
    22  H    3.296054   2.157844   2.902420   1.095033   4.399149
                    6          7          8          9         10
     6  H    0.000000
     7  S    3.604675   0.000000
     8  H    2.598782   2.470958   0.000000
     9  C    4.736297   2.783794   4.953738   0.000000
    10  S    5.855202   3.830174   5.995712   1.777134   0.000000
    11  C    7.151502   5.014153   7.340439   2.524866   1.729874
    12  C    6.934697   4.876952   7.180223   2.339528   2.587839
    13  C    5.652186   3.756239   5.928882   1.391980   2.614676
    14  H    5.573442   4.003817   5.944381   2.176446   3.655362
    15  S    8.361575   6.547829   8.796302   3.997307   4.135067
    16  C    9.073027   7.199813   9.507643   4.565605   3.974321
    17  C    8.402722   6.419299   8.721136   3.897087   2.871206
    18  H   10.041573   8.272915  10.564949   5.615880   4.956746
    19  H    8.857768   6.975547   9.207075   4.569292   3.213941
    20  H    2.505968   4.714273   4.836342   4.259348   5.257630
    21  H    3.588696   4.506722   5.363148   3.250160   3.805682
    22  H    3.624363   4.499672   5.386240   3.216717   4.421580
                   11         12         13         14         15
    11  C    0.000000
    12  C    1.406505   0.000000
    13  C    2.368820   1.419765   0.000000
    14  H    3.387722   2.216004   1.080699   0.000000
    15  S    2.591840   1.735457   2.872359   3.210611   0.000000
    16  C    2.320759   2.496916   3.866294   4.540530   1.749437
    17  C    1.422873   2.368175   3.611198   4.525034   2.611046
    18  H    3.355952   3.550395   4.900122   5.506380   2.490021
    19  H    2.226114   3.386786   4.521501   5.483673   3.640663
    20  H    6.248881   5.997183   4.913794   4.843488   7.108715
    21  H    4.802675   4.819658   4.017724   4.297187   5.959349
    22  H    5.006143   4.510680   3.467778   3.293834   5.463447
                   16         17         18         19         20
    16  C    0.000000
    17  C    1.382358   0.000000
    18  H    1.079569   2.194778   0.000000
    19  H    2.165605   1.081999   2.595291   0.000000
    20  H    7.748251   7.257760   8.580120   7.690095   0.000000
    21  H    6.305152   5.693984   7.115461   6.021054   1.762682
    22  H    6.279692   5.990075   7.109321   6.584340   1.760724
                   21         22
    21  H    0.000000
    22  H    1.770242   0.000000
 Stoichiometry    C11H8S3
 Framework group  C1[X(C11H8S3)]
 Deg. of freedom    60
 Full point group                 C1      NOp   1
 Largest Abelian subgroup         C1      NOp   1
 Largest concise Abelian subgroup C1      NOp   1
                         Standard orientation:                         
 ---------------------------------------------------------------------
 Center     Atomic      Atomic             Coordinates (Angstroms)
 Number     Number       Type             X           Y           Z
 ---------------------------------------------------------------------
      1          6           0        3.924489    0.766599    0.221764
      2          6           0        2.539751    1.025841    0.418292
      3          6           0        1.730082    0.018142   -0.102439
      4          6           0        2.039596    2.258434    1.112486
      5          6           0        4.184833   -0.420482   -0.437382
      6          1           0        4.711866    1.428425    0.552572
      7         16           0        2.731880   -1.247856   -0.829763
      8          1           0        5.160053   -0.815353   -0.679601
      9          6           0        0.287897   -0.131221   -0.102039
     10         16           0       -0.544225   -1.082124    1.147586
     11          6           0       -2.093487   -0.766954    0.445503
     12          6           0       -1.968239    0.046513   -0.695041
     13          6           0       -0.630607    0.418501   -0.991851
     14          1           0       -0.352630    1.131203   -1.755196
     15         16           0       -3.472018    0.834124   -1.055776
     16          6           0       -4.255012    0.066507    0.307387
     17          6           0       -3.392391   -0.740177    1.025761
     18          1           0       -5.267543    0.313416    0.588961
     19          1           0       -3.642134   -1.134900    2.001745
     20          1           0        2.871511    2.907273    1.392798
     21          1           0        1.491500    2.011264    2.025081
     22          1           0        1.375713    2.842158    0.466247
 ---------------------------------------------------------------------
 Rotational constants (GHZ):           1.2566885           0.2628714           0.2539698
 Standard basis: 6-311+G(d,p) (5D, 7F)
 There are   394 symmetry adapted cartesian basis functions of A   symmetry.
 There are   380 symmetry adapted basis functions of A   symmetry.
   380 basis functions,   610 primitive gaussians,   394 cartesian basis functions
    61 alpha electrons       61 beta electrons
       nuclear repulsion energy      1119.1487537956 Hartrees.
 NAtoms=   22 NActive=   22 NUniq=   22 SFac= 1.00D+00 NAtFMM=   60 NAOKFM=F Big=F
 Integral buffers will be    131072 words long.
 Raffenetti 2 integral format.
 Two-electron integral symmetry is turned on.
 One-electron integrals computed using PRISM.
 NBasis=   380 RedAO= T EigKep=  1.05D-06  NBF=   380
 NBsUse=   379 1.00D-06 EigRej=  3.93D-07 NBFU=   379
 Initial guess from the checkpoint file:  "/tmp/pbs.4729010[80].pbs/Gau-2633072.chk"
 B after Tr=    -0.000000    0.000000    0.000000
         Rot=    0.999991   -0.002287    0.002295   -0.002557 Ang=  -0.47 deg.
 ExpMin= 4.05D-02 ExpMax= 9.34D+04 ExpMxC= 3.17D+03 IAcc=3 IRadAn=         5 AccDes= 0.00D+00
 Harris functional with IExCor=  402 and IRadAn=       5 diagonalized for initial guess.
 HarFok:  IExCor=  402 AccDes= 0.00D+00 IRadAn=         5 IDoV= 1 UseB2=F ITyADJ=14
 ICtDFT=  3500011 ScaDFX=  1.000000  1.000000  1.000000  1.000000
 FoFCou: FMM=F IPFlag=           0 FMFlag=      100000 FMFlg1=           0
         NFxFlg=           0 DoJE=T BraDBF=F KetDBF=T FulRan=T
         wScrn=  0.000000 ICntrl=       500 IOpCl=  0 I1Cent=   200000004 NGrid=           0
         NMat0=    1 NMatS0=      1 NMatT0=    0 NMatD0=    1 NMtDS0=    0 NMtDT0=    0
 Petite list used in FoFCou.
 Requested convergence on RMS density matrix=1.00D-08 within 128 cycles.
 Requested convergence on MAX density matrix=1.00D-06.
 Requested convergence on             energy=1.00D-06.
 No special actions if energy rises.
 SCF Done:  E(RB3LYP) =  -1618.70410614     A.U. after   15 cycles
            NFock= 15  Conv=0.32D-08     -V/T= 2.0023
 Calling FoFJK, ICntrl=      2127 FMM=F ISym2X=0 I1Cent= 0 IOpClX= 0 NMat=1 NMatS=1 NMatT=0.
 ***** Axes restored to original set *****
 -------------------------------------------------------------------
 Center     Atomic                   Forces (Hartrees/Bohr)
 Number     Number              X              Y              Z
 -------------------------------------------------------------------
      1        6          -0.001275960   -0.016035062    0.004441330
      2        6           0.008215424   -0.008397766   -0.000095217
      3        6          -0.019854796   -0.001062218    0.003134391
      4        6           0.002163105    0.003306114    0.000334566
      5        6          -0.000897430    0.017088646   -0.004261461
      6        1          -0.000458265    0.001776893   -0.000198033
      7       16           0.003160427    0.002154725   -0.001054406
      8        1           0.001851767   -0.002560958    0.000442016
      9        6           0.022742322    0.006956050    0.007825258
     10       16          -0.007450452   -0.007019738    0.002121993
     11        6           0.002702319    0.013613736    0.007024709
     12        6          -0.007496733    0.005158560   -0.013214422
     13        6          -0.012620157   -0.004419169   -0.009571346
     14        1          -0.001331219   -0.003791858    0.002179361
     15       16           0.009894451   -0.002703727    0.000906691
     16        6          -0.015558937   -0.006266777   -0.009453769
     17        6           0.010530133    0.010735596    0.006780193
     18        1           0.002450424   -0.001980186    0.003993239
     19        1           0.002076690   -0.005909836    0.000775928
     20        1          -0.000464791   -0.000467979   -0.000113672
     21        1           0.001441279    0.000322817   -0.000109058
     22        1           0.000180399   -0.000497862   -0.001888292
 -------------------------------------------------------------------
 Cartesian Forces:  Max     0.022742322 RMS     0.007308797

 GradGradGradGradGradGradGradGradGradGradGradGradGradGradGradGradGradGrad
 Berny optimization.
 Using GEDIIS/GDIIS optimizer.
 FormGI is forming the generalized inverse of G from B-inverse, IUseBI=4.
 Internal  Forces:  Max     0.017212279 RMS     0.003701470
 Search for a local minimum.
 Step number   2 out of a maximum of  127
 All quantities printed in internal units (Hartrees-Bohrs-Radians)
 Mixed Optimization -- RFO/linear search
 Update second derivatives using D2CorX and points    1    2
 DE= -3.04D-02 DEPred=-2.90D-02 R= 1.05D+00
 TightC=F SS=  1.41D+00  RLast= 4.06D-01 DXNew= 5.0454D-01 1.2171D+00
 Trust test= 1.05D+00 RLast= 4.06D-01 DXMaxT set to 5.05D-01
 ITU=  1  0
 Use linear search instead of GDIIS.
     Eigenvalues ---    0.00935   0.00981   0.01049   0.01209   0.01241
     Eigenvalues ---    0.01272   0.01290   0.01372   0.01462   0.01475
     Eigenvalues ---    0.01500   0.01581   0.01592   0.01693   0.01985
     Eigenvalues ---    0.02237   0.07208   0.07353   0.15580   0.15689
     Eigenvalues ---    0.15890   0.15964   0.16000   0.16000   0.16000
     Eigenvalues ---    0.16040   0.19132   0.22474   0.22541   0.23453
     Eigenvalues ---    0.24129   0.24506   0.24778   0.24995   0.25069
     Eigenvalues ---    0.26010   0.26526   0.28351   0.30366   0.31086
     Eigenvalues ---    0.31471   0.33700   0.33815   0.34531   0.34706
     Eigenvalues ---    0.34937   0.35269   0.35835   0.35874   0.36006
     Eigenvalues ---    0.36100   0.36125   0.36222   0.37054   0.38160
     Eigenvalues ---    0.38970   0.39462   0.40476   0.420561000.00000
     Eigenvalues --- 1000.000001000.000001000.000001000.000001000.00000
     Eigenvalues --- 1000.000001000.000001000.000001000.000001000.00000
     Eigenvalues --- 1000.000001000.000001000.000001000.000001000.00000
     Eigenvalues --- 1000.000001000.000001000.000001000.000001000.00000
     Eigenvalues --- 1000.000001000.000001000.000001000.000001000.00000
     Eigenvalues --- 1000.000001000.000001000.000001000.000001000.00000
     Eigenvalues --- 1000.000001000.000001000.000001000.000001000.00000
     Eigenvalues --- 1000.000001000.000001000.000001000.000001000.00000
     Eigenvalues --- 1000.000001000.000001000.000001000.000001000.00000
     Eigenvalues --- 1000.000001000.000001000.000001000.000001000.00000
     Eigenvalues --- 1000.000001000.000001000.000001000.000001000.00000
     Eigenvalues --- 1000.000001000.00000
 RFO step:  Lambda=-6.51837588D-03 EMin= 9.35105552D-03
 Quartic linear search produced a step of  0.38107.
 Iteration  1 RMS(Cart)=  0.07576260 RMS(Int)=  0.00565812
 Iteration  2 RMS(Cart)=  0.00721798 RMS(Int)=  0.00221581
 Iteration  3 RMS(Cart)=  0.00003037 RMS(Int)=  0.00221565
 Iteration  4 RMS(Cart)=  0.00000002 RMS(Int)=  0.00221565
 Iteration  1 RMS(Cart)=  0.00001599 RMS(Int)=  0.00000616
 Iteration  2 RMS(Cart)=  0.00000875 RMS(Int)=  0.00000688
 Iteration  3 RMS(Cart)=  0.00000479 RMS(Int)=  0.00000777
 Iteration  4 RMS(Cart)=  0.00000262 RMS(Int)=  0.00000836
 Iteration  5 RMS(Cart)=  0.00000143 RMS(Int)=  0.00000871
 Iteration  6 RMS(Cart)=  0.00000078 RMS(Int)=  0.00000891
 Variable       Old X    -DE/DX   Delta X   Delta X   Delta X     New X
                                 (Linear)    (Quad)   (Total)
    R1        2.68802   0.00182  -0.01187   0.02019   0.00833   2.69635
    R2        2.61262  -0.01244  -0.03860   0.00510  -0.03354   2.57908
    R3        2.04179   0.00144   0.00147   0.00352   0.00499   2.04677
    R4        2.63356  -0.01298  -0.04782   0.01177  -0.03601   2.59756
    R5        2.83544   0.00366   0.00953   0.00254   0.01208   2.84751
    R6        3.34612  -0.00594  -0.01892  -0.00444  -0.02334   3.32278
    R7        2.73991   0.00581  -0.00367   0.02515   0.02148   2.76140
    R8        2.06288   0.00009  -0.00058   0.00106   0.00048   2.06336
    R9        2.06520   0.00055   0.00282  -0.00140   0.00141   2.06661
   R10        2.06931  -0.00114  -0.00269  -0.00114  -0.00384   2.06548
   R11        3.24548   0.00094  -0.01571   0.02418   0.00843   3.25391
   R12        2.04025  -0.00016  -0.00018  -0.00035  -0.00053   2.03971
   R13        3.35830  -0.00280  -0.00934   0.00694  -0.00493   3.35336
   R14        2.63046  -0.01721  -0.05213   0.00482  -0.04900   2.58146
   R15        3.26899   0.00485  -0.00012   0.01849   0.01913   3.28812
   R16        2.65791  -0.00801  -0.02513  -0.00772  -0.02828   2.62963
   R17        2.68884   0.00168  -0.00216   0.00492   0.00434   2.69318
   R18        2.68297   0.00120  -0.00944   0.01230   0.00412   2.68708
   R19        3.27954   0.00480   0.00259   0.01573   0.01818   3.29772
   R20        2.04223   0.00060   0.00126   0.00067   0.00193   2.04415
   R21        3.30596  -0.00281  -0.01120   0.00894  -0.00436   3.30159
   R22        2.61228  -0.01446  -0.04538   0.00833  -0.03778   2.57449
   R23        2.04009  -0.00016  -0.00104   0.00070  -0.00034   2.03975
   R24        2.04468  -0.00039  -0.00296   0.00221  -0.00075   2.04393
    A1        1.98851  -0.00048   0.00698  -0.01362  -0.00668   1.98184
    A2        2.15974  -0.00093  -0.00517  -0.00019  -0.00535   2.15439
    A3        2.13493   0.00141  -0.00181   0.01382   0.01202   2.14695
    A4        1.96295  -0.00062  -0.00340   0.00046  -0.00289   1.96005
    A5        2.13903   0.00408   0.01524   0.00163   0.01684   2.15586
    A6        2.18121  -0.00346  -0.01183  -0.00208  -0.01395   2.16727
    A7        1.91959   0.00321   0.00579   0.00953   0.01538   1.93497
    A8        2.28138  -0.00712  -0.01430  -0.01867  -0.03301   2.24837
    A9        2.08199   0.00391   0.00849   0.00931   0.01775   2.09974
   A10        1.93162  -0.00063  -0.00528   0.00549   0.00022   1.93183
   A11        1.94736   0.00039   0.00506  -0.00642  -0.00137   1.94599
   A12        1.94653   0.00059   0.00504  -0.00358   0.00145   1.94798
   A13        1.87781   0.00039   0.00141   0.00234   0.00377   1.88158
   A14        1.87206   0.00068   0.00228   0.00567   0.00796   1.88002
   A15        1.88527  -0.00144  -0.00884  -0.00302  -0.01189   1.87338
   A16        1.94256   0.00101  -0.00413   0.01180   0.00758   1.95014
   A17        2.20320   0.00273   0.01044   0.00779   0.01825   2.22146
   A18        2.13734  -0.00374  -0.00629  -0.01948  -0.02575   2.11159
   A19        1.61116  -0.00313  -0.00523  -0.00818  -0.01345   1.59772
   A20        2.11889  -0.00306  -0.00379  -0.01209  -0.01583   2.10306
   A21        2.23380  -0.00001  -0.00251   0.00240  -0.00006   2.23373
   A22        1.93033   0.00310   0.00649   0.01006   0.01601   1.94634
   A23        1.60728  -0.00267  -0.00455  -0.01272  -0.01513   1.59215
   A24        1.93343  -0.00202  -0.01075   0.01230  -0.00109   1.93234
   A25        2.28561   0.00387   0.01788   0.04114   0.04831   2.33393
   A26        1.98351   0.00041   0.00698  -0.00314   0.00284   1.98636
   A27        1.98773   0.00026   0.00834  -0.00526   0.00209   1.98982
   A28        1.93251  -0.00186  -0.01308   0.01660   0.00106   1.93357
   A29        2.28367   0.00378   0.01767   0.03882   0.04593   2.32961
   A30        1.96554   0.00136   0.00057  -0.00359  -0.00147   1.96407
   A31        2.14390  -0.00187  -0.00645   0.00554  -0.00410   2.13980
   A32        2.16856   0.00080   0.00844   0.00547   0.01071   2.17927
   A33        1.59752  -0.00213   0.00165  -0.01950  -0.01514   1.58238
   A34        1.96242   0.00262   0.00086   0.01658   0.01603   1.97845
   A35        2.12076  -0.00465  -0.00570  -0.02055  -0.03069   2.09007
   A36        2.19345   0.00250   0.00895   0.01655   0.02096   2.21442
   A37        1.94841   0.00098   0.00356  -0.00980  -0.00445   1.94396
   A38        2.17936  -0.00062   0.00514   0.00581   0.00455   2.18392
   A39        2.13839   0.00049  -0.00120   0.02339   0.01587   2.15427
    D1       -0.00136  -0.00026  -0.00312  -0.00461  -0.00774  -0.00910
    D2        3.14112  -0.00027  -0.00286  -0.00689  -0.00976   3.13136
    D3        3.14047  -0.00012  -0.00122  -0.00353  -0.00480   3.13567
    D4       -0.00023  -0.00013  -0.00095  -0.00581  -0.00683  -0.00706
    D5       -0.00127   0.00021   0.00207   0.00126   0.00333   0.00206
    D6       -3.12928  -0.00010   0.00035  -0.00716  -0.00694  -3.13622
    D7        3.14009   0.00007   0.00021   0.00020   0.00041   3.14050
    D8        0.01208  -0.00024  -0.00151  -0.00823  -0.00986   0.00221
    D9        0.00325   0.00019   0.00272   0.00570   0.00844   0.01170
   D10        3.12113   0.00050   0.00134   0.01463   0.01589   3.13703
   D11       -3.13926   0.00021   0.00245   0.00805   0.01050  -3.12875
   D12       -0.02138   0.00052   0.00107   0.01697   0.01795  -0.00343
   D13        0.03595  -0.00019  -0.00069  -0.00219  -0.00289   0.03306
   D14       -2.05448  -0.00052  -0.00232  -0.00459  -0.00689  -2.06137
   D15        2.11859   0.00064   0.00201   0.00625   0.00825   2.12684
   D16       -3.10464  -0.00020  -0.00040  -0.00476  -0.00516  -3.10980
   D17        1.08812  -0.00053  -0.00202  -0.00716  -0.00916   1.07896
   D18       -1.02200   0.00062   0.00231   0.00368   0.00597  -1.01602
   D19       -0.00339  -0.00006  -0.00131  -0.00426  -0.00563  -0.00901
   D20       -3.12437  -0.00016   0.00018  -0.01158  -0.01156  -3.13593
   D21       -1.65797  -0.00075  -0.00000   0.00000   0.00000  -1.65797
   D22        1.46210   0.00081   0.00854   0.02417   0.03290   1.49500
   D23        1.45807  -0.00044  -0.00154   0.00958   0.00795   1.46602
   D24       -1.70504   0.00111   0.00700   0.03375   0.04085  -1.66420
   D25        0.00265  -0.00009  -0.00042   0.00172   0.00124   0.00389
   D26        3.13126   0.00026   0.00143   0.01000   0.01115  -3.14077
   D27       -3.13657   0.00042   0.00340  -0.00149   0.00154  -3.13503
   D28        0.02314  -0.00087  -0.00363  -0.02181  -0.02622  -0.00308
   D29        3.13009  -0.00057  -0.00556   0.00391  -0.00131   3.12877
   D30       -0.11662   0.00250   0.01582   0.07908   0.09453  -0.02210
   D31       -0.03113   0.00079   0.00204   0.02573   0.02885  -0.00228
   D32        3.00534   0.00386   0.02343   0.10091   0.12469   3.13003
   D33       -0.00902   0.00079   0.00463   0.01207   0.01667   0.00764
   D34       -2.69356  -0.00504  -0.02942  -0.12037  -0.15275  -2.84631
   D35       -0.00715  -0.00038  -0.00405   0.00048  -0.00339  -0.01054
   D36       -2.77880  -0.00609  -0.03461  -0.11952  -0.14801  -2.92681
   D37        2.76206   0.00549   0.02847   0.12016   0.14299   2.90505
   D38       -0.00959  -0.00022  -0.00209   0.00016  -0.00164  -0.01122
[...]
     15         16           0       -3.515646    0.698770   -1.153468
     16          6           0       -4.304181   -0.139289    0.163283
     17          6           0       -3.428107   -0.711782    1.039380
     18          1           0       -5.382671   -0.154197    0.203544
     19          1           0       -3.734079   -1.270885    1.912617
     20          1           0        2.969791    2.883653    1.287713
     21          1           0        1.591572    2.011135    1.967041
     22          1           0        1.439401    2.810308    0.407197
 ---------------------------------------------------------------------
 Rotational constants (GHZ):           1.2756794           0.2587868           0.2538175

 **********************************************************************

            Population analysis using the SCF Density.

 **********************************************************************

 Orbital symmetries:
       Occupied  (A) (A) (A) (A) (A) (A) (A) (A) (A) (A) (A) (A)
                 (A) (A) (A) (A) (A) (A) (A) (A) (A) (A) (A) (A)
                 (A) (A) (A) (A) (A) (A) (A) (A) (A) (A) (A) (A)
                 (A) (A) (A) (A) (A) (A) (A) (A) (A) (A) (A) (A)
                 (A) (A) (A) (A) (A) (A) (A) (A) (A) (A) (A) (A)
                 (A)
       Virtual   (A) (A) (A) (A) (A) (A) (A) (A) (A) (A) (A) (A)
                 (A) (A) (A) (A) (A) (A) (A) (A) (A) (A) (A) (A)
                 (A) (A) (A) (A) (A) (A) (A) (A) (A) (A) (A) (A)
                 (A) (A) (A) (A) (A) (A) (A) (A) (A) (A) (A) (A)
                 (A) (A) (A) (A) (A) (A) (A) (A) (A) (A) (A) (A)
                 (A) (A) (A) (A) (A) (A) (A) (A) (A) (A) (A) (A)
                 (A) (A) (A) (A) (A) (A) (A) (A) (A) (A) (A) (A)
                 (A) (A) (A) (A) (A) (A) (A) (A) (A) (A) (A) (A)
                 (A) (A) (A) (A) (A) (A) (A) (A) (A) (A) (A) (A)
                 (A) (A) (A) (A) (A) (A) (A) (A) (A) (A) (A) (A)
                 (A) (A) (A) (A) (A) (A) (A) (A) (A) (A) (A) (A)
                 (A) (A) (A) (A) (A) (A) (A) (A) (A) (A) (A) (A)
                 (A) (A) (A) (A) (A) (A) (A) (A) (A) (A) (A) (A)
                 (A) (A) (A) (A) (A) (A) (A) (A) (A) (A) (A) (A)
                 (A) (A) (A) (A) (A) (A) (A) (A) (A) (A) (A) (A)
                 (A) (A) (A) (A) (A) (A) (A) (A) (A) (A) (A) (A)
                 (A) (A) (A) (A) (A) (A) (A) (A) (A) (A) (A) (A)
                 (A) (A) (A) (A) (A) (A) (A) (A) (A) (A) (A) (A)
                 (A) (A) (A) (A) (A) (A) (A) (A) (A) (A) (A) (A)
                 (A) (A) (A) (A) (A) (A) (A) (A) (A) (A) (A) (A)
                 (A) (A) (A) (A) (A) (A) (A) (A) (A) (A) (A) (A)
                 (A) (A) (A) (A) (A) (A) (A) (A) (A) (A) (A) (A)
                 (A) (A) (A) (A) (A) (A) (A) (A) (A) (A) (A) (A)
                 (A) (A) (A) (A) (A) (A) (A) (A) (A) (A) (A) (A)
                 (A) (A) (A) (A) (A) (A) (A) (A) (A) (A) (A) (A)
                 (A) (A) (A) (A) (A) (A) (A) (A) (A) (A) (A) (A)
                 (A) (A) (A) (A) (A) (A)
 The electronic state is 1-A.
 Alpha  occ. eigenvalues --  -88.88472 -88.88227 -88.87976 -10.22148 -10.21161
 Alpha  occ. eigenvalues --  -10.21094 -10.21093 -10.21083 -10.20421 -10.19392
 Alpha  occ. eigenvalues --  -10.19367 -10.19250 -10.18044 -10.17400  -7.97046
 Alpha  occ. eigenvalues --   -7.96796  -7.96585  -5.93358  -5.93111  -5.92993
 Alpha  occ. eigenvalues --   -5.92870  -5.92747  -5.92596  -5.92495  -5.92335
 Alpha  occ. eigenvalues --   -5.92190  -0.91623  -0.89133  -0.84896  -0.77588
 Alpha  occ. eigenvalues --   -0.77073  -0.75527  -0.71416  -0.70553  -0.67880
 Alpha  occ. eigenvalues --   -0.61286  -0.57495  -0.56697  -0.54247  -0.52073
 Alpha  occ. eigenvalues --   -0.49938  -0.49691  -0.44528  -0.43633  -0.43450
 Alpha  occ. eigenvalues --   -0.41966  -0.41494  -0.39901  -0.39484  -0.39129
 Alpha  occ. eigenvalues --   -0.37706  -0.37431  -0.36575  -0.34936  -0.34269
 Alpha  occ. eigenvalues --   -0.33606  -0.29061  -0.25519  -0.24136  -0.23809
 Alpha  occ. eigenvalues --   -0.22546
 Alpha virt. eigenvalues --   -0.04581  -0.03459  -0.00586  -0.00341   0.00077
 Alpha virt. eigenvalues --    0.00440   0.00752   0.01691   0.01717   0.02783
 Alpha virt. eigenvalues --    0.02977   0.03340   0.03694   0.04132   0.04416
 Alpha virt. eigenvalues --    0.04595   0.05306   0.05748   0.06062   0.06604
 Alpha virt. eigenvalues --    0.07012   0.07581   0.07896   0.07960   0.08751
 Alpha virt. eigenvalues --    0.09150   0.09380   0.10146   0.10222   0.10806
 Alpha virt. eigenvalues --    0.11354   0.11967   0.12409   0.12795   0.13135
 Alpha virt. eigenvalues --    0.13684   0.14025   0.14395   0.15111   0.15208
 Alpha virt. eigenvalues --    0.15852   0.15935   0.16176   0.16502   0.16881
 Alpha virt. eigenvalues --    0.17690   0.17784   0.18164   0.18524   0.18785
 Alpha virt. eigenvalues --    0.19179   0.19360   0.20087   0.20305   0.20841
 Alpha virt. eigenvalues --    0.21155   0.21298   0.21795   0.22182   0.22351
 Alpha virt. eigenvalues --    0.22782   0.23195   0.23355   0.23941   0.24236
 Alpha virt. eigenvalues --    0.24608   0.25329   0.26140   0.26612   0.27671
 Alpha virt. eigenvalues --    0.28250   0.28622   0.29612   0.30122   0.30504
 Alpha virt. eigenvalues --    0.31162   0.32765   0.33104   0.33781   0.33985
 Alpha virt. eigenvalues --    0.34945   0.35628   0.36100   0.36940   0.37496
 Alpha virt. eigenvalues --    0.39376   0.40644   0.41242   0.43584   0.43864
 Alpha virt. eigenvalues --    0.45099   0.45557   0.46379   0.47565   0.49237
 Alpha virt. eigenvalues --    0.49687   0.51644   0.52486   0.54165   0.55405
 Alpha virt. eigenvalues --    0.56247   0.56752   0.57174   0.58222   0.58560
 Alpha virt. eigenvalues --    0.58644   0.60686   0.60996   0.62226   0.62853
 Alpha virt. eigenvalues --    0.63061   0.64188   0.65334   0.65732   0.65954
 Alpha virt. eigenvalues --    0.66861   0.67422   0.68935   0.70200   0.70623
 Alpha virt. eigenvalues --    0.71614   0.71959   0.73111   0.73321   0.74408
 Alpha virt. eigenvalues --    0.76344   0.76949   0.77234   0.78360   0.79030
 Alpha virt. eigenvalues --    0.79559   0.80662   0.81412   0.81829   0.82672
 Alpha virt. eigenvalues --    0.83080   0.83506   0.84064   0.85161   0.85442
 Alpha virt. eigenvalues --    0.86609   0.88059   0.89508   0.90236   0.90916
 Alpha virt. eigenvalues --    0.93138   0.93642   0.94454   0.95257   0.96407
 Alpha virt. eigenvalues --    0.97801   0.99385   0.99737   1.00912   1.02648
 Alpha virt. eigenvalues --    1.03607   1.04299   1.05334   1.06420   1.06694
 Alpha virt. eigenvalues --    1.07745   1.09206   1.11187   1.12741   1.14512
 Alpha virt. eigenvalues --    1.16357   1.18715   1.20201   1.22401   1.26029
 Alpha virt. eigenvalues --    1.34067   1.35005   1.35736   1.36611   1.38661
 Alpha virt. eigenvalues --    1.39383   1.42907   1.46022   1.49172   1.50405
 Alpha virt. eigenvalues --    1.53022   1.54463   1.56094   1.57066   1.58455
 Alpha virt. eigenvalues --    1.58868   1.60031   1.60873   1.61599   1.62533
 Alpha virt. eigenvalues --    1.64404   1.66012   1.67668   1.68834   1.70171
 Alpha virt. eigenvalues --    1.72101   1.73453   1.74181   1.74414   1.76870
 Alpha virt. eigenvalues --    1.76952   1.78341   1.80043   1.82013   1.82383
 Alpha virt. eigenvalues --    1.84919   1.86339   1.88732   1.89711   1.90426
 Alpha virt. eigenvalues --    1.91235   1.93663   1.95380   1.96716   1.98378
 Alpha virt. eigenvalues --    2.00296   2.01878   2.03545   2.04012   2.05866
 Alpha virt. eigenvalues --    2.07435   2.08506   2.09314   2.10050   2.10322
 Alpha virt. eigenvalues --    2.12124   2.12868   2.15473   2.16135   2.18134
 Alpha virt. eigenvalues --    2.19260   2.21206   2.27170   2.30183   2.32910
 Alpha virt. eigenvalues --    2.37529   2.40740   2.42910   2.43792   2.44606
 Alpha virt. eigenvalues --    2.47579   2.51930   2.53193   2.54157   2.56178
 Alpha virt. eigenvalues --    2.62104   2.63498   2.65916   2.66807   2.69979
 Alpha virt. eigenvalues --    2.70337   2.71369   2.72946   2.73805   2.74168
 Alpha virt. eigenvalues --    2.74567   2.79244   2.81098   2.83966   2.84994
 Alpha virt. eigenvalues --    2.88662   2.90372   2.93856   2.94630   2.97438
 Alpha virt. eigenvalues --    2.99948   3.03104   3.05593   3.07175   3.11273
 Alpha virt. eigenvalues --    3.13795   3.16887   3.22264   3.29529   3.31270
 Alpha virt. eigenvalues --    3.31641   3.37140   3.42694   3.45064   3.47297
 Alpha virt. eigenvalues --    3.53199   3.58406   3.70823   3.79394   3.83626
 Alpha virt. eigenvalues --    3.94703   3.98554   4.06699   4.14034   4.33554
 Alpha virt. eigenvalues --    4.35594   4.49301   7.98804   7.99857   8.01466
 Alpha virt. eigenvalues --   17.28314  17.31038  17.31150  17.45537  17.47380
 Alpha virt. eigenvalues --   17.51196  17.51322  17.53950  17.56691  23.48526
 Alpha virt. eigenvalues --   23.64708  23.77367  23.81755  23.85969  23.95167
 Alpha virt. eigenvalues --   24.01955  24.08292  24.14022  24.15185  24.15309
 Alpha virt. eigenvalues --  189.15674 189.17164 189.18923
          Condensed to atoms (all electrons):
               1          2          3          4          5          6
     1  C   13.479662  -8.882490   6.577198  -2.230714  -1.772181   0.334108
     2  C   -8.882490  26.544320 -13.564178   2.121873   3.385463   0.020664
     3  C    6.577198 -13.564178  19.671448  -3.038192  -2.760364  -0.036201
     4  C   -2.230714   2.121873  -3.038192   8.045000   0.449506   0.006885
     5  C   -1.772181   3.385463  -2.760364   0.449506   6.315234   0.017981
     6  H    0.334108   0.020664  -0.036201   0.006885   0.017981   0.538192
     7  S   -1.747973   1.116570  -2.014259   0.674834   0.456611   0.006636
     8  H    0.045428  -0.061793   0.041562  -0.001480   0.359417  -0.005670
     9  C    0.806534  -3.457686   2.763645  -1.012566  -0.374500  -0.008152
    10  S    0.182338   0.769231   0.324110  -0.022583   0.047797   0.000047
    11  C   -0.218441  -0.484471  -0.970029   0.184105  -0.001139  -0.000157
    12  C   -0.012330   1.257954   0.757763   0.027887   0.075956   0.000243
    13  C   -0.507285  -2.069549  -1.833774   0.179084  -0.115369  -0.000197
    14  H    0.004683   0.010151   0.040059  -0.003161   0.001861   0.000001
    15  S   -0.005768   0.011353   0.015967  -0.005398   0.001869   0.000001
    16  C    0.000148   0.030575   0.019656   0.002401   0.000527   0.000000
    17  C   -0.050038  -0.348926  -0.142043   0.028261   0.000242  -0.000009
    18  H    0.000000  -0.000050  -0.000219  -0.000013  -0.000001   0.000000
    19  H   -0.000009   0.000074  -0.000197   0.000053   0.000003   0.000000
    20  H    0.025251  -0.125521   0.009017   0.460495   0.008545   0.002205
    21  H   -0.022427   0.053659  -0.049711   0.368179   0.003761   0.000086
    22  H   -0.035598   0.010166  -0.004325   0.355350  -0.002912   0.000097
               7          8          9         10         11         12
     1  C   -1.747973   0.045428   0.806534   0.182338  -0.218441  -0.012330
     2  C    1.116570  -0.061793  -3.457686   0.769231  -0.484471   1.257954
     3  C   -2.014259   0.041562   2.763645   0.324110  -0.970029   0.757763
     4  C    0.674834  -0.001480  -1.012566  -0.022583   0.184105   0.027887
     5  C    0.456611   0.359417  -0.374500   0.047797  -0.001139   0.075956
     6  H    0.006636  -0.005670  -0.008152   0.000047  -0.000157   0.000243
     7  S   17.516475  -0.019360  -0.508424  -0.133979   0.240246  -0.108857
     8  H   -0.019360   0.487552  -0.004012  -0.000038  -0.000242  -0.000300
     9  C   -0.508424  -0.004012  12.122206   1.156495  -1.229477   1.963330
    10  S   -0.133979  -0.000038   1.156495  17.979190  -0.356643   2.362338
    11  C    0.240246  -0.000242  -1.229477  -0.356643  18.125257  -4.439366
    12  C   -0.108857  -0.000300   1.963330   2.362338  -4.439366  18.309474
    13  C    0.694269  -0.001017  -3.971933  -4.248557   1.170437 -10.912028
    14  H   -0.006176  -0.000001   0.062616   0.023703  -0.079568   0.085043
    15  S   -0.000969  -0.000002  -0.507443   0.288698   0.364378  -0.323100
    16  C   -0.001673  -0.000001   0.097186   0.277393   1.418960  -0.122650
    17  C    0.064485  -0.000014  -2.037057  -2.163385  -7.892939  -2.334133
    18  H    0.000006   0.000000   0.004389  -0.001855   0.006985   0.022525
    19  H    0.000030   0.000000  -0.008318   0.019645   0.020651  -0.062293
    20  H    0.001875  -0.000029  -0.001750   0.002258  -0.002701   0.003230
    21  H   -0.001209   0.000005  -0.005478   0.006966   0.008400  -0.018632
    22  H    0.001331   0.000006  -0.026157  -0.008934   0.003194   0.024552
              13         14         15         16         17         18
     1  C   -0.507285   0.004683  -0.005768   0.000148  -0.050038   0.000000
     2  C   -2.069549   0.010151   0.011353   0.030575  -0.348926  -0.000050
     3  C   -1.833774   0.040059   0.015967   0.019656  -0.142043  -0.000219
     4  C    0.179084  -0.003161  -0.005398   0.002401   0.028261  -0.000013
     5  C   -0.115369   0.001861   0.001869   0.000527   0.000242  -0.000001
     6  H   -0.000197   0.000001   0.000001   0.000000  -0.000009   0.000000
     7  S    0.694269  -0.006176  -0.000969  -0.001673   0.064485   0.000006
     8  H   -0.001017  -0.000001  -0.000002  -0.000001  -0.000014   0.000000
     9  C   -3.971933   0.062616  -0.507443   0.097186  -2.037057   0.004389
    10  S   -4.248557   0.023703   0.288698   0.277393  -2.163385  -0.001855
    11  C    1.170437  -0.079568   0.364378   1.418960  -7.892939   0.006985
    12  C  -10.912028   0.085043  -0.323100  -0.122650  -2.334133   0.022525
    13  C   23.129884   0.203608  -0.863122  -0.974977   5.373383   0.007517
    14  H    0.203608   0.520211   0.011279   0.001466  -0.009867  -0.000006
    15  S   -0.863122   0.011279  17.269937   0.489379  -0.329773  -0.042594
    16  C   -0.974977   0.001466   0.489379   5.836564  -1.250277   0.373722
    17  C    5.373383  -0.009867  -0.329773  -1.250277  16.251922  -0.010872
    18  H    0.007517  -0.000006  -0.042594   0.373722  -0.010872   0.477983
    19  H   -0.007245   0.000008   0.013696   0.031406   0.342355  -0.004964
    20  H   -0.012713   0.000007  -0.000015   0.000019  -0.000439  -0.000000
    21  H    0.012056   0.000007   0.000103  -0.000307   0.004494  -0.000000
    22  H    0.036549  -0.000090   0.000800   0.000261  -0.000079  -0.000000
              19         20         21         22
     1  C   -0.000009   0.025251  -0.022427  -0.035598
     2  C    0.000074  -0.125521   0.053659   0.010166
     3  C   -0.000197   0.009017  -0.049711  -0.004325
     4  C    0.000053   0.460495   0.368179   0.355350
     5  C    0.000003   0.008545   0.003761  -0.002912
     6  H    0.000000   0.002205   0.000086   0.000097
     7  S    0.000030   0.001875  -0.001209   0.001331
     8  H    0.000000  -0.000029   0.000005   0.000006
     9  C   -0.008318  -0.001750  -0.005478  -0.026157
    10  S    0.019645   0.002258   0.006966  -0.008934
    11  C    0.020651  -0.002701   0.008400   0.003194
    12  C   -0.062293   0.003230  -0.018632   0.024552
    13  C   -0.007245  -0.012713   0.012056   0.036549
    14  H    0.000008   0.000007   0.000007  -0.000090
    15  S    0.013696  -0.000015   0.000103   0.000800
    16  C    0.031406   0.000019  -0.000307   0.000261
    17  C    0.342355  -0.000439   0.004494  -0.000079
    18  H   -0.004964  -0.000000  -0.000000  -0.000000
    19  H    0.519557   0.000000  -0.000000   0.000000
    20  H    0.000000   0.537566  -0.025601  -0.025781
    21  H   -0.000000  -0.025601   0.533243  -0.030975
    22  H    0.000000  -0.025781  -0.030975   0.542282
 Mulliken charges:
               1
     1  C    0.029904
     2  C   -0.337388
     3  C    0.193067
     4  C   -0.589806
     5  C   -0.098309
     6  H    0.123237
     7  S   -0.230490
     8  H    0.159991
     9  C    0.176554
    10  S   -0.504235
    11  C    0.132561
    12  C   -0.556607
    13  C    0.710980
    14  H    0.134167
    15  S   -0.389277
    16  C   -0.229777
    17  C    0.504708
    18  H    0.167446
    19  H    0.135550
    20  H    0.144081
    21  H    0.163381
    22  H    0.160262
 Sum of Mulliken charges =  -0.00000
 Mulliken charges with hydrogens summed into heavy atoms:
               1
     1  C    0.153141
     2  C   -0.337388
     3  C    0.193067
     4  C   -0.122081
     5  C    0.061682
     7  S   -0.230490
     9  C    0.176554
    10  S   -0.504235
    11  C    0.132561
    12  C   -0.556607
    13  C    0.845146
    15  S   -0.389277
    16  C   -0.062331
    17  C    0.640258
 Electronic spatial extent (au):  <R**2>=           4352.6220
 Charge=              0.0000 electrons
 Dipole moment (field-independent basis, Debye):
    X=              0.1816    Y=              0.8650    Z=              0.4002  Tot=              0.9702
 Quadrupole moment (field-independent basis, Debye-Ang):
   XX=            -88.6498   YY=           -103.3650   ZZ=           -103.5707
   XY=              3.3723   XZ=             -2.4960   YZ=             -1.0689
 Traceless Quadrupole moment (field-independent basis, Debye-Ang):
   XX=              9.8787   YY=             -4.8365   ZZ=             -5.0422
   XY=              3.3723   XZ=             -2.4960   YZ=             -1.0689
 Octapole moment (field-independent basis, Debye-Ang**2):
  XXX=             -3.6986  YYY=              4.4379  ZZZ=              2.0507  XYY=             11.8159
  XXY=             -7.6573  XXZ=              8.7120  XZZ=             -6.9824  YZZ=             -0.4283
  YYZ=              1.6313  XYZ=             16.2948
 Hexadecapole moment (field-independent basis, Debye-Ang**3):
 XXXX=          -4203.0935 YYYY=           -731.3884 ZZZZ=           -601.2655 XXXY=              5.2589
 XXXZ=            -67.4091 YYYX=              6.4632 YYYZ=              3.3570 ZZZX=             -6.2777
 ZZZY=            -16.0060 XXYY=           -919.1481 XXZZ=           -925.9818 YYZZ=           -213.2817
 XXYZ=             10.1653 YYXZ=             -2.5340 ZZXY=              7.3848
 N-N= 1.119289407131D+03 E-N=-6.063017098176D+03  KE= 1.615133232529D+03
 Unable to Open any file for archive entry.
 1\1\GINC-CX3-2-11\FOpt\RB3LYP\6-311+G(d,p)\C11H8S3\NS5018\16-Oct-2021\
 0\\# opt=modredundant b3lyp/6-311+g(d,p)\\pBTTT_-95.pdb\\0,1\C,-4.2259
 464298,-1.4724416125,-0.1384685283\C,-2.9466996515,-1.0095340091,-0.57
 7441285\C,-2.0159773694,-2.024480509,-0.6196388028\C,-2.6604397124,0.4
 194073011,-0.9589922528\C,-4.2592284302,-2.8092177586,0.1382822776\H,-
 5.0873322789,-0.8242356201,-0.0368595797\S,-2.7225938522,-3.5509203214
 ,-0.1254368521\H,-5.0938332775,-3.4002026522,0.483773353\C,-0.60888125
 56,-1.9420674371,-1.0149518555\S,-0.1269468371,-2.3191152597,-2.679013
 087\C,1.5392048452,-1.9696513454,-2.3144214377\C,1.6806163315,-1.58850
 69308,-0.986152078\C,0.4655795609,-1.5747318277,-0.2480613557\H,0.3727
 404922,-1.3147048772,0.7974966465\S,3.3496400682,-1.2404416363,-0.6193
 272791\C,3.8130690906,-1.6164000238,-2.2630587685\C,2.7601897416,-1.98
 66544647,-3.0486517785\H,4.8518869365,-1.5379547385,-2.5453477942\H,2.
 8566871989,-2.2555589782,-4.091310008\H,-3.5459020794,1.0414186397,-0.
 8157409814\H,-2.3590921864,0.4994505612,-2.0073841889\H,-1.8507409052,
 0.8415435002,-0.3582943641\\Version=ES64L-G16RevC.01\State=1-A\HF=-161
 8.7153468\RMSD=6.584e-09\RMSF=1.914e-05\Dipole=-0.1092731,0.3643039,-0
 .0324648\Quadrupole=5.9178817,-4.2538024,-1.6640793,-0.8675572,-4.6463
 634,0.7346486\PG=C01 [X(C11H8S3)]\\@
 The archive entry for this job was punched.


 Sacred cows make the best hamburger.
                               -- Mark Twain
 Job cpu time:       0 days  2 hours  0 minutes 27.7 seconds.
 Elapsed time:       0 days  0 hours 15 minutes 10.5 seconds.
 File lengths (MBytes):  RWF=     91 Int=      0 D2E=      0 Chk=     13 Scr=      1
 Normal termination of Gaussian 16 at Sat Oct 16 23:38:25 2021.
